 Entering Gaussian System, Link 0=g16
 Input=c8h18_2.gjf
 Output=c8h18_2.log
 Initial command:
 /home/soft/g16/l1.exe "/tmp/liwei01/gaussian/liaokang/Gau-3078.inp" -scrdir="/tmp/liwei01/gaussian/liaokang/"
 Entering Link 1 = /home/soft/g16/l1.exe PID=      3088.
  
 Copyright (c) 1988,1990,1992,1993,1995,1998,2003,2009,2016,
            Gaussian, Inc.  All Rights Reserved.
  
 This is part of the Gaussian(R) 16 program.  It is based on
 the Gaussian(R) 09 system (copyright 2009, Gaussian, Inc.),
 the Gaussian(R) 03 system (copyright 2003, Gaussian, Inc.),
 the Gaussian(R) 98 system (copyright 1998, Gaussian, Inc.),
 the Gaussian(R) 94 system (copyright 1995, Gaussian, Inc.),
 the Gaussian 92(TM) system (copyright 1992, Gaussian, Inc.),
 the Gaussian 90(TM) system (copyright 1990, Gaussian, Inc.),
 the Gaussian 88(TM) system (copyright 1988, Gaussian, Inc.),
 the Gaussian 86(TM) system (copyright 1986, Carnegie Mellon
 University), and the Gaussian 82(TM) system (copyright 1983,
 Carnegie Mellon University). Gaussian is a federally registered
 trademark of Gaussian, Inc.
  
 This software contains proprietary and confidential information,
 including trade secrets, belonging to Gaussian, Inc.
  
 This software is provided under written license and may be
 used, copied, transmitted, or stored only in accord with that
 written license.
  
 The following legend is applicable only to US Government
 contracts under FAR:
  
                    RESTRICTED RIGHTS LEGEND
  
 Use, reproduction and disclosure by the US Government is
 subject to restrictions as set forth in subparagraphs (a)
 and (c) of the Commercial Computer Software - Restricted
 Rights clause in FAR 52.227-19.
  
 Gaussian, Inc.
 340 Quinnipiac St., Bldg. 40, Wallingford CT 06492
  
  
 ---------------------------------------------------------------
 Warning -- This program may not be used in any manner that
 competes with the business of Gaussian, Inc. or will provide
 assistance to any competitor of Gaussian, Inc.  The licensee
 of this program is prohibited from giving any competitor of
 Gaussian, Inc. access to this program.  By using this program,
 the user acknowledges that Gaussian, Inc. is engaged in the
 business of creating and licensing software in the field of
 computational chemistry and represents and warrants to the
 licensee that it is not a competitor of Gaussian, Inc. and that
 it will not use this program in any manner prohibited above.
 ---------------------------------------------------------------
  

 Cite this work as:
 Gaussian 16, Revision A.03,
 M. J. Frisch, G. W. Trucks, H. B. Schlegel, G. E. Scuseria, 
 M. A. Robb, J. R. Cheeseman, G. Scalmani, V. Barone, 
 G. A. Petersson, H. Nakatsuji, X. Li, M. Caricato, A. V. Marenich, 
 J. Bloino, B. G. Janesko, R. Gomperts, B. Mennucci, H. P. Hratchian, 
 J. V. Ortiz, A. F. Izmaylov, J. L. Sonnenberg, D. Williams-Young, 
 F. Ding, F. Lipparini, F. Egidi, J. Goings, B. Peng, A. Petrone, 
 T. Henderson, D. Ranasinghe, V. G. Zakrzewski, J. Gao, N. Rega, 
 G. Zheng, W. Liang, M. Hada, M. Ehara, K. Toyota, R. Fukuda, 
 J. Hasegawa, M. Ishida, T. Nakajima, Y. Honda, O. Kitao, H. Nakai, 
 T. Vreven, K. Throssell, J. A. Montgomery, Jr., J. E. Peralta, 
 F. Ogliaro, M. J. Bearpark, J. J. Heyd, E. N. Brothers, K. N. Kudin, 
 V. N. Staroverov, T. A. Keith, R. Kobayashi, J. Normand, 
 K. Raghavachari, A. P. Rendell, J. C. Burant, S. S. Iyengar, 
 J. Tomasi, M. Cossi, J. M. Millam, M. Klene, C. Adamo, R. Cammi, 
 J. W. Ochterski, R. L. Martin, K. Morokuma, O. Farkas, 
 J. B. Foresman, and D. J. Fox, Gaussian, Inc., Wallingford CT, 2016.
 
 ******************************************
 Gaussian 16:  ES64L-G16RevA.03 25-Dec-2016
                23-Mar-2020 
 ******************************************
 %chk=c8h18_2.chk
 %nproc=8
 Will use up to    8 processors via shared memory.
 %mem=1gb
 --------------------------------------
 #p hf/6-31g** 5d pop=npa charge nosymm
 --------------------------------------
 1/18=10,28=-2,38=1,125=101,172=1/1;
 2/12=2,15=1,17=6,18=5,40=1/2;
 3/5=1,6=6,7=101,8=1,11=9,25=1,30=1/1,2,3;
 4//1;
 5/5=2,38=5/2;
 6/7=2,8=2,9=2,10=2,28=1,40=-1/1,7;
 99/5=1,9=1/99;
 Leave Link    1 at Mon Mar 23 14:19:01 2020, MaxMem=   134217728 cpu:               0.6 elap:               0.1
 (Enter /home/soft/g16/l101.exe)
 --------------
 Atom number=20
 --------------
 Symbolic Z-matrix:
 Charge =  0 Multiplicity = 1
 c                    -5.70723   0.0377   -0.54181 
 c                    -5.19389   0.76318  -1.79949 
 c                    -3.65389   0.7657   -1.79802 
 c                    -3.14055   1.49118  -3.0557 
 c                    -1.60055   1.4937   -3.05423 
 c                    -1.08721   2.21918  -4.31192 
 h                    -6.77723   0.03601  -0.54279 
 h                    -5.34898  -0.97055  -0.54045 
 h                    -5.35216   0.54355   0.33165 
 h                    -5.55221   1.7714   -1.80088 
 h                    -5.5489    0.25728  -2.67295 
 h                    -3.29557  -0.24251  -1.79661 
 h                    -3.29888   1.27161  -0.92456 
 h                    -3.49887   2.4994   -3.05711 
 h                    -3.49555   0.98527  -3.92916 
 h                    -1.24223   0.48549  -3.05283 
 h                    -1.24555   1.99961  -2.18078 
 h                    -1.44553   3.2274   -4.31332 
 h                    -0.01721   2.22093  -4.3109 
 h                    -1.44221   1.71327  -5.18537 
 
 ITRead=  0  0  0  0  0  0  0  0  0  0  0  0  0  0  0  0  0  0  0  0
 MicOpt= -1 -1 -1 -1 -1 -1 -1 -1 -1 -1 -1 -1 -1 -1 -1 -1 -1 -1 -1 -1
 NAtoms=     20 NQM=       20 NQMF=       0 NMMI=      0 NMMIF=      0
                NMic=       0 NMicF=      0.
                    Isotopes and Nuclear Properties:
 (Nuclear quadrupole moments (NQMom) in fm**2, nuclear magnetic moments (NMagM)
  in nuclear magnetons)

  Atom         1           2           3           4           5           6           7           8           9          10
 IAtWgt=          12          12          12          12          12          12           1           1           1           1
 AtmWgt=  12.0000000  12.0000000  12.0000000  12.0000000  12.0000000  12.0000000   1.0078250   1.0078250   1.0078250   1.0078250
 NucSpn=           0           0           0           0           0           0           1           1           1           1
 AtZEff=  -0.0000000  -0.0000000  -0.0000000  -0.0000000  -0.0000000  -0.0000000  -0.0000000  -0.0000000  -0.0000000  -0.0000000
 NQMom=    0.0000000   0.0000000   0.0000000   0.0000000   0.0000000   0.0000000   0.0000000   0.0000000   0.0000000   0.0000000
 NMagM=    0.0000000   0.0000000   0.0000000   0.0000000   0.0000000   0.0000000   2.7928460   2.7928460   2.7928460   2.7928460
 AtZNuc=   6.0000000   6.0000000   6.0000000   6.0000000   6.0000000   6.0000000   1.0000000   1.0000000   1.0000000   1.0000000

  Atom        11          12          13          14          15          16          17          18          19          20
 IAtWgt=           1           1           1           1           1           1           1           1           1           1
 AtmWgt=   1.0078250   1.0078250   1.0078250   1.0078250   1.0078250   1.0078250   1.0078250   1.0078250   1.0078250   1.0078250
 NucSpn=           1           1           1           1           1           1           1           1           1           1
 AtZEff=  -0.0000000  -0.0000000  -0.0000000  -0.0000000  -0.0000000  -0.0000000  -0.0000000  -0.0000000  -0.0000000  -0.0000000
 NQMom=    0.0000000   0.0000000   0.0000000   0.0000000   0.0000000   0.0000000   0.0000000   0.0000000   0.0000000   0.0000000
 NMagM=    2.7928460   2.7928460   2.7928460   2.7928460   2.7928460   2.7928460   2.7928460   2.7928460   2.7928460   2.7928460
 AtZNuc=   1.0000000   1.0000000   1.0000000   1.0000000   1.0000000   1.0000000   1.0000000   1.0000000   1.0000000   1.0000000
 Background charge distribution read from input stream:
 Point Charges:
 XYZ=   -7.7606   -0.6907    0.7142 Q=   -0.6339 A=    0.0000 R=    0.0000 C=    0.0000
 XYZ=   -7.4039   -1.6995    0.7142 Q=    0.2104 A=    0.0000 R=    0.0000 C=    0.0000
 XYZ=   -7.4039   -0.1863    1.5878 Q=    0.2104 A=    0.0000 R=    0.0000 C=    0.0000
 XYZ=   -8.8306   -0.6907    0.7142 Q=    0.2145 A=    0.0000 R=    0.0000 C=    0.0000
 XYZ=   -7.2472    0.0353   -0.5432 Q=   -0.4180 A=    0.0000 R=    0.0000 C=    0.0000
 XYZ=   -7.6055    1.0435   -0.5442 Q=    0.2107 A=    0.0000 R=    0.0000 C=    0.0000
 XYZ=   -7.6023   -0.4703   -1.4169 Q=    0.2108 A=    0.0000 R=    0.0000 C=    0.0000
 Pt Chg Charge=              0.0050 electrons
 Pt Chg Dipole moment (Debye):
    X=             -1.2827    Y=             -0.0055    Z=             -0.0062  Tot=              1.2827
 Pt Chg Quadrupole moment (Debye-Ang):
   XX=             19.4104   YY=              3.3173   ZZ=              3.7761
   XY=              0.1768   XZ=              0.3377   YZ=             -0.3942
 Pt Chg Traceless Quadrupole moment (Debye-Ang):
   XX=             10.5758   YY=             -5.5173   ZZ=             -5.0585
   XY=              0.1768   XZ=              0.3377   YZ=             -0.3942
 Pt Chg Octapole moment (Debye-Ang**2):
  XXX=           -232.8856  YYY=             -3.2596  ZZZ=              0.9602  XYY=            -25.0115
  XXY=             -3.4730  XXZ=             -3.4931  XZZ=            -28.7101  YZZ=             -1.3051
  YYZ=              0.5389  XYZ=              3.0961
 Pt Chg Hexadecapole moment (Debye-Ang**3):
 XXXX=           2526.8166 YYYY=              9.2249 ZZZZ=             10.1575 XXXY=             52.2827
 XXXZ=             22.5396 YYYX=             24.0496 YYYZ=             -3.5567 ZZZX=             -6.5949
 ZZZY=              0.3223 XXYY=            189.3863 XXZZ=            219.0874 YYZZ=              1.8625
 XXYZ=            -25.0780 YYXZ=             -3.9365 ZZXY=              9.9211
 Leave Link  101 at Mon Mar 23 14:19:02 2020, MaxMem=   134217728 cpu:               0.8 elap:               0.1
 (Enter /home/soft/g16/l202.exe)
                          Input orientation:                          
 ---------------------------------------------------------------------
 Center     Atomic      Atomic             Coordinates (Angstroms)
 Number     Number       Type             X           Y           Z
 ---------------------------------------------------------------------
      1          6           0       -5.707232    0.037696   -0.541810
      2          6           0       -5.193889    0.763183   -1.799486
      3          6           0       -3.653892    0.765705   -1.798019
      4          6           0       -3.140548    1.491180   -3.055702
      5          6           0       -1.600551    1.493704   -3.054234
      6          6           0       -1.087208    2.219182   -4.311915
      7          1           0       -6.777230    0.036015   -0.542788
      8          1           0       -5.348982   -0.970548   -0.540455
      9          1           0       -5.352158    0.543549    0.331651
     10          1           0       -5.552207    1.771402   -1.800882
     11          1           0       -5.548896    0.257283   -2.672947
     12          1           0       -3.295575   -0.242515   -1.796613
     13          1           0       -3.298884    1.271613   -0.924563
     14          1           0       -3.498868    2.499399   -3.057108
     15          1           0       -3.495554    0.985271   -3.929159
     16          1           0       -1.242233    0.485485   -3.052829
     17          1           0       -1.245545    1.999612   -2.180776
     18          1           0       -1.445526    3.227401   -4.313319
     19          1           0       -0.017210    2.220934   -4.310896
     20          1           0       -1.442215    1.713275   -5.185373
 ---------------------------------------------------------------------
                    Distance matrix (angstroms):
                    1          2          3          4          5
     1  C    0.000000
     2  C    1.540000   0.000000
     3  C    2.514809   1.540000   0.000000
     4  C    3.875581   2.514809   1.540000   0.000000
     5  C    5.029618   3.875581   2.514809   1.540000   0.000000
     6  C    6.349582   5.029618   3.875581   2.514809   1.540000
     7  H    1.070000   2.148263   3.444314   4.653783   5.935506
     8  H    1.070000   2.148263   2.733016   4.154967   5.142214
     9  H    1.070000   2.148263   2.732939   4.154922   5.142136
    10  H    2.148263   1.070000   2.148263   2.732982   4.154947
    11  H    2.148263   1.070000   2.148263   2.732973   4.154942
    12  H    2.732973   2.148263   1.070000   2.148263   2.732979
    13  H    2.732982   2.148263   1.070000   2.148263   2.732976
    14  H    4.154946   2.732976   2.148263   1.070000   2.148263
    15  H    4.154942   2.732978   2.148263   1.070000   2.148263
    16  H    5.142173   4.154945   2.732978   2.148263   1.070000
    17  H    5.142176   4.154944   2.732977   2.148263   1.070000
    18  H    6.523851   5.142174   4.154944   2.732978   2.148263
    19  H    7.165814   5.935506   4.653783   3.444314   2.148263
    20  H    6.523849   5.142175   4.154945   2.732977   2.148263
                    6          7          8          9         10
     6  C    0.000000
     7  H    7.165814   0.000000
     8  H    6.523880   1.747302   0.000000
     9  H    6.523822   1.747303   1.747303   0.000000
    10  H    5.142179   2.468816   3.024610   2.468875   0.000000
    11  H    5.142171   2.468875   2.468817   3.024610   1.747303
    12  H    4.154946   3.711008   2.514846   3.062179   3.024610
    13  H    4.154943   3.710976   3.062307   2.514773   2.468843
    14  H    2.732977   4.810169   4.668726   4.329402   2.514813
    15  H    2.732978   4.810197   4.329404   4.668682   3.062251
    16  H    2.148263   6.094138   5.029657   5.324430   4.668707
    17  H    2.148263   6.094117   5.324538   5.029580   4.329403
    18  H    1.070000   7.268351   6.862525   6.636308   5.029622
    19  H    1.070000   8.041790   7.268396   7.268324   6.094131
    20  H    1.070000   7.268369   6.636339   6.862468   5.324489
                   11         12         13         14         15
    11  H    0.000000
    12  H    2.468849   0.000000
    13  H    3.024610   1.747303   0.000000
    14  H    3.062235   3.024610   2.468846   0.000000
    15  H    2.514805   2.468846   3.024610   1.747303   0.000000
    16  H    4.329403   2.514811   3.062242   3.024610   2.468845
    17  H    4.668701   3.062243   2.514807   2.468847   3.024610
    18  H    5.324478   4.668705   4.329401   2.514809   3.062245
    19  H    6.094124   4.810185   4.810182   3.710993   3.710992
    20  H    5.029615   4.329405   4.668703   3.062241   2.514809
                   16         17         18         19         20
    16  H    0.000000
    17  H    1.747303   0.000000
    18  H    3.024610   2.468845   0.000000
    19  H    2.468846   2.468846   1.747303   0.000000
    20  H    2.468847   3.024610   1.747303   1.747303   0.000000
 Symmetry turned off by external request.
 Stoichiometry    C6H14
 Framework group  C1[X(C6H14)]
 Deg. of freedom    54
 Full point group                 C1      NOp   1
 Rotational constants (GHZ):          14.2974390           1.1715546           1.1274227
 Leave Link  202 at Mon Mar 23 14:19:02 2020, MaxMem=   134217728 cpu:               0.1 elap:               0.0
 (Enter /home/soft/g16/l301.exe)
 Standard basis: 6-31G(d,p) (5D, 7F)
 Ernie: Thresh=  0.10000D-02 Tol=  0.10000D-05 Strict=F.
   154 basis functions,   266 primitive gaussians,   160 cartesian basis functions
    25 alpha electrons       25 beta electrons
       nuclear repulsion energy       246.4469683679 Hartrees.
 IExCor=    0 DFT=F Ex=HF Corr=None ExCW=0 ScaHFX=  1.000000
 ScaDFX=  1.000000  1.000000  1.000000  1.000000 ScalE2=  1.000000  1.000000
 IRadAn=      5 IRanWt=     -1 IRanGd=            0 ICorTp=0 IEmpDi=  4
 NAtoms=   20 NActive=   20 NUniq=   20 SFac= 1.00D+00 NAtFMM=   60 NAOKFM=F Big=F
 Integral buffers will be    131072 words long.
 Raffenetti 1 integral format.
 Two-electron integral symmetry is turned off.
 Background charge distribution read from rwf.
 PtFMM for NChg=        27 BoxLen=    40.00 Levels= 1 LMax=20 SMax=    16.7 ICnFMM=     1:
 Self energy of the charges =        -0.2184046394 a.u.
 MM   energy of the charges =         0.0000000000 a.u.
 Nuclei-charges interaction =        -0.9858988830 a.u.
 Nuclear repulsion after external point charges =      245.2426648456 Hartrees.
 Leave Link  301 at Mon Mar 23 14:19:02 2020, MaxMem=   134217728 cpu:               0.5 elap:               0.1
 (Enter /home/soft/g16/l302.exe)
 NPDir=0 NMtPBC=     1 NCelOv=     1 NCel=       1 NClECP=     1 NCelD=      1
         NCelK=      1 NCelE2=     1 NClLst=     1 CellRange=     0.0.
 One-electron integrals computed using PRISM.
 NBasis=   154 RedAO= T EigKep=  3.21D-03  NBF=   154
 NBsUse=   154 1.00D-06 EigRej= -1.00D+00 NBFU=   154
 Leave Link  302 at Mon Mar 23 14:19:02 2020, MaxMem=   134217728 cpu:               1.0 elap:               0.1
 (Enter /home/soft/g16/l303.exe)
 DipDrv:  MaxL=1.
 Leave Link  303 at Mon Mar 23 14:19:02 2020, MaxMem=   134217728 cpu:               0.2 elap:               0.0
 (Enter /home/soft/g16/l401.exe)
 ExpMin= 1.61D-01 ExpMax= 3.05D+03 ExpMxC= 4.57D+02 IAcc=3 IRadAn=         5 AccDes= 0.00D+00
 Harris functional with IExCor=  205 and IRadAn=       5 diagonalized for initial guess.
 HarFok:  IExCor=  205 AccDes= 0.00D+00 IRadAn=         5 IDoV= 1 UseB2=F ITyADJ=14
 ICtDFT=  3500011 ScaDFX=  1.000000  1.000000  1.000000  1.000000
 FoFCou: FMM=F IPFlag=           0 FMFlag=      100000 FMFlg1=           0
         NFxFlg=           0 DoJE=T BraDBF=F KetDBF=T FulRan=T
         wScrn=  0.000000 ICntrl=       500 IOpCl=  0 I1Cent=   200000004 NGrid=           0
         NMat0=    1 NMatS0=      1 NMatT0=    0 NMatD0=    1 NMtDS0=    0 NMtDT0=    0
 Symmetry not used in FoFCou.
 Harris En= -236.456998710147    
 JPrj=0 DoOrth=F DoCkMO=F.
 Leave Link  401 at Mon Mar 23 14:19:02 2020, MaxMem=   134217728 cpu:               4.3 elap:               0.6
 (Enter /home/soft/g16/l502.exe)
 Two-electron integral symmetry not used.
 Closed shell SCF:
 Using DIIS extrapolation, IDIIS=  1040.
 NGot=   134217728 LenX=   134163656 LenY=   134137615
 Requested convergence on RMS density matrix=1.00D-08 within 128 cycles.
 Requested convergence on MAX density matrix=1.00D-06.
 Requested convergence on             energy=1.00D-06.
 No special actions if energy rises.
 Fock matrices will be formed incrementally for  20 cycles.
 Integral accuracy reduced to 1.0D-05 until final iterations.

 Cycle   1  Pass 0  IDiag  1:
 FoFJK:  IHMeth= 1 ICntrl=       0 DoSepK=F KAlg= 0 I1Cent=           0 FoldK=F
 IRaf= 920000000 NMat=       1 IRICut=       1 DoRegI=T DoRafI=F ISym2E= 0 IDoP0=0 IntGTp=1.
 FoFCou: FMM=F IPFlag=           0 FMFlag=      100000 FMFlg1=           0
         NFxFlg=           0 DoJE=F BraDBF=F KetDBF=F FulRan=T
         wScrn=  0.000000 ICntrl=         0 IOpCl=  0 I1Cent=           0 NGrid=           0
         NMat0=    1 NMatS0=      1 NMatT0=    0 NMatD0=    1 NMtDS0=    0 NMtDT0=    0
 Symmetry not used in FoFCou.
 E= -235.314616557036    
 DIIS: error= 5.07D-02 at cycle   1 NSaved=   1.
 NSaved= 1 IEnMin= 1 EnMin= -235.314616557036     IErMin= 1 ErrMin= 5.07D-02
 ErrMax= 5.07D-02  0.00D+00 EMaxC= 1.00D-01 BMatC= 4.42D-01 BMatP= 4.42D-01
 IDIUse=3 WtCom= 4.93D-01 WtEn= 5.07D-01
 Coeff-Com:  0.100D+01
 Coeff-En:   0.100D+01
 Coeff:      0.100D+01
 Gap=     0.576 Goal=   None    Shift=    0.000
 GapD=    0.576 DampG=2.000 DampE=0.500 DampFc=1.0000 IDamp=-1.
 RMSDP=5.15D-03 MaxDP=1.32D-01              OVMax= 1.36D-01

 Cycle   2  Pass 0  IDiag  1:
 RMSU=  5.01D-03    CP:  9.44D-01
 E= -235.687900689398     Delta-E=       -0.373284132362 Rises=F Damp=F
 DIIS: error= 1.97D-02 at cycle   2 NSaved=   2.
 NSaved= 2 IEnMin= 2 EnMin= -235.687900689398     IErMin= 2 ErrMin= 1.97D-02
 ErrMax= 1.97D-02  0.00D+00 EMaxC= 1.00D-01 BMatC= 6.95D-02 BMatP= 4.42D-01
 IDIUse=3 WtCom= 8.03D-01 WtEn= 1.97D-01
 Coeff-Com:  0.255D+00 0.745D+00
 Coeff-En:   0.000D+00 0.100D+01
 Coeff:      0.205D+00 0.795D+00
 Gap=     0.642 Goal=   None    Shift=    0.000
 RMSDP=1.71D-03 MaxDP=3.19D-02 DE=-3.73D-01 OVMax= 4.57D-02

 Cycle   3  Pass 0  IDiag  1:
 RMSU=  8.68D-04    CP:  9.60D-01  7.14D-01
 E= -235.754403222521     Delta-E=       -0.066502533123 Rises=F Damp=F
 DIIS: error= 3.90D-03 at cycle   3 NSaved=   3.
 NSaved= 3 IEnMin= 3 EnMin= -235.754403222521     IErMin= 3 ErrMin= 3.90D-03
 ErrMax= 3.90D-03  0.00D+00 EMaxC= 1.00D-01 BMatC= 1.45D-03 BMatP= 6.95D-02
 IDIUse=3 WtCom= 9.61D-01 WtEn= 3.90D-02
 Coeff-Com: -0.291D-01 0.573D-01 0.972D+00
 Coeff-En:   0.000D+00 0.000D+00 0.100D+01
 Coeff:     -0.279D-01 0.550D-01 0.973D+00
 Gap=     0.618 Goal=   None    Shift=    0.000
 RMSDP=2.60D-04 MaxDP=5.68D-03 DE=-6.65D-02 OVMax= 7.99D-03

 Cycle   4  Pass 0  IDiag  1:
 RMSU=  1.28D-04    CP:  9.58D-01  7.57D-01  1.06D+00
 E= -235.756170575990     Delta-E=       -0.001767353469 Rises=F Damp=F
 DIIS: error= 5.22D-04 at cycle   4 NSaved=   4.
 NSaved= 4 IEnMin= 4 EnMin= -235.756170575990     IErMin= 4 ErrMin= 5.22D-04
 ErrMax= 5.22D-04  0.00D+00 EMaxC= 1.00D-01 BMatC= 3.42D-05 BMatP= 1.45D-03
 IDIUse=3 WtCom= 9.95D-01 WtEn= 5.22D-03
 Coeff-Com: -0.173D-02-0.188D-01-0.593D-01 0.108D+01
 Coeff-En:   0.000D+00 0.000D+00 0.000D+00 0.100D+01
 Coeff:     -0.172D-02-0.187D-01-0.590D-01 0.108D+01
 Gap=     0.620 Goal=   None    Shift=    0.000
 RMSDP=7.05D-05 MaxDP=1.07D-03 DE=-1.77D-03 OVMax= 1.93D-03

 Cycle   5  Pass 0  IDiag  1:
 RMSU=  4.21D-05    CP:  9.58D-01  7.57D-01  1.11D+00  1.25D+00
 E= -235.756229373529     Delta-E=       -0.000058797539 Rises=F Damp=F
 DIIS: error= 1.81D-04 at cycle   5 NSaved=   5.
 NSaved= 5 IEnMin= 5 EnMin= -235.756229373529     IErMin= 5 ErrMin= 1.81D-04
 ErrMax= 1.81D-04  0.00D+00 EMaxC= 1.00D-01 BMatC= 3.76D-06 BMatP= 3.42D-05
 IDIUse=3 WtCom= 9.98D-01 WtEn= 1.81D-03
 Coeff-Com:  0.200D-02-0.809D-02-0.850D-01 0.174D+00 0.917D+00
 Coeff-En:   0.000D+00 0.000D+00 0.000D+00 0.000D+00 0.100D+01
 Coeff:      0.199D-02-0.808D-02-0.849D-01 0.174D+00 0.917D+00
 Gap=     0.620 Goal=   None    Shift=    0.000
 RMSDP=2.03D-05 MaxDP=3.68D-04 DE=-5.88D-05 OVMax= 6.13D-04

 Cycle   6  Pass 0  IDiag  1:
 RMSU=  8.43D-06    CP:  9.58D-01  7.58D-01  1.12D+00  1.37D+00  1.06D+00
 E= -235.756234813215     Delta-E=       -0.000005439687 Rises=F Damp=F
 DIIS: error= 2.12D-05 at cycle   6 NSaved=   6.
 NSaved= 6 IEnMin= 6 EnMin= -235.756234813215     IErMin= 6 ErrMin= 2.12D-05
 ErrMax= 2.12D-05  0.00D+00 EMaxC= 1.00D-01 BMatC= 8.09D-08 BMatP= 3.76D-06
 IDIUse=1 WtCom= 1.00D+00 WtEn= 0.00D+00
 Coeff-Com:  0.247D-03-0.128D-03-0.515D-02-0.315D-01 0.658D-01 0.971D+00
 Coeff:      0.247D-03-0.128D-03-0.515D-02-0.315D-01 0.658D-01 0.971D+00
 Gap=     0.620 Goal=   None    Shift=    0.000
 RMSDP=4.42D-06 MaxDP=7.25D-05 DE=-5.44D-06 OVMax= 1.13D-04

 Initial convergence to 1.0D-05 achieved.  Increase integral accuracy.
 Cycle   7  Pass 1  IDiag  1:
 E= -235.756236255929     Delta-E=       -0.000001442714 Rises=F Damp=F
 DIIS: error= 1.20D-05 at cycle   1 NSaved=   1.
 NSaved= 1 IEnMin= 1 EnMin= -235.756236255929     IErMin= 1 ErrMin= 1.20D-05
 ErrMax= 1.20D-05  0.00D+00 EMaxC= 1.00D-01 BMatC= 8.28D-09 BMatP= 8.28D-09
 IDIUse=1 WtCom= 1.00D+00 WtEn= 0.00D+00
 Coeff-Com:  0.100D+01
 Coeff:      0.100D+01
 Gap=     0.620 Goal=   None    Shift=    0.000
 RMSDP=4.42D-06 MaxDP=7.25D-05 DE=-1.44D-06 OVMax= 2.00D-05

 Cycle   8  Pass 1  IDiag  1:
 RMSU=  1.21D-06    CP:  1.00D+00
 E= -235.756236262751     Delta-E=       -0.000000006821 Rises=F Damp=F
 DIIS: error= 1.72D-06 at cycle   2 NSaved=   2.
 NSaved= 2 IEnMin= 2 EnMin= -235.756236262751     IErMin= 2 ErrMin= 1.72D-06
 ErrMax= 1.72D-06  0.00D+00 EMaxC= 1.00D-01 BMatC= 4.87D-10 BMatP= 8.28D-09
 IDIUse=1 WtCom= 1.00D+00 WtEn= 0.00D+00
 Coeff-Com:  0.466D-01 0.953D+00
 Coeff:      0.466D-01 0.953D+00
 Gap=     0.620 Goal=   None    Shift=    0.000
 RMSDP=2.86D-07 MaxDP=4.69D-06 DE=-6.82D-09 OVMax= 8.36D-06

 Cycle   9  Pass 1  IDiag  1:
 RMSU=  2.26D-07    CP:  1.00D+00  1.14D+00
 E= -235.756236263495     Delta-E=       -0.000000000745 Rises=F Damp=F
 DIIS: error= 6.45D-07 at cycle   3 NSaved=   3.
 NSaved= 3 IEnMin= 3 EnMin= -235.756236263495     IErMin= 3 ErrMin= 6.45D-07
 ErrMax= 6.45D-07  0.00D+00 EMaxC= 1.00D-01 BMatC= 8.72D-11 BMatP= 4.87D-10
 IDIUse=1 WtCom= 1.00D+00 WtEn= 0.00D+00
 Coeff-Com: -0.478D-01 0.163D+00 0.885D+00
 Coeff:     -0.478D-01 0.163D+00 0.885D+00
 Gap=     0.620 Goal=   None    Shift=    0.000
 RMSDP=1.19D-07 MaxDP=1.79D-06 DE=-7.45D-10 OVMax= 2.94D-06

 Cycle  10  Pass 1  IDiag  1:
 RMSU=  6.93D-08    CP:  1.00D+00  1.22D+00  1.19D+00
 E= -235.756236263639     Delta-E=       -0.000000000144 Rises=F Damp=F
 DIIS: error= 2.40D-07 at cycle   4 NSaved=   4.
 NSaved= 4 IEnMin= 4 EnMin= -235.756236263639     IErMin= 4 ErrMin= 2.40D-07
 ErrMax= 2.40D-07  0.00D+00 EMaxC= 1.00D-01 BMatC= 6.77D-12 BMatP= 8.72D-11
 IDIUse=1 WtCom= 1.00D+00 WtEn= 0.00D+00
 Coeff-Com:  0.447D-02-0.138D+00-0.183D+00 0.132D+01
 Coeff:      0.447D-02-0.138D+00-0.183D+00 0.132D+01
 Gap=     0.620 Goal=   None    Shift=    0.000
 RMSDP=6.66D-08 MaxDP=1.05D-06 DE=-1.44D-10 OVMax= 1.96D-06

 Cycle  11  Pass 1  IDiag  1:
 RMSU=  1.02D-08    CP:  1.00D+00  1.25D+00  1.39D+00  1.36D+00
 E= -235.756236263656     Delta-E=       -0.000000000016 Rises=F Damp=F
 DIIS: error= 2.43D-08 at cycle   5 NSaved=   5.
 NSaved= 5 IEnMin= 5 EnMin= -235.756236263656     IErMin= 5 ErrMin= 2.43D-08
 ErrMax= 2.43D-08  0.00D+00 EMaxC= 1.00D-01 BMatC= 1.27D-13 BMatP= 6.77D-12
 IDIUse=1 WtCom= 1.00D+00 WtEn= 0.00D+00
 Coeff-Com:  0.106D-02-0.594D-02-0.202D-01 0.307D-01 0.994D+00
 Coeff:      0.106D-02-0.594D-02-0.202D-01 0.307D-01 0.994D+00
 Gap=     0.620 Goal=   None    Shift=    0.000
 RMSDP=4.07D-09 MaxDP=8.67D-08 DE=-1.64D-11 OVMax= 1.22D-07

 SCF Done:  E(RHF) =  -235.756236264     A.U. after   11 cycles
            NFock= 11  Conv=0.41D-08     -V/T= 2.0002
 KE= 2.357051908965D+02 PE=-1.039527464951D+03 EE= 3.228233729456D+02
 Leave Link  502 at Mon Mar 23 14:19:04 2020, MaxMem=   134217728 cpu:              13.6 elap:               1.7
 (Enter /home/soft/g16/l601.exe)
 Copying SCF densities to generalized density rwf, IOpCl= 0 IROHF=0.

 **********************************************************************

            Population analysis using the SCF density.

 **********************************************************************

 Alpha  occ. eigenvalues --  -11.19701 -11.19240 -11.19172 -11.18647 -11.18354
 Alpha  occ. eigenvalues --  -11.13973  -1.07029  -1.01629  -0.93731  -0.84560
 Alpha  occ. eigenvalues --   -0.78434  -0.77273  -0.64591  -0.60045  -0.57502
 Alpha  occ. eigenvalues --   -0.54645  -0.54133  -0.50248  -0.48835  -0.47665
 Alpha  occ. eigenvalues --   -0.46402  -0.45818  -0.45305  -0.43834  -0.38012
 Alpha virt. eigenvalues --    0.23972   0.26078   0.28475   0.29284   0.30019
 Alpha virt. eigenvalues --    0.33501   0.33611   0.35489   0.35566   0.36239
 Alpha virt. eigenvalues --    0.36446   0.38545   0.39399   0.39656   0.41031
 Alpha virt. eigenvalues --    0.42349   0.47017   0.48131   0.49120   0.69565
 Alpha virt. eigenvalues --    0.72231   0.74457   0.75387   0.77584   0.77964
 Alpha virt. eigenvalues --    0.80285   0.85417   0.85886   0.89835   0.95489
 Alpha virt. eigenvalues --    0.97876   1.00286   1.00944   1.03774   1.09199
 Alpha virt. eigenvalues --    1.09479   1.12385   1.16513   1.16559   1.18990
 Alpha virt. eigenvalues --    1.20609   1.20682   1.21955   1.22395   1.22564
 Alpha virt. eigenvalues --    1.23224   1.23835   1.25698   1.26349   1.26760
 Alpha virt. eigenvalues --    1.34892   1.38585   1.56125   1.57282   1.59085
 Alpha virt. eigenvalues --    1.67857   1.69158   1.73676   1.81306   1.82573
 Alpha virt. eigenvalues --    1.88635   1.97672   1.98408   2.01025   2.02200
 Alpha virt. eigenvalues --    2.02932   2.12470   2.16195   2.20274   2.21581
 Alpha virt. eigenvalues --    2.23577   2.28463   2.32300   2.36918   2.42052
 Alpha virt. eigenvalues --    2.42724   2.43884   2.45158   2.45973   2.47180
 Alpha virt. eigenvalues --    2.52025   2.53506   2.53772   2.57763   2.57943
 Alpha virt. eigenvalues --    2.59932   2.62949   2.65318   2.65591   2.67397
 Alpha virt. eigenvalues --    2.67943   2.73162   2.79250   2.79474   2.83108
 Alpha virt. eigenvalues --    2.88038   2.90581   2.98669   3.03095   3.03681
 Alpha virt. eigenvalues --    3.05771   3.06874   3.12026   3.15252   3.18013
 Alpha virt. eigenvalues --    3.18821   3.24301   3.27530   3.27996   3.30002
 Alpha virt. eigenvalues --    3.31047   3.33340   3.33888   3.36431   3.38387
 Alpha virt. eigenvalues --    3.64326   3.68710   3.71591   3.73790   3.74677
 Alpha virt. eigenvalues --    3.78719   3.81200   3.85879   3.90870   3.93249
 Alpha virt. eigenvalues --    3.99246   4.02503   4.03324   4.09654
          Condensed to atoms (all electrons):
               1          2          3          4          5          6
     1  C    5.048329   0.331522  -0.065137   0.005451  -0.000153   0.000001
     2  C    0.331522   4.992986   0.345453  -0.059441   0.005150  -0.000144
     3  C   -0.065137   0.345453   4.990157   0.349456  -0.058763   0.005159
     4  C    0.005451  -0.059441   0.349456   4.990711   0.355333  -0.063430
     5  C   -0.000153   0.005150  -0.058763   0.355333   4.959887   0.347306
     6  C    0.000001  -0.000144   0.005159  -0.063430   0.347306   4.919172
     7  H    0.403319  -0.034055   0.004476  -0.000123   0.000001  -0.000000
     8  H    0.400897  -0.045233  -0.006220  -0.000038  -0.000001  -0.000000
     9  H    0.400883  -0.045226  -0.006223  -0.000038  -0.000001  -0.000000
    10  H   -0.042329   0.408192  -0.045177  -0.004300  -0.000061   0.000000
    11  H   -0.042330   0.408195  -0.045178  -0.004299  -0.000061   0.000000
    12  H   -0.003482  -0.040771   0.410332  -0.042672  -0.004267  -0.000043
    13  H   -0.003483  -0.040770   0.410332  -0.042672  -0.004267  -0.000043
    14  H   -0.000049  -0.004233  -0.040578   0.408654  -0.041940  -0.003925
    15  H   -0.000049  -0.004233  -0.040578   0.408654  -0.041940  -0.003925
    16  H   -0.000001  -0.000054  -0.004084  -0.042743   0.411500  -0.041066
    17  H   -0.000001  -0.000054  -0.004084  -0.042743   0.411500  -0.041066
    18  H   -0.000000  -0.000001  -0.000060  -0.005049  -0.040404   0.404756
    19  H   -0.000000   0.000002  -0.000139   0.005192  -0.039320   0.403705
    20  H   -0.000000  -0.000001  -0.000060  -0.005049  -0.040404   0.404756
               7          8          9         10         11         12
     1  C    0.403319   0.400897   0.400883  -0.042329  -0.042330  -0.003482
     2  C   -0.034055  -0.045233  -0.045226   0.408192   0.408195  -0.040771
     3  C    0.004476  -0.006220  -0.006223  -0.045177  -0.045178   0.410332
     4  C   -0.000123  -0.000038  -0.000038  -0.004300  -0.004299  -0.042672
     5  C    0.000001  -0.000001  -0.000001  -0.000061  -0.000061  -0.004267
     6  C   -0.000000  -0.000000  -0.000000   0.000000   0.000000  -0.000043
     7  H    0.308520  -0.019384  -0.019389  -0.002322  -0.002322  -0.000037
     8  H   -0.019384   0.632471  -0.034150   0.005255  -0.003799   0.002669
     9  H   -0.019389  -0.034150   0.632505  -0.003797   0.005255   0.000154
    10  H   -0.002322   0.005255  -0.003797   0.633427  -0.035986   0.004895
    11  H   -0.002322  -0.003799   0.005255  -0.035986   0.633426  -0.003231
    12  H   -0.000037   0.002669   0.000154   0.004895  -0.003231   0.600510
    13  H   -0.000037   0.000153   0.002669  -0.003231   0.004895  -0.031108
    14  H    0.000001  -0.000002   0.000016   0.001960   0.000302   0.004659
    15  H    0.000001   0.000016  -0.000002   0.000302   0.001960  -0.002984
    16  H    0.000000  -0.000002   0.000001  -0.000005   0.000019   0.001967
    17  H    0.000000   0.000001  -0.000002   0.000019  -0.000005   0.000257
    18  H   -0.000000  -0.000000   0.000000  -0.000002   0.000001  -0.000003
    19  H    0.000000   0.000000   0.000000   0.000000   0.000000   0.000001
    20  H   -0.000000   0.000000  -0.000000   0.000001  -0.000002   0.000015
              13         14         15         16         17         18
     1  C   -0.003483  -0.000049  -0.000049  -0.000001  -0.000001  -0.000000
     2  C   -0.040770  -0.004233  -0.004233  -0.000054  -0.000054  -0.000001
     3  C    0.410332  -0.040578  -0.040578  -0.004084  -0.004084  -0.000060
     4  C   -0.042672   0.408654   0.408654  -0.042743  -0.042743  -0.005049
     5  C   -0.004267  -0.041940  -0.041940   0.411500   0.411500  -0.040404
     6  C   -0.000043  -0.003925  -0.003925  -0.041066  -0.041066   0.404756
     7  H   -0.000037   0.000001   0.000001   0.000000   0.000000  -0.000000
     8  H    0.000153  -0.000002   0.000016  -0.000002   0.000001  -0.000000
     9  H    0.002669   0.000016  -0.000002   0.000001  -0.000002   0.000000
    10  H   -0.003231   0.001960   0.000302  -0.000005   0.000019  -0.000002
    11  H    0.004895   0.000302   0.001960   0.000019  -0.000005   0.000001
    12  H   -0.031108   0.004659  -0.002984   0.001967   0.000257  -0.000003
    13  H    0.600511  -0.002984   0.004659   0.000257   0.001967   0.000015
    14  H   -0.002984   0.602776  -0.031895   0.004729  -0.003145   0.002430
    15  H    0.004659  -0.031895   0.602776  -0.003145   0.004729   0.000166
    16  H    0.000257   0.004729  -0.003145   0.598268  -0.031430   0.004705
    17  H    0.001967  -0.003145   0.004729  -0.031430   0.598269  -0.003367
    18  H    0.000015   0.002430   0.000166   0.004705  -0.003367   0.589485
    19  H    0.000001  -0.000042  -0.000042  -0.002894  -0.002894  -0.029240
    20  H   -0.000003   0.000166   0.002430  -0.003367   0.004705  -0.030924
              19         20
     1  C   -0.000000  -0.000000
     2  C    0.000002  -0.000001
     3  C   -0.000139  -0.000060
     4  C    0.005192  -0.005049
     5  C   -0.039320  -0.040404
     6  C    0.403705   0.404756
     7  H    0.000000  -0.000000
     8  H    0.000000   0.000000
     9  H    0.000000  -0.000000
    10  H    0.000000   0.000001
    11  H    0.000000  -0.000002
    12  H    0.000001   0.000015
    13  H    0.000001  -0.000003
    14  H   -0.000042   0.000166
    15  H   -0.000042   0.002430
    16  H   -0.002894  -0.003367
    17  H   -0.002894   0.004705
    18  H   -0.029240  -0.030924
    19  H    0.588542  -0.029240
    20  H   -0.029240   0.589485
 Mulliken charges:
               1
     1  C   -0.433387
     2  C   -0.217283
     3  C   -0.199084
     4  C   -0.210855
     5  C   -0.219092
     6  C   -0.331213
     7  H    0.361353
     8  H    0.067367
     9  H    0.067347
    10  H    0.083161
    11  H    0.083161
    12  H    0.103141
    13  H    0.103140
    14  H    0.103101
    15  H    0.103101
    16  H    0.107345
    17  H    0.107345
    18  H    0.107491
    19  H    0.106367
    20  H    0.107491
 Sum of Mulliken charges =  -0.00000
 Mulliken charges with hydrogens summed into heavy atoms:
               1
     1  C    0.062680
     2  C   -0.050961
     3  C    0.007198
     4  C   -0.004652
     5  C   -0.004401
     6  C   -0.009864
 Electronic spatial extent (au):  <R**2>=           4437.0963
 Charge=             -0.0000 electrons
 Dipole moment (field-independent basis, Debye):
    X=             -1.4132    Y=             -0.3064    Z=              0.5266  Tot=              1.5390
 Quadrupole moment (field-independent basis, Debye-Ang):
   XX=            -26.8995   YY=            -42.4054   ZZ=            -45.0387
   XY=              0.7157   XZ=             -0.5449   YZ=              1.9908
 Traceless Quadrupole moment (field-independent basis, Debye-Ang):
   XX=             11.2151   YY=             -4.2909   ZZ=             -6.9242
   XY=              0.7157   XZ=             -0.5449   YZ=              1.9908
 Octapole moment (field-independent basis, Debye-Ang**2):
  XXX=            293.9782  YYY=           -141.5691  ZZZ=            319.2068  XYY=            143.6540
  XXY=            -51.3234  XXZ=            101.3836  XZZ=            148.9632  YZZ=            -57.0983
  YYZ=            105.2711  XYZ=             -4.1844
 Hexadecapole moment (field-independent basis, Debye-Ang**3):
 XXXX=          -2640.3670 YYYY=           -533.8096 ZZZZ=          -2031.5148 XXXY=            362.4046
 XXXZ=           -765.6353 YYYX=            330.8303 YYYZ=            464.4173 ZZZX=           -803.8414
 ZZZY=            509.8989 XXYY=           -725.7825 XXZZ=           -986.1556 YYZZ=           -439.6154
 XXYZ=            171.9716 YYXZ=           -265.5516 ZZXY=            128.9034
 N-N= 2.452426648456D+02 E-N=-1.039527462597D+03  KE= 2.357051908965D+02
 No NMR shielding tensors so no spin-rotation constants.
 Leave Link  601 at Mon Mar 23 14:19:04 2020, MaxMem=   134217728 cpu:               0.9 elap:               0.1
 (Enter /home/soft/g16/l607.exe)
 ******************************Gaussian NBO Version 3.1******************************
             N A T U R A L   A T O M I C   O R B I T A L   A N D
          N A T U R A L   B O N D   O R B I T A L   A N A L Y S I S
 ******************************Gaussian NBO Version 3.1******************************
       /RESON  / : Allow strongly delocalized NBO set

 Analyzing the SCF density

 Job title: Atom number=20                                                  

 Storage needed:     72522 in NPA ( 134215528 available)
 GSVD:  LWork=       12772 too small for GESVD, short by        8468 words or        8468 for optimal perf.


 NATURAL POPULATIONS:  Natural atomic orbital occupancies 
                                                          
   NAO  Atom  No  lang   Type(AO)    Occupancy      Energy
 ----------------------------------------------------------
     1    C    1  S      Cor( 1S)     1.99940     -10.99347
     2    C    1  S      Val( 2S)     1.10686      -0.20898
     3    C    1  S      Ryd( 3S)     0.00053       1.55959
     4    C    1  px     Val( 2p)     1.38306      -0.05741
     5    C    1  px     Ryd( 3p)     0.00321       0.97723
     6    C    1  py     Val( 2p)     1.16322       0.01263
     7    C    1  py     Ryd( 3p)     0.00158       0.87086
     8    C    1  pz     Val( 2p)     1.09061       0.02511
     9    C    1  pz     Ryd( 3p)     0.00213       0.83181
    10    C    1  dxy    Ryd( 3d)     0.00067       2.61155
    11    C    1  dxz    Ryd( 3d)     0.00068       2.55650
    12    C    1  dyz    Ryd( 3d)     0.00103       2.69159
    13    C    1  dx2y2  Ryd( 3d)     0.00124       2.94674
    14    C    1  dz2    Ryd( 3d)     0.00112       2.77120

    15    C    2  S      Cor( 1S)     1.99934     -11.03729
    16    C    2  S      Val( 2S)     1.02540      -0.19028
    17    C    2  S      Ryd( 3S)     0.00078       1.65217
    18    C    2  px     Val( 2p)     1.05578       0.00116
    19    C    2  px     Ryd( 3p)     0.00114       0.84404
    20    C    2  py     Val( 2p)     1.18531      -0.01289
    21    C    2  py     Ryd( 3p)     0.00261       1.02975
    22    C    2  pz     Val( 2p)     1.14010      -0.01204
    23    C    2  pz     Ryd( 3p)     0.00219       0.97336
    24    C    2  dxy    Ryd( 3d)     0.00072       2.55516
    25    C    2  dxz    Ryd( 3d)     0.00076       2.49929
    26    C    2  dyz    Ryd( 3d)     0.00115       2.68283
    27    C    2  dx2y2  Ryd( 3d)     0.00164       2.74376
    28    C    2  dz2    Ryd( 3d)     0.00146       2.71234

    29    C    3  S      Cor( 1S)     1.99931     -11.03782
    30    C    3  S      Val( 2S)     1.02338      -0.19249
    31    C    3  S      Ryd( 3S)     0.00120       1.66448
    32    C    3  px     Val( 2p)     1.07042      -0.00733
    33    C    3  px     Ryd( 3p)     0.00285       0.97718
    34    C    3  py     Val( 2p)     1.18812      -0.01883
    35    C    3  py     Ryd( 3p)     0.00329       1.06212
    36    C    3  pz     Val( 2p)     1.12043      -0.00928
    37    C    3  pz     Ryd( 3p)     0.00250       0.97246
    38    C    3  dxy    Ryd( 3d)     0.00077       2.55619
    39    C    3  dxz    Ryd( 3d)     0.00080       2.50398
    40    C    3  dyz    Ryd( 3d)     0.00117       2.68215
    41    C    3  dx2y2  Ryd( 3d)     0.00158       2.74521
    42    C    3  dz2    Ryd( 3d)     0.00139       2.71158

    43    C    4  S      Cor( 1S)     1.99931     -11.04329
    44    C    4  S      Val( 2S)     1.02340      -0.19796
    45    C    4  S      Ryd( 3S)     0.00107       1.66035
    46    C    4  px     Val( 2p)     1.05884      -0.00938
    47    C    4  px     Ryd( 3p)     0.00269       0.97412
    48    C    4  py     Val( 2p)     1.19172      -0.02535
    49    C    4  py     Ryd( 3p)     0.00320       1.05827
    50    C    4  pz     Val( 2p)     1.13353      -0.01900
    51    C    4  pz     Ryd( 3p)     0.00255       0.96698
    52    C    4  dxy    Ryd( 3d)     0.00072       2.55103
    53    C    4  dxz    Ryd( 3d)     0.00075       2.49858
    54    C    4  dyz    Ryd( 3d)     0.00117       2.67673
    55    C    4  dx2y2  Ryd( 3d)     0.00164       2.73963
    56    C    4  dz2    Ryd( 3d)     0.00144       2.70593

    57    C    5  S      Cor( 1S)     1.99933     -11.05128
    58    C    5  S      Val( 2S)     1.02720      -0.20486
    59    C    5  S      Ryd( 3S)     0.00079       1.64165
    60    C    5  px     Val( 2p)     1.06381      -0.01214
    61    C    5  px     Ryd( 3p)     0.00152       0.83608
    62    C    5  py     Val( 2p)     1.18956      -0.02686
    63    C    5  py     Ryd( 3p)     0.00285       1.01762
    64    C    5  pz     Val( 2p)     1.12304      -0.02014
    65    C    5  pz     Ryd( 3p)     0.00219       0.96298
    66    C    5  dxy    Ryd( 3d)     0.00074       2.54153
    67    C    5  dxz    Ryd( 3d)     0.00078       2.48495
    68    C    5  dyz    Ryd( 3d)     0.00118       2.66824
    69    C    5  dx2y2  Ryd( 3d)     0.00160       2.73096
    70    C    5  dz2    Ryd( 3d)     0.00139       2.69844

    71    C    6  S      Cor( 1S)     1.99942     -11.05016
    72    C    6  S      Val( 2S)     1.08577      -0.23171
    73    C    6  S      Ryd( 3S)     0.00039       1.52451
    74    C    6  px     Val( 2p)     1.21141      -0.03787
    75    C    6  px     Ryd( 3p)     0.00263       0.93976
    76    C    6  py     Val( 2p)     1.19312      -0.03493
    77    C    6  py     Ryd( 3p)     0.00122       0.83999
    78    C    6  pz     Val( 2p)     1.13010      -0.02617
    79    C    6  pz     Ryd( 3p)     0.00101       0.79368
    80    C    6  dxy    Ryd( 3d)     0.00056       2.56628
    81    C    6  dxz    Ryd( 3d)     0.00058       2.51018
    82    C    6  dyz    Ryd( 3d)     0.00109       2.64865
    83    C    6  dx2y2  Ryd( 3d)     0.00153       2.89794
    84    C    6  dz2    Ryd( 3d)     0.00131       2.72629

    85    H    7  S      Val( 1S)     0.56654       0.48451
    86    H    7  S      Ryd( 2S)     0.00033       0.94073
    87    H    7  px     Ryd( 2p)     0.00291       3.72694
    88    H    7  py     Ryd( 2p)     0.00002       2.82215
    89    H    7  pz     Ryd( 2p)     0.00005       2.80275

    90    H    8  S      Val( 1S)     0.81337       0.20795
    91    H    8  S      Ryd( 2S)     0.00116       0.87278
    92    H    8  px     Ryd( 2p)     0.00012       2.80356
    93    H    8  py     Ryd( 2p)     0.00065       3.35657
    94    H    8  pz     Ryd( 2p)     0.00005       2.66842

    95    H    9  S      Val( 1S)     0.81339       0.20793
    96    H    9  S      Ryd( 2S)     0.00116       0.87279
    97    H    9  px     Ryd( 2p)     0.00012       2.80220
    98    H    9  py     Ryd( 2p)     0.00019       2.84557
    99    H    9  pz     Ryd( 2p)     0.00051       3.18074

   100    H   10  S      Val( 1S)     0.80242       0.20691
   101    H   10  S      Ryd( 2S)     0.00177       0.84280
   102    H   10  px     Ryd( 2p)     0.00012       2.76962
   103    H   10  py     Ryd( 2p)     0.00069       3.33531
   104    H   10  pz     Ryd( 2p)     0.00004       2.74119

   105    H   11  S      Val( 1S)     0.80242       0.20691
   106    H   11  S      Ryd( 2S)     0.00177       0.84280
   107    H   11  px     Ryd( 2p)     0.00012       2.76807
   108    H   11  py     Ryd( 2p)     0.00022       2.88651
   109    H   11  pz     Ryd( 2p)     0.00051       3.19153

   110    H   12  S      Val( 1S)     0.79060       0.21514
   111    H   12  S      Ryd( 2S)     0.00172       0.85330
   112    H   12  px     Ryd( 2p)     0.00011       2.82352
   113    H   12  py     Ryd( 2p)     0.00069       3.34497
   114    H   12  pz     Ryd( 2p)     0.00004       2.73831

   115    H   13  S      Val( 1S)     0.79060       0.21514
   116    H   13  S      Ryd( 2S)     0.00172       0.85330
   117    H   13  px     Ryd( 2p)     0.00011       2.82211
   118    H   13  py     Ryd( 2p)     0.00020       2.88966
   119    H   13  pz     Ryd( 2p)     0.00053       3.19503

   120    H   14  S      Val( 1S)     0.79141       0.20919
   121    H   14  S      Ryd( 2S)     0.00175       0.84857
   122    H   14  px     Ryd( 2p)     0.00012       2.81796
   123    H   14  py     Ryd( 2p)     0.00068       3.33971
   124    H   14  pz     Ryd( 2p)     0.00003       2.73262

   125    H   15  S      Val( 1S)     0.79141       0.20919
   126    H   15  S      Ryd( 2S)     0.00175       0.84857
   127    H   15  px     Ryd( 2p)     0.00012       2.81655
   128    H   15  py     Ryd( 2p)     0.00021       2.88410
   129    H   15  pz     Ryd( 2p)     0.00051       3.18964

   130    H   16  S      Val( 1S)     0.78895       0.21112
   131    H   16  S      Ryd( 2S)     0.00171       0.83550
   132    H   16  px     Ryd( 2p)     0.00012       2.76325
   133    H   16  py     Ryd( 2p)     0.00069       3.32813
   134    H   16  pz     Ryd( 2p)     0.00004       2.73370

   135    H   17  S      Val( 1S)     0.78895       0.21112
   136    H   17  S      Ryd( 2S)     0.00171       0.83550
   137    H   17  px     Ryd( 2p)     0.00012       2.76169
   138    H   17  py     Ryd( 2p)     0.00020       2.87942
   139    H   17  pz     Ryd( 2p)     0.00052       3.18396

   140    H   18  S      Val( 1S)     0.79000       0.19927
   141    H   18  S      Ryd( 2S)     0.00120       0.83711
   142    H   18  px     Ryd( 2p)     0.00012       2.77130
   143    H   18  py     Ryd( 2p)     0.00067       3.32600
   144    H   18  pz     Ryd( 2p)     0.00004       2.63828

   145    H   19  S      Val( 1S)     0.78705       0.20550
   146    H   19  S      Ryd( 2S)     0.00101       0.81999
   147    H   19  px     Ryd( 2p)     0.00074       3.40773
   148    H   19  py     Ryd( 2p)     0.00004       2.67770
   149    H   19  pz     Ryd( 2p)     0.00005       2.65284

   150    H   20  S      Val( 1S)     0.79000       0.19927
   151    H   20  S      Ryd( 2S)     0.00120       0.83711
   152    H   20  px     Ryd( 2p)     0.00011       2.76990
   153    H   20  py     Ryd( 2p)     0.00020       2.81514
   154    H   20  pz     Ryd( 2p)     0.00051       3.15053


 Summary of Natural Population Analysis:                  
                                                          
                                       Natural Population 
                Natural  -----------------------------------------------
    Atom  No    Charge         Core      Valence    Rydberg      Total
 -----------------------------------------------------------------------
      C    1   -0.75532      1.99940     4.74374    0.01218     6.75532
      C    2   -0.41838      1.99934     4.40659    0.01245     6.41838
      C    3   -0.41724      1.99931     4.40236    0.01556     6.41724
      C    4   -0.42204      1.99931     4.40749    0.01524     6.42204
      C    5   -0.41599      1.99933     4.40361    0.01306     6.41599
      C    6   -0.63014      1.99942     4.62040    0.01032     6.63014
      H    7    0.43016      0.00000     0.56654    0.00331     0.56984
      H    8    0.18465      0.00000     0.81337    0.00198     0.81535
      H    9    0.18464      0.00000     0.81339    0.00198     0.81536
      H   10    0.19495      0.00000     0.80242    0.00262     0.80505
      H   11    0.19496      0.00000     0.80242    0.00262     0.80504
      H   12    0.20684      0.00000     0.79060    0.00256     0.79316
      H   13    0.20684      0.00000     0.79060    0.00256     0.79316
      H   14    0.20601      0.00000     0.79141    0.00258     0.79399
      H   15    0.20601      0.00000     0.79141    0.00258     0.79399
      H   16    0.20850      0.00000     0.78895    0.00255     0.79150
      H   17    0.20850      0.00000     0.78895    0.00255     0.79150
      H   18    0.20798      0.00000     0.79000    0.00202     0.79202
      H   19    0.21111      0.00000     0.78705    0.00184     0.78889
      H   20    0.20798      0.00000     0.79000    0.00202     0.79202
 =======================================================================
   * Total *   -0.00000     11.99611    37.89131    0.11259    50.00000

                                 Natural Population      
 --------------------------------------------------------
   Core                      11.99611 ( 99.9675% of  12)
   Valence                   37.89131 ( 99.7140% of  38)
   Natural Minimal Basis     49.88741 ( 99.7748% of  50)
   Natural Rydberg Basis      0.11259 (  0.2252% of  50)
 --------------------------------------------------------

    Atom  No          Natural Electron Configuration
 ----------------------------------------------------------------------------
      C    1      [core]2S( 1.11)2p( 3.64)3p( 0.01)
      C    2      [core]2S( 1.03)2p( 3.38)3p( 0.01)3d( 0.01)
      C    3      [core]2S( 1.02)2p( 3.38)3p( 0.01)3d( 0.01)
      C    4      [core]2S( 1.02)2p( 3.38)3p( 0.01)3d( 0.01)
      C    5      [core]2S( 1.03)2p( 3.38)3p( 0.01)3d( 0.01)
      C    6      [core]2S( 1.09)2p( 3.53)3d( 0.01)
      H    7            1S( 0.57)
      H    8            1S( 0.81)
      H    9            1S( 0.81)
      H   10            1S( 0.80)
      H   11            1S( 0.80)
      H   12            1S( 0.79)
      H   13            1S( 0.79)
      H   14            1S( 0.79)
      H   15            1S( 0.79)
      H   16            1S( 0.79)
      H   17            1S( 0.79)
      H   18            1S( 0.79)
      H   19            1S( 0.79)
      H   20            1S( 0.79)


 NBO analysis skipped by request.
 Leave Link  607 at Mon Mar 23 14:19:04 2020, MaxMem=   134217728 cpu:               0.9 elap:               0.1
 (Enter /home/soft/g16/l9999.exe)

 Test job not archived.
 1\1\GINC-NODE09\SP\RHF\6-31G(d,p)\C6H14\ROOT\23-Mar-2020\0\\#p hf/6-31
 g** 5d pop=npa charge nosymm\\Atom number=20\\0,1\C,0,-5.70723204,0.03
 76959,-0.5418104\C,0,-5.19388883,0.76318274,-1.79948587\C,0,-3.6538916
 ,0.76570489,-1.79801945\C,0,-3.14054837,1.49117995,-3.05570171\C,0,-1.
 60055114,1.49370428,-3.05423405\C,0,-1.08720791,2.21918152,-4.31191505
 \H,0,-6.77723027,0.03601484,-0.54278818\H,0,-5.3489823,-0.97054777,-0.
 5404547\H,0,-5.35215751,0.54354861,0.33165117\H,0,-5.55220656,1.771402
 19,-1.80088226\H,0,-5.54889583,0.25728268,-2.67294747\H,0,-3.29557473,
 -0.24251485,-1.7966131\H,0,-3.29888438,1.27161321,-0.92456273\H,0,-3.4
 9886752,2.49939888,-3.05710842\H,0,-3.49555393,0.9852707,-3.92915857\H
 ,0,-1.24223284,0.48548505,-3.05282856\H,0,-1.24554535,1.9996121,-2.180
 77645\H,0,-1.44552563,3.22740096,-4.31331914\H,0,-0.01720983,2.2209339
 1,-4.31089618\H,0,-1.44221491,1.7132748,-5.18537279\\Version=ES64L-G16
 RevA.03\HF=-235.7562363\RMSD=4.067e-09\Dipole=-0.556008,-0.1205626,0.2
 071842\Quadrupole=8.3381173,-3.1901425,-5.1479747,0.5321012,-0.4051382
 ,1.4801208\PG=C01 [X(C6H14)]\\@


 ACCORDING TO HEN3RY, LIFE IS MUCH LIKE A SEWER........
 YOU GET OUT OF IT JUST WHAT YOU PUT INTO IT...........
                         TOM LEHRER - (THE 3 IS SILENT)
 Job cpu time:       0 days  0 hours  0 minutes 23.1 seconds.
 Elapsed time:       0 days  0 hours  0 minutes  3.1 seconds.
 File lengths (MBytes):  RWF=     72 Int=      0 D2E=      0 Chk=      8 Scr=      8
 Normal termination of Gaussian 16 at Mon Mar 23 14:19:04 2020.
