 Entering Gaussian System, Link 0=g16
 Input=c8h18_3.gjf
 Output=c8h18_3.log
 Initial command:
 /home/soft/g16/l1.exe "/tmp/liwei01/gaussian/liaokang/Gau-3087.inp" -scrdir="/tmp/liwei01/gaussian/liaokang/"
 Entering Link 1 = /home/soft/g16/l1.exe PID=      3089.
  
 Copyright (c) 1988,1990,1992,1993,1995,1998,2003,2009,2016,
            Gaussian, Inc.  All Rights Reserved.
  
 This is part of the Gaussian(R) 16 program.  It is based on
 the Gaussian(R) 09 system (copyright 2009, Gaussian, Inc.),
 the Gaussian(R) 03 system (copyright 2003, Gaussian, Inc.),
 the Gaussian(R) 98 system (copyright 1998, Gaussian, Inc.),
 the Gaussian(R) 94 system (copyright 1995, Gaussian, Inc.),
 the Gaussian 92(TM) system (copyright 1992, Gaussian, Inc.),
 the Gaussian 90(TM) system (copyright 1990, Gaussian, Inc.),
 the Gaussian 88(TM) system (copyright 1988, Gaussian, Inc.),
 the Gaussian 86(TM) system (copyright 1986, Carnegie Mellon
 University), and the Gaussian 82(TM) system (copyright 1983,
 Carnegie Mellon University). Gaussian is a federally registered
 trademark of Gaussian, Inc.
  
 This software contains proprietary and confidential information,
 including trade secrets, belonging to Gaussian, Inc.
  
 This software is provided under written license and may be
 used, copied, transmitted, or stored only in accord with that
 written license.
  
 The following legend is applicable only to US Government
 contracts under FAR:
  
                    RESTRICTED RIGHTS LEGEND
  
 Use, reproduction and disclosure by the US Government is
 subject to restrictions as set forth in subparagraphs (a)
 and (c) of the Commercial Computer Software - Restricted
 Rights clause in FAR 52.227-19.
  
 Gaussian, Inc.
 340 Quinnipiac St., Bldg. 40, Wallingford CT 06492
  
  
 ---------------------------------------------------------------
 Warning -- This program may not be used in any manner that
 competes with the business of Gaussian, Inc. or will provide
 assistance to any competitor of Gaussian, Inc.  The licensee
 of this program is prohibited from giving any competitor of
 Gaussian, Inc. access to this program.  By using this program,
 the user acknowledges that Gaussian, Inc. is engaged in the
 business of creating and licensing software in the field of
 computational chemistry and represents and warrants to the
 licensee that it is not a competitor of Gaussian, Inc. and that
 it will not use this program in any manner prohibited above.
 ---------------------------------------------------------------
  

 Cite this work as:
 Gaussian 16, Revision A.03,
 M. J. Frisch, G. W. Trucks, H. B. Schlegel, G. E. Scuseria, 
 M. A. Robb, J. R. Cheeseman, G. Scalmani, V. Barone, 
 G. A. Petersson, H. Nakatsuji, X. Li, M. Caricato, A. V. Marenich, 
 J. Bloino, B. G. Janesko, R. Gomperts, B. Mennucci, H. P. Hratchian, 
 J. V. Ortiz, A. F. Izmaylov, J. L. Sonnenberg, D. Williams-Young, 
 F. Ding, F. Lipparini, F. Egidi, J. Goings, B. Peng, A. Petrone, 
 T. Henderson, D. Ranasinghe, V. G. Zakrzewski, J. Gao, N. Rega, 
 G. Zheng, W. Liang, M. Hada, M. Ehara, K. Toyota, R. Fukuda, 
 J. Hasegawa, M. Ishida, T. Nakajima, Y. Honda, O. Kitao, H. Nakai, 
 T. Vreven, K. Throssell, J. A. Montgomery, Jr., J. E. Peralta, 
 F. Ogliaro, M. J. Bearpark, J. J. Heyd, E. N. Brothers, K. N. Kudin, 
 V. N. Staroverov, T. A. Keith, R. Kobayashi, J. Normand, 
 K. Raghavachari, A. P. Rendell, J. C. Burant, S. S. Iyengar, 
 J. Tomasi, M. Cossi, J. M. Millam, M. Klene, C. Adamo, R. Cammi, 
 J. W. Ochterski, R. L. Martin, K. Morokuma, O. Farkas, 
 J. B. Foresman, and D. J. Fox, Gaussian, Inc., Wallingford CT, 2016.
 
 ******************************************
 Gaussian 16:  ES64L-G16RevA.03 25-Dec-2016
                23-Mar-2020 
 ******************************************
 %chk=c8h18_3.chk
 %nproc=8
 Will use up to    8 processors via shared memory.
 %mem=1gb
 --------------------------------------
 #p hf/6-31g** 5d pop=npa charge nosymm
 --------------------------------------
 1/18=10,28=-2,38=1,125=101,172=1/1;
 2/12=2,15=1,17=6,18=5,40=1/2;
 3/5=1,6=6,7=101,8=1,11=9,25=1,30=1/1,2,3;
 4//1;
 5/5=2,38=5/2;
 6/7=2,8=2,9=2,10=2,28=1,40=-1/1,7;
 99/5=1,9=1/99;
 Leave Link    1 at Mon Mar 23 14:19:01 2020, MaxMem=   134217728 cpu:               0.4 elap:               0.1
 (Enter /home/soft/g16/l101.exe)
 --------------
 Atom number=14
 --------------
 Symbolic Z-matrix:
 Charge =  0 Multiplicity = 1
 c                    -5.70723   0.0377   -0.54181 
 c                    -5.19389   0.76318  -1.79949 
 c                    -3.65389   0.7657   -1.79802 
 c                    -3.14055   1.49118  -3.0557 
 h                    -6.77723   0.03601  -0.54279 
 h                    -5.34898  -0.97055  -0.54045 
 h                    -5.35216   0.54355   0.33165 
 h                    -5.55221   1.7714   -1.80088 
 h                    -5.5489    0.25728  -2.67295 
 h                    -3.29557  -0.24251  -1.79661 
 h                    -3.29888   1.27161  -0.92456 
 h                    -3.49887   2.4994   -3.05711 
 h                    -3.49555   0.98527  -3.92916 
 h                    -2.07055   1.49293  -3.05468 
 
 ITRead=  0  0  0  0  0  0  0  0  0  0  0  0  0  0
 MicOpt= -1 -1 -1 -1 -1 -1 -1 -1 -1 -1 -1 -1 -1 -1
 NAtoms=     14 NQM=       14 NQMF=       0 NMMI=      0 NMMIF=      0
                NMic=       0 NMicF=      0.
                    Isotopes and Nuclear Properties:
 (Nuclear quadrupole moments (NQMom) in fm**2, nuclear magnetic moments (NMagM)
  in nuclear magnetons)

  Atom         1           2           3           4           5           6           7           8           9          10
 IAtWgt=          12          12          12          12           1           1           1           1           1           1
 AtmWgt=  12.0000000  12.0000000  12.0000000  12.0000000   1.0078250   1.0078250   1.0078250   1.0078250   1.0078250   1.0078250
 NucSpn=           0           0           0           0           1           1           1           1           1           1
 AtZEff=  -0.0000000  -0.0000000  -0.0000000  -0.0000000  -0.0000000  -0.0000000  -0.0000000  -0.0000000  -0.0000000  -0.0000000
 NQMom=    0.0000000   0.0000000   0.0000000   0.0000000   0.0000000   0.0000000   0.0000000   0.0000000   0.0000000   0.0000000
 NMagM=    0.0000000   0.0000000   0.0000000   0.0000000   2.7928460   2.7928460   2.7928460   2.7928460   2.7928460   2.7928460
 AtZNuc=   6.0000000   6.0000000   6.0000000   6.0000000   1.0000000   1.0000000   1.0000000   1.0000000   1.0000000   1.0000000

  Atom        11          12          13          14
 IAtWgt=           1           1           1           1
 AtmWgt=   1.0078250   1.0078250   1.0078250   1.0078250
 NucSpn=           1           1           1           1
 AtZEff=  -0.0000000  -0.0000000  -0.0000000  -0.0000000
 NQMom=    0.0000000   0.0000000   0.0000000   0.0000000
 NMagM=    2.7928460   2.7928460   2.7928460   2.7928460
 AtZNuc=   1.0000000   1.0000000   1.0000000   1.0000000
 Background charge distribution read from input stream:
 Point Charges:
 XYZ=   -7.7606   -0.6907    0.7142 Q=   -0.6339 A=    0.0000 R=    0.0000 C=    0.0000
 XYZ=   -7.4039   -1.6995    0.7142 Q=    0.2104 A=    0.0000 R=    0.0000 C=    0.0000
 XYZ=   -7.4039   -0.1863    1.5878 Q=    0.2104 A=    0.0000 R=    0.0000 C=    0.0000
 XYZ=   -8.8306   -0.6907    0.7142 Q=    0.2145 A=    0.0000 R=    0.0000 C=    0.0000
 XYZ=   -7.2472    0.0353   -0.5432 Q=   -0.4180 A=    0.0000 R=    0.0000 C=    0.0000
 XYZ=   -7.6055    1.0435   -0.5442 Q=    0.2107 A=    0.0000 R=    0.0000 C=    0.0000
 XYZ=   -7.6023   -0.4703   -1.4169 Q=    0.2108 A=    0.0000 R=    0.0000 C=    0.0000
 XYZ=   -1.6006    1.4937   -3.0542 Q=   -0.4180 A=    0.0000 R=    0.0000 C=    0.0000
 XYZ=   -1.2422    0.4855   -3.0528 Q=    0.2107 A=    0.0000 R=    0.0000 C=    0.0000
 XYZ=   -1.2455    1.9996   -2.1808 Q=    0.2107 A=    0.0000 R=    0.0000 C=    0.0000
 XYZ=   -1.0872    2.2192   -4.3119 Q=   -0.6339 A=    0.0000 R=    0.0000 C=    0.0000
 XYZ=   -1.4455    3.2274   -4.3133 Q=    0.2104 A=    0.0000 R=    0.0000 C=    0.0000
 XYZ=   -0.0172    2.2209   -4.3109 Q=    0.2145 A=    0.0000 R=    0.0000 C=    0.0000
 XYZ=   -1.4422    1.7133   -5.1854 Q=    0.2104 A=    0.0000 R=    0.0000 C=    0.0000
 Pt Chg Charge=              0.0101 electrons
 Pt Chg Dipole moment (Debye):
    X=             -0.2139    Y=              0.0370    Z=             -0.0869  Tot=              0.2338
 Pt Chg Quadrupole moment (Debye-Ang):
   XX=             18.0154   YY=              6.7079   ZZ=              7.8207
   XY=              1.9386   XZ=             -3.2243   YZ=             -0.9317
 Pt Chg Traceless Quadrupole moment (Debye-Ang):
   XX=              7.1674   YY=             -4.1401   ZZ=             -3.0273
   XY=              1.9386   XZ=             -3.2243   YZ=             -0.9317
 Pt Chg Octapole moment (Debye-Ang**2):
  XXX=           -230.7223  YYY=             15.3349  ZZZ=            -41.6428  XYY=            -26.4630
  XXY=             -4.8245  XXZ=             -0.4726  XZZ=            -21.6133  YZZ=              9.0892
  YYZ=            -13.3897  XYZ=             -2.4171
 Pt Chg Hexadecapole moment (Debye-Ang**3):
 XXXX=           2523.0195 YYYY=             85.0729 ZZZZ=            330.2894 XXXY=             53.3606
 XXXZ=             19.6061 YYYX=              4.0681 YYYZ=            -79.2324 ZZZX=              7.2456
 ZZZY=            -94.1125 XXYY=            195.0067 XXZZ=            222.0523 YYZZ=             72.8798
 XXYZ=            -24.4216 YYXZ=              3.9815 ZZXY=             17.9792
 Leave Link  101 at Mon Mar 23 14:19:02 2020, MaxMem=   134217728 cpu:               0.7 elap:               0.1
 (Enter /home/soft/g16/l202.exe)
                          Input orientation:                          
 ---------------------------------------------------------------------
 Center     Atomic      Atomic             Coordinates (Angstroms)
 Number     Number       Type             X           Y           Z
 ---------------------------------------------------------------------
      1          6           0       -5.707232    0.037696   -0.541810
      2          6           0       -5.193889    0.763183   -1.799486
      3          6           0       -3.653892    0.765705   -1.798019
      4          6           0       -3.140548    1.491180   -3.055702
      5          1           0       -6.777230    0.036015   -0.542788
      6          1           0       -5.348982   -0.970548   -0.540455
      7          1           0       -5.352158    0.543549    0.331651
      8          1           0       -5.552207    1.771402   -1.800882
      9          1           0       -5.548896    0.257283   -2.672947
     10          1           0       -3.295575   -0.242515   -1.796613
     11          1           0       -3.298884    1.271613   -0.924563
     12          1           0       -3.498868    2.499399   -3.057108
     13          1           0       -3.495554    0.985271   -3.929159
     14          1           0       -2.070550    1.492934   -3.054682
 ---------------------------------------------------------------------
                    Distance matrix (angstroms):
                    1          2          3          4          5
     1  C    0.000000
     2  C    1.540000   0.000000
     3  C    2.514809   1.540000   0.000000
     4  C    3.875581   2.514809   1.540000   0.000000
     5  H    1.070000   2.148263   3.444314   4.653783   0.000000
     6  H    1.070000   2.148263   2.733016   4.154967   1.747302
     7  H    1.070000   2.148263   2.732939   4.154922   1.747303
     8  H    2.148263   1.070000   2.148263   2.732982   2.468816
     9  H    2.148263   1.070000   2.148263   2.732973   2.468875
    10  H    2.732973   2.148263   1.070000   2.148263   3.711008
    11  H    2.732982   2.148263   1.070000   2.148263   3.710976
    12  H    4.154946   2.732976   2.148263   1.070000   4.810169
    13  H    4.154942   2.732978   2.148263   1.070000   4.810197
    14  H    4.653783   3.444314   2.148263   1.070000   5.530376
                    6          7          8          9         10
     6  H    0.000000
     7  H    1.747303   0.000000
     8  H    3.024610   2.468875   0.000000
     9  H    2.468817   3.024610   1.747303   0.000000
    10  H    2.514846   3.062179   3.024610   2.468849   0.000000
    11  H    3.062307   2.514773   2.468843   3.024610   1.747303
    12  H    4.668726   4.329402   2.514813   3.062235   3.024610
    13  H    4.329404   4.668682   3.062251   2.514805   2.468846
    14  H    4.810218   4.810149   3.710996   3.710989   2.468847
                   11         12         13         14
    11  H    0.000000
    12  H    2.468846   0.000000
    13  H    3.024610   1.747303   0.000000
    14  H    2.468845   1.747303   1.747303   0.000000
 Symmetry turned off by external request.
 Stoichiometry    C4H10
 Framework group  C1[X(C4H10)]
 Deg. of freedom    36
 Full point group                 C1      NOp   1
 Rotational constants (GHZ):          23.0583307           3.7383896           3.4902860
 Leave Link  202 at Mon Mar 23 14:19:02 2020, MaxMem=   134217728 cpu:               0.1 elap:               0.0
 (Enter /home/soft/g16/l301.exe)
 Standard basis: 6-31G(d,p) (5D, 7F)
 Ernie: Thresh=  0.10000D-02 Tol=  0.10000D-05 Strict=F.
   106 basis functions,   182 primitive gaussians,   110 cartesian basis functions
    17 alpha electrons       17 beta electrons
       nuclear repulsion energy       131.8273034602 Hartrees.
 IExCor=    0 DFT=F Ex=HF Corr=None ExCW=0 ScaHFX=  1.000000
 ScaDFX=  1.000000  1.000000  1.000000  1.000000 ScalE2=  1.000000  1.000000
 IRadAn=      5 IRanWt=     -1 IRanGd=            0 ICorTp=0 IEmpDi=  4
 NAtoms=   14 NActive=   14 NUniq=   14 SFac= 1.00D+00 NAtFMM=   60 NAOKFM=F Big=F
 Integral buffers will be    131072 words long.
 Raffenetti 1 integral format.
 Two-electron integral symmetry is turned off.
 Background charge distribution read from rwf.
 PtFMM for NChg=        28 BoxLen=    40.00 Levels= 1 LMax=20 SMax=    16.7 ICnFMM=     1:
 Self energy of the charges =        -0.4367024103 a.u.
 MM   energy of the charges =         0.0000000000 a.u.
 Nuclei-charges interaction =        -1.9140379712 a.u.
 Nuclear repulsion after external point charges =      129.4765630788 Hartrees.
 Leave Link  301 at Mon Mar 23 14:19:02 2020, MaxMem=   134217728 cpu:               0.4 elap:               0.1
 (Enter /home/soft/g16/l302.exe)
 NPDir=0 NMtPBC=     1 NCelOv=     1 NCel=       1 NClECP=     1 NCelD=      1
         NCelK=      1 NCelE2=     1 NClLst=     1 CellRange=     0.0.
 One-electron integrals computed using PRISM.
 NBasis=   106 RedAO= T EigKep=  4.70D-03  NBF=   106
 NBsUse=   106 1.00D-06 EigRej= -1.00D+00 NBFU=   106
 Leave Link  302 at Mon Mar 23 14:19:02 2020, MaxMem=   134217728 cpu:               0.7 elap:               0.1
 (Enter /home/soft/g16/l303.exe)
 DipDrv:  MaxL=1.
 Leave Link  303 at Mon Mar 23 14:19:02 2020, MaxMem=   134217728 cpu:               0.2 elap:               0.0
 (Enter /home/soft/g16/l401.exe)
 ExpMin= 1.61D-01 ExpMax= 3.05D+03 ExpMxC= 4.57D+02 IAcc=3 IRadAn=         5 AccDes= 0.00D+00
 Harris functional with IExCor=  205 and IRadAn=       5 diagonalized for initial guess.
 HarFok:  IExCor=  205 AccDes= 0.00D+00 IRadAn=         5 IDoV= 1 UseB2=F ITyADJ=14
 ICtDFT=  3500011 ScaDFX=  1.000000  1.000000  1.000000  1.000000
 FoFCou: FMM=F IPFlag=           0 FMFlag=      100000 FMFlg1=           0
         NFxFlg=           0 DoJE=T BraDBF=F KetDBF=T FulRan=T
         wScrn=  0.000000 ICntrl=       500 IOpCl=  0 I1Cent=   200000004 NGrid=           0
         NMat0=    1 NMatS0=      1 NMatT0=    0 NMatD0=    1 NMtDS0=    0 NMtDT0=    0
 Symmetry not used in FoFCou.
 Harris En= -158.568236914917    
 JPrj=0 DoOrth=F DoCkMO=F.
 Leave Link  401 at Mon Mar 23 14:19:02 2020, MaxMem=   134217728 cpu:               2.4 elap:               0.3
 (Enter /home/soft/g16/l502.exe)
 Two-electron integral symmetry not used.
 Closed shell SCF:
 Using DIIS extrapolation, IDIIS=  1040.
 NGot=   134217728 LenX=   134191492 LenY=   134178951
 Requested convergence on RMS density matrix=1.00D-08 within 128 cycles.
 Requested convergence on MAX density matrix=1.00D-06.
 Requested convergence on             energy=1.00D-06.
 No special actions if energy rises.
 Fock matrices will be formed incrementally for  20 cycles.
 Integral accuracy reduced to 1.0D-05 until final iterations.

 Cycle   1  Pass 0  IDiag  1:
 FoFJK:  IHMeth= 1 ICntrl=       0 DoSepK=F KAlg= 0 I1Cent=           0 FoldK=F
 IRaf= 980000000 NMat=       1 IRICut=       1 DoRegI=T DoRafI=F ISym2E= 0 IDoP0=0 IntGTp=1.
 FoFCou: FMM=F IPFlag=           0 FMFlag=      100000 FMFlg1=           0
         NFxFlg=           0 DoJE=F BraDBF=F KetDBF=F FulRan=T
         wScrn=  0.000000 ICntrl=         0 IOpCl=  0 I1Cent=           0 NGrid=           0
         NMat0=    1 NMatS0=      1 NMatT0=    0 NMatD0=    1 NMtDS0=    0 NMtDT0=    0
 Symmetry not used in FoFCou.
 E= -157.716968144416    
 DIIS: error= 5.48D-02 at cycle   1 NSaved=   1.
 NSaved= 1 IEnMin= 1 EnMin= -157.716968144416     IErMin= 1 ErrMin= 5.48D-02
 ErrMax= 5.48D-02  0.00D+00 EMaxC= 1.00D-01 BMatC= 3.34D-01 BMatP= 3.34D-01
 IDIUse=3 WtCom= 4.52D-01 WtEn= 5.48D-01
 Coeff-Com:  0.100D+01
 Coeff-En:   0.100D+01
 Coeff:      0.100D+01
 Gap=     0.547 Goal=   None    Shift=    0.000
 GapD=    0.547 DampG=2.000 DampE=0.500 DampFc=1.0000 IDamp=-1.
 RMSDP=6.54D-03 MaxDP=1.34D-01              OVMax= 1.50D-01

 Cycle   2  Pass 0  IDiag  1:
 RMSU=  6.33D-03    CP:  9.37D-01
 E= -157.999361894336     Delta-E=       -0.282393749920 Rises=F Damp=F
 DIIS: error= 2.23D-02 at cycle   2 NSaved=   2.
 NSaved= 2 IEnMin= 2 EnMin= -157.999361894336     IErMin= 2 ErrMin= 2.23D-02
 ErrMax= 2.23D-02  0.00D+00 EMaxC= 1.00D-01 BMatC= 5.80D-02 BMatP= 3.34D-01
 IDIUse=3 WtCom= 7.77D-01 WtEn= 2.23D-01
 Coeff-Com:  0.269D+00 0.731D+00
 Coeff-En:   0.000D+00 0.100D+01
 Coeff:      0.209D+00 0.791D+00
 Gap=     0.649 Goal=   None    Shift=    0.000
 RMSDP=2.19D-03 MaxDP=3.27D-02 DE=-2.82D-01 OVMax= 5.14D-02

 Cycle   3  Pass 0  IDiag  1:
 RMSU=  9.93D-04    CP:  9.56D-01  7.01D-01
 E= -158.054922601056     Delta-E=       -0.055560706720 Rises=F Damp=F
 DIIS: error= 4.52D-03 at cycle   3 NSaved=   3.
 NSaved= 3 IEnMin= 3 EnMin= -158.054922601056     IErMin= 3 ErrMin= 4.52D-03
 ErrMax= 4.52D-03  0.00D+00 EMaxC= 1.00D-01 BMatC= 1.38D-03 BMatP= 5.80D-02
 IDIUse=3 WtCom= 9.55D-01 WtEn= 4.52D-02
 Coeff-Com: -0.267D-01 0.719D-01 0.955D+00
 Coeff-En:   0.000D+00 0.000D+00 0.100D+01
 Coeff:     -0.255D-01 0.687D-01 0.957D+00
 Gap=     0.622 Goal=   None    Shift=    0.000
 RMSDP=3.59D-04 MaxDP=6.68D-03 DE=-5.56D-02 OVMax= 9.34D-03

 Cycle   4  Pass 0  IDiag  1:
 RMSU=  1.83D-04    CP:  9.53D-01  7.48D-01  1.05D+00
 E= -158.056527826290     Delta-E=       -0.001605225234 Rises=F Damp=F
 DIIS: error= 7.83D-04 at cycle   4 NSaved=   4.
 NSaved= 4 IEnMin= 4 EnMin= -158.056527826290     IErMin= 4 ErrMin= 7.83D-04
 ErrMax= 7.83D-04  0.00D+00 EMaxC= 1.00D-01 BMatC= 4.35D-05 BMatP= 1.38D-03
 IDIUse=3 WtCom= 9.92D-01 WtEn= 7.83D-03
 Coeff-Com: -0.730D-02-0.119D-01 0.854D-01 0.934D+00
 Coeff-En:   0.000D+00 0.000D+00 0.000D+00 0.100D+01
 Coeff:     -0.724D-02-0.118D-01 0.847D-01 0.934D+00
 Gap=     0.623 Goal=   None    Shift=    0.000
 RMSDP=8.97D-05 MaxDP=1.04D-03 DE=-1.61D-03 OVMax= 2.26D-03

 Cycle   5  Pass 0  IDiag  1:
 RMSU=  6.51D-05    CP:  9.54D-01  7.48D-01  1.11D+00  1.09D+00
 E= -158.056589210187     Delta-E=       -0.000061383897 Rises=F Damp=F
 DIIS: error= 2.63D-04 at cycle   5 NSaved=   5.
 NSaved= 5 IEnMin= 5 EnMin= -158.056589210187     IErMin= 5 ErrMin= 2.63D-04
 ErrMax= 2.63D-04  0.00D+00 EMaxC= 1.00D-01 BMatC= 4.39D-06 BMatP= 4.35D-05
 IDIUse=3 WtCom= 9.97D-01 WtEn= 2.63D-03
 Coeff-Com:  0.240D-02-0.914D-02-0.954D-01 0.770D-01 0.103D+01
 Coeff-En:   0.000D+00 0.000D+00 0.000D+00 0.000D+00 0.100D+01
 Coeff:      0.239D-02-0.912D-02-0.952D-01 0.768D-01 0.103D+01
 Gap=     0.623 Goal=   None    Shift=    0.000
 RMSDP=3.67D-05 MaxDP=4.87D-04 DE=-6.14D-05 OVMax= 8.61D-04

 Cycle   6  Pass 0  IDiag  1:
 RMSU=  1.08D-05    CP:  9.54D-01  7.49D-01  1.13D+00  1.24D+00  1.18D+00
 E= -158.056596274048     Delta-E=       -0.000007063860 Rises=F Damp=F
 DIIS: error= 2.50D-05 at cycle   6 NSaved=   6.
 NSaved= 6 IEnMin= 6 EnMin= -158.056596274048     IErMin= 6 ErrMin= 2.50D-05
 ErrMax= 2.50D-05  0.00D+00 EMaxC= 1.00D-01 BMatC= 4.21D-08 BMatP= 4.39D-06
 IDIUse=1 WtCom= 1.00D+00 WtEn= 0.00D+00
 Coeff-Com:  0.109D-03 0.314D-03 0.562D-03-0.272D-01-0.451D-01 0.107D+01
 Coeff:      0.109D-03 0.314D-03 0.562D-03-0.272D-01-0.451D-01 0.107D+01
 Gap=     0.623 Goal=   None    Shift=    0.000
 RMSDP=6.28D-06 MaxDP=9.03D-05 DE=-7.06D-06 OVMax= 1.23D-04

 Initial convergence to 1.0D-05 achieved.  Increase integral accuracy.
 Cycle   7  Pass 1  IDiag  1:
 E= -158.056596896551     Delta-E=       -0.000000622503 Rises=F Damp=F
 DIIS: error= 3.97D-06 at cycle   1 NSaved=   1.
 NSaved= 1 IEnMin= 1 EnMin= -158.056596896551     IErMin= 1 ErrMin= 3.97D-06
 ErrMax= 3.97D-06  0.00D+00 EMaxC= 1.00D-01 BMatC= 1.43D-09 BMatP= 1.43D-09
 IDIUse=1 WtCom= 1.00D+00 WtEn= 0.00D+00
 Coeff-Com:  0.100D+01
 Coeff:      0.100D+01
 Gap=     0.623 Goal=   None    Shift=    0.000
 RMSDP=6.28D-06 MaxDP=9.03D-05 DE=-6.23D-07 OVMax= 1.72D-05

 Cycle   8  Pass 1  IDiag  1:
 RMSU=  8.36D-07    CP:  1.00D+00
 E= -158.056596899184     Delta-E=       -0.000000002633 Rises=F Damp=F
 DIIS: error= 1.19D-06 at cycle   2 NSaved=   2.
 NSaved= 2 IEnMin= 2 EnMin= -158.056596899184     IErMin= 2 ErrMin= 1.19D-06
 ErrMax= 1.19D-06  0.00D+00 EMaxC= 1.00D-01 BMatC= 1.30D-10 BMatP= 1.43D-09
 IDIUse=1 WtCom= 1.00D+00 WtEn= 0.00D+00
 Coeff-Com: -0.245D+00 0.124D+01
 Coeff:     -0.245D+00 0.124D+01
 Gap=     0.623 Goal=   None    Shift=    0.000
 RMSDP=3.74D-07 MaxDP=4.63D-06 DE=-2.63D-09 OVMax= 9.00D-06

 Cycle   9  Pass 1  IDiag  1:
 RMSU=  9.63D-08    CP:  1.00D+00  1.43D+00
 E= -158.056596899555     Delta-E=       -0.000000000371 Rises=F Damp=F
 DIIS: error= 4.07D-07 at cycle   3 NSaved=   3.
 NSaved= 3 IEnMin= 3 EnMin= -158.056596899555     IErMin= 3 ErrMin= 4.07D-07
 ErrMax= 4.07D-07  0.00D+00 EMaxC= 1.00D-01 BMatC= 1.18D-11 BMatP= 1.30D-10
 IDIUse=1 WtCom= 1.00D+00 WtEn= 0.00D+00
 Coeff-Com: -0.538D-01-0.306D-01 0.108D+01
 Coeff:     -0.538D-01-0.306D-01 0.108D+01
 Gap=     0.623 Goal=   None    Shift=    0.000
 RMSDP=9.66D-08 MaxDP=1.24D-06 DE=-3.71D-10 OVMax= 2.55D-06

 Cycle  10  Pass 1  IDiag  1:
 RMSU=  3.51D-08    CP:  1.00D+00  1.53D+00  1.26D+00
 E= -158.056596899589     Delta-E=       -0.000000000033 Rises=F Damp=F
 DIIS: error= 9.22D-08 at cycle   4 NSaved=   4.
 NSaved= 4 IEnMin= 4 EnMin= -158.056596899589     IErMin= 4 ErrMin= 9.22D-08
 ErrMax= 9.22D-08  0.00D+00 EMaxC= 1.00D-01 BMatC= 9.16D-13 BMatP= 1.18D-11
 IDIUse=1 WtCom= 1.00D+00 WtEn= 0.00D+00
 Coeff-Com:  0.192D-01-0.119D+00 0.123D+00 0.977D+00
 Coeff:      0.192D-01-0.119D+00 0.123D+00 0.977D+00
 Gap=     0.623 Goal=   None    Shift=    0.000
 RMSDP=2.12D-08 MaxDP=2.89D-07 DE=-3.34D-11 OVMax= 6.23D-07

 Cycle  11  Pass 1  IDiag  1:
 RMSU=  8.04D-09    CP:  1.00D+00  1.55D+00  1.39D+00  1.13D+00
 E= -158.056596899589     Delta-E=        0.000000000000 Rises=F Damp=F
 DIIS: error= 2.22D-08 at cycle   5 NSaved=   5.
 NSaved= 5 IEnMin= 4 EnMin= -158.056596899589     IErMin= 5 ErrMin= 2.22D-08
 ErrMax= 2.22D-08  0.00D+00 EMaxC= 1.00D-01 BMatC= 3.20D-14 BMatP= 9.16D-13
 IDIUse=1 WtCom= 1.00D+00 WtEn= 0.00D+00
 Coeff-Com: -0.261D-02 0.295D-01-0.678D-01-0.251D+00 0.129D+01
 Coeff:     -0.261D-02 0.295D-01-0.678D-01-0.251D+00 0.129D+01
 Gap=     0.623 Goal=   None    Shift=    0.000
 RMSDP=4.96D-09 MaxDP=6.61D-08 DE= 0.00D+00 OVMax= 1.22D-07

 SCF Done:  E(RHF) =  -158.056596900     A.U. after   11 cycles
            NFock= 11  Conv=0.50D-08     -V/T= 2.0039
 KE= 1.574466987524D+02 PE=-6.278454383700D+02 EE= 1.828655796393D+02
 Leave Link  502 at Mon Mar 23 14:19:03 2020, MaxMem=   134217728 cpu:               7.0 elap:               0.9
 (Enter /home/soft/g16/l601.exe)
 Copying SCF densities to generalized density rwf, IOpCl= 0 IROHF=0.

 **********************************************************************

            Population analysis using the SCF density.

 **********************************************************************

 Alpha  occ. eigenvalues --  -11.16713 -11.16656 -11.12756 -11.12756  -1.02428
 Alpha  occ. eigenvalues --   -0.92178  -0.79799  -0.75222  -0.60580  -0.52505
 Alpha  occ. eigenvalues --   -0.52193  -0.48787  -0.45312  -0.43950  -0.43612
 Alpha  occ. eigenvalues --   -0.42090  -0.35841
 Alpha virt. eigenvalues --    0.26464   0.30386   0.31875   0.32774   0.37245
 Alpha virt. eigenvalues --    0.37447   0.39045   0.39780   0.40100   0.41678
 Alpha virt. eigenvalues --    0.46541   0.47709   0.48324   0.73974   0.77084
 Alpha virt. eigenvalues --    0.78315   0.78629   0.79238   0.88375   0.88429
 Alpha virt. eigenvalues --    0.98700   0.98841   1.06579   1.06934   1.12465
 Alpha virt. eigenvalues --    1.16009   1.21194   1.22290   1.23372   1.24020
 Alpha virt. eigenvalues --    1.25367   1.25681   1.29966   1.30237   1.35183
 Alpha virt. eigenvalues --    1.36984   1.60199   1.61476   1.68884   1.75648
 Alpha virt. eigenvalues --    1.80851   1.93744   1.97804   2.01635   2.04031
 Alpha virt. eigenvalues --    2.11610   2.16981   2.24416   2.29695   2.43167
 Alpha virt. eigenvalues --    2.43849   2.44134   2.47466   2.47505   2.50055
 Alpha virt. eigenvalues --    2.52601   2.57668   2.60188   2.60983   2.63172
 Alpha virt. eigenvalues --    2.65507   2.69757   2.73063   2.83829   2.86607
 Alpha virt. eigenvalues --    2.91926   2.93397   3.02022   3.07064   3.10465
 Alpha virt. eigenvalues --    3.13396   3.17050   3.24078   3.25504   3.30096
 Alpha virt. eigenvalues --    3.37025   3.38117   3.38292   3.40031   3.68972
 Alpha virt. eigenvalues --    3.73671   3.78462   3.78559   3.85336   3.90412
 Alpha virt. eigenvalues --    4.02072   4.04944   4.09717   4.11576
          Condensed to atoms (all electrons):
               1          2          3          4          5          6
     1  C    5.057725   0.327626  -0.066193   0.005600   0.404259   0.399213
     2  C    0.327626   5.003565   0.340348  -0.066193  -0.034059  -0.044966
     3  C   -0.066193   0.340348   5.003565   0.327626   0.004442  -0.006106
     4  C    0.005600  -0.066193   0.327626   5.057725  -0.000123  -0.000057
     5  H    0.404259  -0.034059   0.004442  -0.000123   0.314915  -0.020015
     6  H    0.399213  -0.044966  -0.006106  -0.000057  -0.020015   0.640994
     7  H    0.399199  -0.044960  -0.006110  -0.000057  -0.020020  -0.034836
     8  H   -0.043778   0.407507  -0.044734  -0.003471  -0.002325   0.005357
     9  H   -0.043779   0.407511  -0.044735  -0.003470  -0.002325  -0.003826
    10  H   -0.003470  -0.044735   0.407509  -0.043779  -0.000052   0.002805
    11  H   -0.003470  -0.044734   0.407509  -0.043779  -0.000052   0.000179
    12  H   -0.000057  -0.006108  -0.044963   0.399206   0.000002  -0.000000
    13  H   -0.000057  -0.006108  -0.044963   0.399206   0.000002   0.000013
    14  H   -0.000123   0.004442  -0.034059   0.404259   0.000001   0.000002
               7          8          9         10         11         12
     1  C    0.399199  -0.043778  -0.043779  -0.003470  -0.003470  -0.000057
     2  C   -0.044960   0.407507   0.407511  -0.044735  -0.044734  -0.006108
     3  C   -0.006110  -0.044734  -0.044735   0.407509   0.407509  -0.044963
     4  C   -0.000057  -0.003471  -0.003470  -0.043779  -0.043779   0.399206
     5  H   -0.020020  -0.002325  -0.002325  -0.000052  -0.000052   0.000002
     6  H   -0.034836   0.005357  -0.003826   0.002805   0.000179  -0.000000
     7  H    0.641028  -0.003824   0.005357   0.000179   0.002805   0.000013
     8  H   -0.003824   0.639786  -0.036172   0.005244  -0.003527   0.002805
     9  H    0.005357  -0.036172   0.639784  -0.003527   0.005244   0.000179
    10  H    0.000179   0.005244  -0.003527   0.639784  -0.036172   0.005357
    11  H    0.002805  -0.003527   0.005244  -0.036172   0.639785  -0.003825
    12  H    0.000013   0.002805   0.000179   0.005357  -0.003825   0.641011
    13  H   -0.000000   0.000179   0.002805  -0.003825   0.005357  -0.034836
    14  H    0.000002  -0.000052  -0.000052  -0.002325  -0.002325  -0.020018
              13         14
     1  C   -0.000057  -0.000123
     2  C   -0.006108   0.004442
     3  C   -0.044963  -0.034059
     4  C    0.399206   0.404259
     5  H    0.000002   0.000001
     6  H    0.000013   0.000002
     7  H   -0.000000   0.000002
     8  H    0.000179  -0.000052
     9  H    0.002805  -0.000052
    10  H   -0.003825  -0.002325
    11  H    0.005357  -0.002325
    12  H   -0.034836  -0.020018
    13  H    0.641011  -0.020018
    14  H   -0.020018   0.314915
 Mulliken charges:
               1
     1  C   -0.432694
     2  C   -0.199137
     3  C   -0.199137
     4  C   -0.432694
     5  H    0.355351
     6  H    0.061243
     7  H    0.061223
     8  H    0.077006
     9  H    0.077007
    10  H    0.077007
    11  H    0.077006
    12  H    0.061233
    13  H    0.061233
    14  H    0.355352
 Sum of Mulliken charges =  -0.00000
 Mulliken charges with hydrogens summed into heavy atoms:
               1
     1  C    0.045124
     2  C   -0.045124
     3  C   -0.045124
     4  C    0.045124
 Electronic spatial extent (au):  <R**2>=           3251.1131
 Charge=             -0.0000 electrons
 Dipole moment (field-independent basis, Debye):
    X=              0.0000    Y=             -0.0000    Z=             -0.0000  Tot=              0.0000
 Quadrupole moment (field-independent basis, Debye-Ang):
   XX=            -21.3665   YY=            -29.2611   ZZ=            -29.6248
   XY=              1.8508   XZ=             -3.1838   YZ=              0.2995
 Traceless Quadrupole moment (field-independent basis, Debye-Ang):
   XX=              5.3843   YY=             -2.5103   ZZ=             -2.8740
   XY=              1.8508   XZ=             -3.1838   YZ=              0.2995
 Octapole moment (field-independent basis, Debye-Ang**2):
  XXX=            283.5684  YYY=            -67.1054  ZZZ=            159.8630  XYY=            132.2772
  XXY=            -32.7074  XXZ=             66.6027  XZZ=            142.5108  YZZ=            -23.7239
  YYZ=             53.0914  XYZ=             -7.0876
 Hexadecapole moment (field-independent basis, Debye-Ang**3):
 XXXX=          -2697.6539 YYYY=           -213.9459 ZZZZ=           -794.6265 XXXY=            301.0713
 XXXZ=           -654.8145 YYYX=            255.3291 YYYZ=            167.0960 ZZZX=           -664.9260
 ZZZY=            173.1271 XXYY=           -669.1202 XXZZ=           -817.6695 YYZZ=           -169.5836
 XXYZ=             93.4855 YYXZ=           -217.4455 ZZXY=            108.0143
 N-N= 1.294765630788D+02 E-N=-6.278454393139D+02  KE= 1.574466987524D+02
 No NMR shielding tensors so no spin-rotation constants.
 Leave Link  601 at Mon Mar 23 14:19:03 2020, MaxMem=   134217728 cpu:               0.6 elap:               0.1
 (Enter /home/soft/g16/l607.exe)
 ******************************Gaussian NBO Version 3.1******************************
             N A T U R A L   A T O M I C   O R B I T A L   A N D
          N A T U R A L   B O N D   O R B I T A L   A N A L Y S I S
 ******************************Gaussian NBO Version 3.1******************************
       /RESON  / : Allow strongly delocalized NBO set

 Analyzing the SCF density

 Job title: Atom number=14                                                  

 Storage needed:     34416 in NPA ( 134216608 available)
 GSVD:  LWork=        5836 too small for GESVD, short by        4514 words or        4514 for optimal perf.


 NATURAL POPULATIONS:  Natural atomic orbital occupancies 
                                                          
   NAO  Atom  No  lang   Type(AO)    Occupancy      Energy
 ----------------------------------------------------------
     1    C    1  S      Cor( 1S)     1.99940     -10.98106
     2    C    1  S      Val( 2S)     1.10609      -0.19683
     3    C    1  S      Ryd( 3S)     0.00055       1.56506
     4    C    1  px     Val( 2p)     1.38125      -0.04491
     5    C    1  px     Ryd( 3p)     0.00316       0.98452
     6    C    1  py     Val( 2p)     1.16270       0.02433
     7    C    1  py     Ryd( 3p)     0.00148       0.88068
     8    C    1  pz     Val( 2p)     1.09546       0.03520
     9    C    1  pz     Ryd( 3p)     0.00199       0.84201
    10    C    1  dxy    Ryd( 3d)     0.00065       2.62246
    11    C    1  dxz    Ryd( 3d)     0.00067       2.56604
    12    C    1  dyz    Ryd( 3d)     0.00103       2.70196
    13    C    1  dx2y2  Ryd( 3d)     0.00125       2.95769
    14    C    1  dz2    Ryd( 3d)     0.00114       2.78095

    15    C    2  S      Cor( 1S)     1.99933     -11.02033
    16    C    2  S      Val( 2S)     1.02726      -0.17571
    17    C    2  S      Ryd( 3S)     0.00100       1.63610
    18    C    2  px     Val( 2p)     1.06398       0.01344
    19    C    2  px     Ryd( 3p)     0.00120       0.85813
    20    C    2  py     Val( 2p)     1.18155       0.00500
    21    C    2  py     Ryd( 3p)     0.00258       1.02957
    22    C    2  pz     Val( 2p)     1.13265       0.00726
    23    C    2  pz     Ryd( 3p)     0.00213       0.97373
    24    C    2  dxy    Ryd( 3d)     0.00075       2.56429
    25    C    2  dxz    Ryd( 3d)     0.00080       2.51116
    26    C    2  dyz    Ryd( 3d)     0.00115       2.69788
    27    C    2  dx2y2  Ryd( 3d)     0.00161       2.75493
    28    C    2  dz2    Ryd( 3d)     0.00144       2.72519

    29    C    3  S      Cor( 1S)     1.99933     -11.02033
    30    C    3  S      Val( 2S)     1.02726      -0.17571
    31    C    3  S      Ryd( 3S)     0.00100       1.63610
    32    C    3  px     Val( 2p)     1.06398       0.01344
    33    C    3  px     Ryd( 3p)     0.00120       0.85813
    34    C    3  py     Val( 2p)     1.18155       0.00500
    35    C    3  py     Ryd( 3p)     0.00258       1.02957
    36    C    3  pz     Val( 2p)     1.13265       0.00726
    37    C    3  pz     Ryd( 3p)     0.00213       0.97373
    38    C    3  dxy    Ryd( 3d)     0.00075       2.56429
    39    C    3  dxz    Ryd( 3d)     0.00080       2.51116
    40    C    3  dyz    Ryd( 3d)     0.00115       2.69788
    41    C    3  dx2y2  Ryd( 3d)     0.00161       2.75493
    42    C    3  dz2    Ryd( 3d)     0.00144       2.72519

    43    C    4  S      Cor( 1S)     1.99940     -10.98106
    44    C    4  S      Val( 2S)     1.10609      -0.19683
    45    C    4  S      Ryd( 3S)     0.00055       1.56506
    46    C    4  px     Val( 2p)     1.38125      -0.04491
    47    C    4  px     Ryd( 3p)     0.00316       0.98452
    48    C    4  py     Val( 2p)     1.16270       0.02433
    49    C    4  py     Ryd( 3p)     0.00148       0.88068
    50    C    4  pz     Val( 2p)     1.09546       0.03521
    51    C    4  pz     Ryd( 3p)     0.00199       0.84201
    52    C    4  dxy    Ryd( 3d)     0.00065       2.62250
    53    C    4  dxz    Ryd( 3d)     0.00067       2.56600
    54    C    4  dyz    Ryd( 3d)     0.00103       2.70199
    55    C    4  dx2y2  Ryd( 3d)     0.00125       2.95765
    56    C    4  dz2    Ryd( 3d)     0.00114       2.78095

    57    H    5  S      Val( 1S)     0.57022       0.49152
    58    H    5  S      Ryd( 2S)     0.00035       0.95154
    59    H    5  px     Ryd( 2p)     0.00292       3.73678
    60    H    5  py     Ryd( 2p)     0.00002       2.83078
    61    H    5  pz     Ryd( 2p)     0.00005       2.81074

    62    H    6  S      Val( 1S)     0.81656       0.21586
    63    H    6  S      Ryd( 2S)     0.00120       0.88195
    64    H    6  px     Ryd( 2p)     0.00012       2.81248
    65    H    6  py     Ryd( 2p)     0.00064       3.36681
    66    H    6  pz     Ryd( 2p)     0.00005       2.67816

    67    H    7  S      Val( 1S)     0.81657       0.21584
    68    H    7  S      Ryd( 2S)     0.00120       0.88196
    69    H    7  px     Ryd( 2p)     0.00012       2.81111
    70    H    7  py     Ryd( 2p)     0.00019       2.85522
    71    H    7  pz     Ryd( 2p)     0.00050       3.19108

    72    H    8  S      Val( 1S)     0.80485       0.22011
    73    H    8  S      Ryd( 2S)     0.00182       0.85465
    74    H    8  px     Ryd( 2p)     0.00011       2.78390
    75    H    8  py     Ryd( 2p)     0.00069       3.34951
    76    H    8  pz     Ryd( 2p)     0.00004       2.74794

    77    H    9  S      Val( 1S)     0.80484       0.22011
    78    H    9  S      Ryd( 2S)     0.00182       0.85465
    79    H    9  px     Ryd( 2p)     0.00011       2.78235
    80    H    9  py     Ryd( 2p)     0.00021       2.89666
    81    H    9  pz     Ryd( 2p)     0.00052       3.20234

    82    H   10  S      Val( 1S)     0.80484       0.22011
    83    H   10  S      Ryd( 2S)     0.00182       0.85465
    84    H   10  px     Ryd( 2p)     0.00011       2.78390
    85    H   10  py     Ryd( 2p)     0.00069       3.34951
    86    H   10  pz     Ryd( 2p)     0.00004       2.74794

    87    H   11  S      Val( 1S)     0.80485       0.22011
    88    H   11  S      Ryd( 2S)     0.00182       0.85465
    89    H   11  px     Ryd( 2p)     0.00011       2.78235
    90    H   11  py     Ryd( 2p)     0.00021       2.89667
    91    H   11  pz     Ryd( 2p)     0.00052       3.20234

    92    H   12  S      Val( 1S)     0.81657       0.21585
    93    H   12  S      Ryd( 2S)     0.00120       0.88196
    94    H   12  px     Ryd( 2p)     0.00012       2.81250
    95    H   12  py     Ryd( 2p)     0.00064       3.36678
    96    H   12  pz     Ryd( 2p)     0.00005       2.67816

    97    H   13  S      Val( 1S)     0.81657       0.21585
    98    H   13  S      Ryd( 2S)     0.00120       0.88195
    99    H   13  px     Ryd( 2p)     0.00012       2.81109
   100    H   13  py     Ryd( 2p)     0.00019       2.85526
   101    H   13  pz     Ryd( 2p)     0.00050       3.19108

   102    H   14  S      Val( 1S)     0.57022       0.49152
   103    H   14  S      Ryd( 2S)     0.00035       0.95154
   104    H   14  px     Ryd( 2p)     0.00292       3.73678
   105    H   14  py     Ryd( 2p)     0.00002       2.83078
   106    H   14  pz     Ryd( 2p)     0.00005       2.81074


 Summary of Natural Population Analysis:                  
                                                          
                                       Natural Population 
                Natural  -----------------------------------------------
    Atom  No    Charge         Core      Valence    Rydberg      Total
 -----------------------------------------------------------------------
      C    1   -0.75682      1.99940     4.74549    0.01193     6.75682
      C    2   -0.41743      1.99933     4.40544    0.01266     6.41743
      C    3   -0.41743      1.99933     4.40544    0.01266     6.41743
      C    4   -0.75682      1.99940     4.74549    0.01193     6.75682
      H    5    0.42644      0.00000     0.57022    0.00334     0.57356
      H    6    0.18142      0.00000     0.81656    0.00202     0.81858
      H    7    0.18141      0.00000     0.81657    0.00202     0.81859
      H    8    0.19249      0.00000     0.80485    0.00267     0.80751
      H    9    0.19249      0.00000     0.80484    0.00267     0.80751
      H   10    0.19249      0.00000     0.80484    0.00267     0.80751
      H   11    0.19249      0.00000     0.80485    0.00267     0.80751
      H   12    0.18142      0.00000     0.81657    0.00202     0.81858
      H   13    0.18142      0.00000     0.81657    0.00202     0.81858
      H   14    0.42645      0.00000     0.57022    0.00334     0.57355
 =======================================================================
   * Total *   -0.00000      7.99746    25.92795    0.07459    34.00000

                                 Natural Population      
 --------------------------------------------------------
   Core                       7.99746 ( 99.9682% of   8)
   Valence                   25.92795 ( 99.7229% of  26)
   Natural Minimal Basis     33.92541 ( 99.7806% of  34)
   Natural Rydberg Basis      0.07459 (  0.2194% of  34)
 --------------------------------------------------------

    Atom  No          Natural Electron Configuration
 ----------------------------------------------------------------------------
      C    1      [core]2S( 1.11)2p( 3.64)3p( 0.01)
      C    2      [core]2S( 1.03)2p( 3.38)3p( 0.01)3d( 0.01)
      C    3      [core]2S( 1.03)2p( 3.38)3p( 0.01)3d( 0.01)
      C    4      [core]2S( 1.11)2p( 3.64)3p( 0.01)
      H    5            1S( 0.57)
      H    6            1S( 0.82)
      H    7            1S( 0.82)
      H    8            1S( 0.80)
      H    9            1S( 0.80)
      H   10            1S( 0.80)
      H   11            1S( 0.80)
      H   12            1S( 0.82)
      H   13            1S( 0.82)
      H   14            1S( 0.57)


 NBO analysis skipped by request.
 Leave Link  607 at Mon Mar 23 14:19:03 2020, MaxMem=   134217728 cpu:               0.8 elap:               0.1
 (Enter /home/soft/g16/l9999.exe)

 Test job not archived.
 1\1\GINC-NODE09\SP\RHF\6-31G(d,p)\C4H10\ROOT\23-Mar-2020\0\\#p hf/6-31
 g** 5d pop=npa charge nosymm\\Atom number=14\\0,1\C,0,-5.70723204,0.03
 76959,-0.5418104\C,0,-5.19388883,0.76318274,-1.79948587\C,0,-3.6538916
 ,0.76570489,-1.79801945\C,0,-3.14054837,1.49117995,-3.05570171\H,0,-6.
 77723027,0.03601484,-0.54278818\H,0,-5.3489823,-0.97054777,-0.5404547\
 H,0,-5.35215751,0.54354861,0.33165117\H,0,-5.55220656,1.77140219,-1.80
 088226\H,0,-5.54889583,0.25728268,-2.67294747\H,0,-3.29557473,-0.24251
 485,-1.7966131\H,0,-3.29888438,1.27161321,-0.92456273\H,0,-3.49886752,
 2.49939888,-3.05710842\H,0,-3.49555393,0.9852707,-3.92915857\H,0,-2.07
 055029,1.49293387,-3.05468197\\Version=ES64L-G16RevA.03\HF=-158.056596
 9\RMSD=4.964e-09\Dipole=0.0000017,-0.0000141,-0.0000091\Quadrupole=4.0
 03108,-1.8663528,-2.1367552,1.3759877,-2.3670443,0.2226729\PG=C01 [X(C
 4H10)]\\@


 THE UNDERLYING PHYSICAL LAWS NECESSARY FOR THE 
 MATHEMATICAL THEORY OF A LARGE PART OF PHYSICS AND THE
 WHOLE OF CHEMISTRY ARE THUS COMPLETELY KNOWN, AND THE
 DIFFICULTY IS ONLY THAT THE EXACT APPLICATION OF THESE
 LAWS LEADS TO EQUATIONS MUCH TOO COMPLICATED 
 TO BE SOLUBLE.

                                        -- P. A. M. DIRAC, 1929
 Job cpu time:       0 days  0 hours  0 minutes 13.8 seconds.
 Elapsed time:       0 days  0 hours  0 minutes  1.9 seconds.
 File lengths (MBytes):  RWF=     72 Int=      0 D2E=      0 Chk=      8 Scr=      8
 Normal termination of Gaussian 16 at Mon Mar 23 14:19:03 2020.
