 Entering Gaussian System, Link 0=g16
 Input=c8h18_1.gjf
 Output=c8h18_1.log
 Initial command:
 /home/soft/g16/l1.exe "/tmp/liwei01/gaussian/liaokang/Gau-3076.inp" -scrdir="/tmp/liwei01/gaussian/liaokang/"
 Entering Link 1 = /home/soft/g16/l1.exe PID=      3077.
  
 Copyright (c) 1988,1990,1992,1993,1995,1998,2003,2009,2016,
            Gaussian, Inc.  All Rights Reserved.
  
 This is part of the Gaussian(R) 16 program.  It is based on
 the Gaussian(R) 09 system (copyright 2009, Gaussian, Inc.),
 the Gaussian(R) 03 system (copyright 2003, Gaussian, Inc.),
 the Gaussian(R) 98 system (copyright 1998, Gaussian, Inc.),
 the Gaussian(R) 94 system (copyright 1995, Gaussian, Inc.),
 the Gaussian 92(TM) system (copyright 1992, Gaussian, Inc.),
 the Gaussian 90(TM) system (copyright 1990, Gaussian, Inc.),
 the Gaussian 88(TM) system (copyright 1988, Gaussian, Inc.),
 the Gaussian 86(TM) system (copyright 1986, Carnegie Mellon
 University), and the Gaussian 82(TM) system (copyright 1983,
 Carnegie Mellon University). Gaussian is a federally registered
 trademark of Gaussian, Inc.
  
 This software contains proprietary and confidential information,
 including trade secrets, belonging to Gaussian, Inc.
  
 This software is provided under written license and may be
 used, copied, transmitted, or stored only in accord with that
 written license.
  
 The following legend is applicable only to US Government
 contracts under FAR:
  
                    RESTRICTED RIGHTS LEGEND
  
 Use, reproduction and disclosure by the US Government is
 subject to restrictions as set forth in subparagraphs (a)
 and (c) of the Commercial Computer Software - Restricted
 Rights clause in FAR 52.227-19.
  
 Gaussian, Inc.
 340 Quinnipiac St., Bldg. 40, Wallingford CT 06492
  
  
 ---------------------------------------------------------------
 Warning -- This program may not be used in any manner that
 competes with the business of Gaussian, Inc. or will provide
 assistance to any competitor of Gaussian, Inc.  The licensee
 of this program is prohibited from giving any competitor of
 Gaussian, Inc. access to this program.  By using this program,
 the user acknowledges that Gaussian, Inc. is engaged in the
 business of creating and licensing software in the field of
 computational chemistry and represents and warrants to the
 licensee that it is not a competitor of Gaussian, Inc. and that
 it will not use this program in any manner prohibited above.
 ---------------------------------------------------------------
  

 Cite this work as:
 Gaussian 16, Revision A.03,
 M. J. Frisch, G. W. Trucks, H. B. Schlegel, G. E. Scuseria, 
 M. A. Robb, J. R. Cheeseman, G. Scalmani, V. Barone, 
 G. A. Petersson, H. Nakatsuji, X. Li, M. Caricato, A. V. Marenich, 
 J. Bloino, B. G. Janesko, R. Gomperts, B. Mennucci, H. P. Hratchian, 
 J. V. Ortiz, A. F. Izmaylov, J. L. Sonnenberg, D. Williams-Young, 
 F. Ding, F. Lipparini, F. Egidi, J. Goings, B. Peng, A. Petrone, 
 T. Henderson, D. Ranasinghe, V. G. Zakrzewski, J. Gao, N. Rega, 
 G. Zheng, W. Liang, M. Hada, M. Ehara, K. Toyota, R. Fukuda, 
 J. Hasegawa, M. Ishida, T. Nakajima, Y. Honda, O. Kitao, H. Nakai, 
 T. Vreven, K. Throssell, J. A. Montgomery, Jr., J. E. Peralta, 
 F. Ogliaro, M. J. Bearpark, J. J. Heyd, E. N. Brothers, K. N. Kudin, 
 V. N. Staroverov, T. A. Keith, R. Kobayashi, J. Normand, 
 K. Raghavachari, A. P. Rendell, J. C. Burant, S. S. Iyengar, 
 J. Tomasi, M. Cossi, J. M. Millam, M. Klene, C. Adamo, R. Cammi, 
 J. W. Ochterski, R. L. Martin, K. Morokuma, O. Farkas, 
 J. B. Foresman, and D. J. Fox, Gaussian, Inc., Wallingford CT, 2016.
 
 ******************************************
 Gaussian 16:  ES64L-G16RevA.03 25-Dec-2016
                23-Mar-2020 
 ******************************************
 %chk=c8h18_1.chk
 %nproc=8
 Will use up to    8 processors via shared memory.
 %mem=1gb
 --------------------------------------
 #p hf/6-31g** 5d pop=npa charge nosymm
 --------------------------------------
 1/18=10,28=-2,38=1,125=101,172=1/1;
 2/12=2,15=1,17=6,18=5,40=1/2;
 3/5=1,6=6,7=101,8=1,11=9,25=1,30=1/1,2,3;
 4//1;
 5/5=2,38=5/2;
 6/7=2,8=2,9=2,10=2,28=1,40=-1/1,7;
 99/5=1,9=1/99;
 Leave Link    1 at Mon Mar 23 14:19:01 2020, MaxMem=   134217728 cpu:               0.6 elap:               0.1
 (Enter /home/soft/g16/l101.exe)
 --------------
 Atom number=20
 --------------
 Symbolic Z-matrix:
 Charge =  0 Multiplicity = 1
 c                    -7.76057  -0.69068   0.71419 
 c                    -7.24723   0.03528  -0.54322 
 c                    -5.70723   0.0377   -0.54181 
 c                    -5.19389   0.76318  -1.79949 
 c                    -3.65389   0.7657   -1.79802 
 c                    -3.14055   1.49118  -3.0557 
 h                    -7.40392  -1.69949   0.71419 
 h                    -7.4039   -0.18628   1.58784 
 h                    -8.83057  -0.69067   0.71419 
 h                    -7.60548   1.04352  -0.5442 
 h                    -7.6023   -0.47025  -1.41687 
 h                    -5.34898  -0.97055  -0.54045 
 h                    -5.35216   0.54355   0.33165 
 h                    -5.55221   1.7714   -1.80088 
 h                    -5.5489    0.25728  -2.67295 
 h                    -3.29557  -0.24251  -1.79661 
 h                    -3.29888   1.27161  -0.92456 
 h                    -3.49887   2.4994   -3.05711 
 h                    -3.49555   0.98527  -3.92916 
 h                    -2.07055   1.49293  -3.05468 
 
 ITRead=  0  0  0  0  0  0  0  0  0  0  0  0  0  0  0  0  0  0  0  0
 MicOpt= -1 -1 -1 -1 -1 -1 -1 -1 -1 -1 -1 -1 -1 -1 -1 -1 -1 -1 -1 -1
 NAtoms=     20 NQM=       20 NQMF=       0 NMMI=      0 NMMIF=      0
                NMic=       0 NMicF=      0.
                    Isotopes and Nuclear Properties:
 (Nuclear quadrupole moments (NQMom) in fm**2, nuclear magnetic moments (NMagM)
  in nuclear magnetons)

  Atom         1           2           3           4           5           6           7           8           9          10
 IAtWgt=          12          12          12          12          12          12           1           1           1           1
 AtmWgt=  12.0000000  12.0000000  12.0000000  12.0000000  12.0000000  12.0000000   1.0078250   1.0078250   1.0078250   1.0078250
 NucSpn=           0           0           0           0           0           0           1           1           1           1
 AtZEff=  -0.0000000  -0.0000000  -0.0000000  -0.0000000  -0.0000000  -0.0000000  -0.0000000  -0.0000000  -0.0000000  -0.0000000
 NQMom=    0.0000000   0.0000000   0.0000000   0.0000000   0.0000000   0.0000000   0.0000000   0.0000000   0.0000000   0.0000000
 NMagM=    0.0000000   0.0000000   0.0000000   0.0000000   0.0000000   0.0000000   2.7928460   2.7928460   2.7928460   2.7928460
 AtZNuc=   6.0000000   6.0000000   6.0000000   6.0000000   6.0000000   6.0000000   1.0000000   1.0000000   1.0000000   1.0000000

  Atom        11          12          13          14          15          16          17          18          19          20
 IAtWgt=           1           1           1           1           1           1           1           1           1           1
 AtmWgt=   1.0078250   1.0078250   1.0078250   1.0078250   1.0078250   1.0078250   1.0078250   1.0078250   1.0078250   1.0078250
 NucSpn=           1           1           1           1           1           1           1           1           1           1
 AtZEff=  -0.0000000  -0.0000000  -0.0000000  -0.0000000  -0.0000000  -0.0000000  -0.0000000  -0.0000000  -0.0000000  -0.0000000
 NQMom=    0.0000000   0.0000000   0.0000000   0.0000000   0.0000000   0.0000000   0.0000000   0.0000000   0.0000000   0.0000000
 NMagM=    2.7928460   2.7928460   2.7928460   2.7928460   2.7928460   2.7928460   2.7928460   2.7928460   2.7928460   2.7928460
 AtZNuc=   1.0000000   1.0000000   1.0000000   1.0000000   1.0000000   1.0000000   1.0000000   1.0000000   1.0000000   1.0000000
 Background charge distribution read from input stream:
 Point Charges:
 XYZ=   -1.6006    1.4937   -3.0542 Q=   -0.4180 A=    0.0000 R=    0.0000 C=    0.0000
 XYZ=   -1.2422    0.4855   -3.0528 Q=    0.2107 A=    0.0000 R=    0.0000 C=    0.0000
 XYZ=   -1.2455    1.9996   -2.1808 Q=    0.2107 A=    0.0000 R=    0.0000 C=    0.0000
 XYZ=   -1.0872    2.2192   -4.3119 Q=   -0.6339 A=    0.0000 R=    0.0000 C=    0.0000
 XYZ=   -1.4455    3.2274   -4.3133 Q=    0.2104 A=    0.0000 R=    0.0000 C=    0.0000
 XYZ=   -0.0172    2.2209   -4.3109 Q=    0.2145 A=    0.0000 R=    0.0000 C=    0.0000
 XYZ=   -1.4422    1.7133   -5.1854 Q=    0.2104 A=    0.0000 R=    0.0000 C=    0.0000
 Pt Chg Charge=              0.0050 electrons
 Pt Chg Dipole moment (Debye):
    X=              1.0688    Y=              0.0425    Z=             -0.0807  Tot=              1.0727
 Pt Chg Quadrupole moment (Debye-Ang):
   XX=             -1.3950   YY=              3.3905   ZZ=              4.0446
   XY=              1.7618   XZ=             -3.5619   YZ=             -0.5375
 Pt Chg Traceless Quadrupole moment (Debye-Ang):
   XX=             -3.4084   YY=              1.3771   ZZ=              2.0312
   XY=              1.7618   XZ=             -3.5619   YZ=             -0.5375
 Pt Chg Octapole moment (Debye-Ang**2):
  XXX=              2.1633  YYY=             18.5946  ZZZ=            -42.6031  XYY=             -1.4515
  XXY=             -1.3515  XXZ=              3.0206  XZZ=              7.0968  YZZ=             10.3943
  YYZ=            -13.9285  XYZ=             -5.5133
 Pt Chg Hexadecapole moment (Debye-Ang**3):
 XXXX=             -3.7970 YYYY=             75.8480 ZZZZ=            320.1319 XXXY=              1.0779
 XXXZ=             -2.9335 YYYX=            -19.9815 YYYZ=            -75.6757 ZZZX=             13.8405
 ZZZY=            -94.4349 XXYY=              5.6204 XXZZ=              2.9649 YYZZ=             71.0173
 XXYZ=              0.6564 YYXZ=              7.9180 ZZXY=              8.0581
 Leave Link  101 at Mon Mar 23 14:19:02 2020, MaxMem=   134217728 cpu:               0.7 elap:               0.1
 (Enter /home/soft/g16/l202.exe)
                          Input orientation:                          
 ---------------------------------------------------------------------
 Center     Atomic      Atomic             Coordinates (Angstroms)
 Number     Number       Type             X           Y           Z
 ---------------------------------------------------------------------
      1          6           0       -7.760572   -0.690680    0.714187
      2          6           0       -7.247229    0.035276   -0.543218
      3          6           0       -5.707232    0.037696   -0.541810
      4          6           0       -5.193889    0.763183   -1.799486
      5          6           0       -3.653892    0.765705   -1.798019
      6          6           0       -3.140548    1.491180   -3.055702
      7          1           0       -7.403917   -1.699490    0.714187
      8          1           0       -7.403899   -0.186282    1.587839
      9          1           0       -8.830572   -0.690667    0.714187
     10          1           0       -7.605480    1.043520   -0.544196
     11          1           0       -7.602304   -0.470250   -1.416868
     12          1           0       -5.348982   -0.970548   -0.540455
     13          1           0       -5.352158    0.543549    0.331651
     14          1           0       -5.552207    1.771402   -1.800882
     15          1           0       -5.548896    0.257283   -2.672947
     16          1           0       -3.295575   -0.242515   -1.796613
     17          1           0       -3.298884    1.271613   -0.924563
     18          1           0       -3.498868    2.499399   -3.057108
     19          1           0       -3.495554    0.985271   -3.929159
     20          1           0       -2.070550    1.492934   -3.054682
 ---------------------------------------------------------------------
                    Distance matrix (angstroms):
                    1          2          3          4          5
     1  C    0.000000
     2  C    1.540000   0.000000
     3  C    2.514809   1.540000   0.000000
     4  C    3.875581   2.514809   1.540000   0.000000
     5  C    5.029618   3.875581   2.514809   1.540000   0.000000
     6  C    6.349582   5.029618   3.875581   2.514809   1.540000
     7  H    1.070000   2.148263   2.733877   4.155422   5.143059
     8  H    1.070000   2.148263   2.732078   4.154467   5.141291
     9  H    1.070000   2.148263   3.444313   4.653783   5.935505
    10  H    2.148263   1.070000   2.148263   2.733151   4.155034
    11  H    2.148263   1.070000   2.148263   2.732804   4.154855
    12  H    2.732804   2.148263   1.070000   2.148263   2.733016
    13  H    2.733151   2.148263   1.070000   2.148263   2.732939
    14  H    4.155033   2.732939   2.148263   1.070000   2.148263
    15  H    4.154856   2.733015   2.148263   1.070000   2.148263
    16  H    5.142098   4.154966   2.732973   2.148263   1.070000
    17  H    5.142251   4.154923   2.732982   2.148263   1.070000
    18  H    6.523910   5.142156   4.154946   2.732976   2.148263
    19  H    6.523791   5.142194   4.154942   2.732978   2.148263
    20  H    7.165814   5.935506   4.653783   3.444314   2.148263
                    6          7          8          9         10
     6  C    0.000000
     7  H    6.524473   0.000000
     8  H    6.523228   1.747302   0.000000
     9  H    7.165814   1.747303   1.747303   0.000000
    10  H    5.142342   3.024609   2.469539   2.468154   0.000000
    11  H    5.142008   2.468154   3.024610   2.469539   1.747303
    12  H    4.154967   2.515600   3.060619   3.711324   3.024610
    13  H    4.154922   3.063866   2.514021   3.710659   2.468713
    14  H    2.732982   4.669208   4.329517   4.809889   2.514956
    15  H    2.732973   4.329289   4.668199   4.810477   3.062563
    16  H    2.148263   5.030445   5.323157   6.094354   4.668803
    17  H    2.148263   5.325810   5.028793   6.093899   4.329373
    18  H    1.070000   6.863144   6.636090   7.268168   5.029769
    19  H    1.070000   6.636558   6.861848   7.268552   5.324740
    20  H    1.070000   7.269164   7.267556   8.041789   6.094256
                   11         12         13         14         15
    11  H    0.000000
    12  H    2.468979   0.000000
    13  H    3.024610   1.747303   0.000000
    14  H    3.061923   3.024610   2.468875   0.000000
    15  H    2.514662   2.468817   3.024610   1.747303   0.000000
    16  H    4.329433   2.514846   3.062179   3.024610   2.468849
    17  H    4.668605   3.062307   2.514773   2.468843   3.024610
    18  H    5.324227   4.668726   4.329402   2.514813   3.062235
    19  H    5.029467   4.329404   4.668682   3.062251   2.514805
    20  H    6.093999   4.810218   4.810149   3.710996   3.710989
                   16         17         18         19         20
    16  H    0.000000
    17  H    1.747303   0.000000
    18  H    3.024610   2.468846   0.000000
    19  H    2.468846   3.024610   1.747303   0.000000
    20  H    2.468847   2.468845   1.747303   1.747303   0.000000
 Symmetry turned off by external request.
 Stoichiometry    C6H14
 Framework group  C1[X(C6H14)]
 Deg. of freedom    54
 Full point group                 C1      NOp   1
 Rotational constants (GHZ):          14.2974385           1.1715547           1.1274227
 Leave Link  202 at Mon Mar 23 14:19:02 2020, MaxMem=   134217728 cpu:               0.1 elap:               0.0
 (Enter /home/soft/g16/l301.exe)
 Standard basis: 6-31G(d,p) (5D, 7F)
 Ernie: Thresh=  0.10000D-02 Tol=  0.10000D-05 Strict=F.
   154 basis functions,   266 primitive gaussians,   160 cartesian basis functions
    25 alpha electrons       25 beta electrons
       nuclear repulsion energy       246.4469692738 Hartrees.
 IExCor=    0 DFT=F Ex=HF Corr=None ExCW=0 ScaHFX=  1.000000
 ScaDFX=  1.000000  1.000000  1.000000  1.000000 ScalE2=  1.000000  1.000000
 IRadAn=      5 IRanWt=     -1 IRanGd=            0 ICorTp=0 IEmpDi=  4
 NAtoms=   20 NActive=   20 NUniq=   20 SFac= 1.00D+00 NAtFMM=   60 NAOKFM=F Big=F
 Integral buffers will be    131072 words long.
 Raffenetti 1 integral format.
 Two-electron integral symmetry is turned off.
 Background charge distribution read from rwf.
 PtFMM for NChg=        27 BoxLen=    40.00 Levels= 1 LMax=20 SMax=    16.7 ICnFMM=     1:
 Self energy of the charges =        -0.2184042660 a.u.
 MM   energy of the charges =         0.0000000000 a.u.
 Nuclei-charges interaction =        -0.9859107665 a.u.
 Nuclear repulsion after external point charges =      245.2426542413 Hartrees.
 Leave Link  301 at Mon Mar 23 14:19:02 2020, MaxMem=   134217728 cpu:               0.5 elap:               0.1
 (Enter /home/soft/g16/l302.exe)
 NPDir=0 NMtPBC=     1 NCelOv=     1 NCel=       1 NClECP=     1 NCelD=      1
         NCelK=      1 NCelE2=     1 NClLst=     1 CellRange=     0.0.
 One-electron integrals computed using PRISM.
 NBasis=   154 RedAO= T EigKep=  3.21D-03  NBF=   154
 NBsUse=   154 1.00D-06 EigRej= -1.00D+00 NBFU=   154
 Leave Link  302 at Mon Mar 23 14:19:02 2020, MaxMem=   134217728 cpu:               1.0 elap:               0.1
 (Enter /home/soft/g16/l303.exe)
 DipDrv:  MaxL=1.
 Leave Link  303 at Mon Mar 23 14:19:02 2020, MaxMem=   134217728 cpu:               0.2 elap:               0.0
 (Enter /home/soft/g16/l401.exe)
 ExpMin= 1.61D-01 ExpMax= 3.05D+03 ExpMxC= 4.57D+02 IAcc=3 IRadAn=         5 AccDes= 0.00D+00
 Harris functional with IExCor=  205 and IRadAn=       5 diagonalized for initial guess.
 HarFok:  IExCor=  205 AccDes= 0.00D+00 IRadAn=         5 IDoV= 1 UseB2=F ITyADJ=14
 ICtDFT=  3500011 ScaDFX=  1.000000  1.000000  1.000000  1.000000
 FoFCou: FMM=F IPFlag=           0 FMFlag=      100000 FMFlg1=           0
         NFxFlg=           0 DoJE=T BraDBF=F KetDBF=T FulRan=T
         wScrn=  0.000000 ICntrl=       500 IOpCl=  0 I1Cent=   200000004 NGrid=           0
         NMat0=    1 NMatS0=      1 NMatT0=    0 NMatD0=    1 NMtDS0=    0 NMtDT0=    0
 Symmetry not used in FoFCou.
 Harris En= -236.456998375243    
 JPrj=0 DoOrth=F DoCkMO=F.
 Leave Link  401 at Mon Mar 23 14:19:02 2020, MaxMem=   134217728 cpu:               4.3 elap:               0.6
 (Enter /home/soft/g16/l502.exe)
 Two-electron integral symmetry not used.
 Closed shell SCF:
 Using DIIS extrapolation, IDIIS=  1040.
 NGot=   134217728 LenX=   134163656 LenY=   134137615
 Requested convergence on RMS density matrix=1.00D-08 within 128 cycles.
 Requested convergence on MAX density matrix=1.00D-06.
 Requested convergence on             energy=1.00D-06.
 No special actions if energy rises.
 Fock matrices will be formed incrementally for  20 cycles.
 Integral accuracy reduced to 1.0D-05 until final iterations.

 Cycle   1  Pass 0  IDiag  1:
 FoFJK:  IHMeth= 1 ICntrl=       0 DoSepK=F KAlg= 0 I1Cent=           0 FoldK=F
 IRaf= 920000000 NMat=       1 IRICut=       1 DoRegI=T DoRafI=F ISym2E= 0 IDoP0=0 IntGTp=1.
 FoFCou: FMM=F IPFlag=           0 FMFlag=      100000 FMFlg1=           0
         NFxFlg=           0 DoJE=F BraDBF=F KetDBF=F FulRan=T
         wScrn=  0.000000 ICntrl=         0 IOpCl=  0 I1Cent=           0 NGrid=           0
         NMat0=    1 NMatS0=      1 NMatT0=    0 NMatD0=    1 NMtDS0=    0 NMtDT0=    0
 Symmetry not used in FoFCou.
 E= -235.314616201754    
 DIIS: error= 5.07D-02 at cycle   1 NSaved=   1.
 NSaved= 1 IEnMin= 1 EnMin= -235.314616201754     IErMin= 1 ErrMin= 5.07D-02
 ErrMax= 5.07D-02  0.00D+00 EMaxC= 1.00D-01 BMatC= 4.42D-01 BMatP= 4.42D-01
 IDIUse=3 WtCom= 4.93D-01 WtEn= 5.07D-01
 Coeff-Com:  0.100D+01
 Coeff-En:   0.100D+01
 Coeff:      0.100D+01
 Gap=     0.576 Goal=   None    Shift=    0.000
 GapD=    0.576 DampG=2.000 DampE=0.500 DampFc=1.0000 IDamp=-1.
 RMSDP=5.15D-03 MaxDP=1.32D-01              OVMax= 1.36D-01

 Cycle   2  Pass 0  IDiag  1:
 RMSU=  5.01D-03    CP:  9.44D-01
 E= -235.687900328953     Delta-E=       -0.373284127199 Rises=F Damp=F
 DIIS: error= 1.97D-02 at cycle   2 NSaved=   2.
 NSaved= 2 IEnMin= 2 EnMin= -235.687900328953     IErMin= 2 ErrMin= 1.97D-02
 ErrMax= 1.97D-02  0.00D+00 EMaxC= 1.00D-01 BMatC= 6.95D-02 BMatP= 4.42D-01
 IDIUse=3 WtCom= 8.03D-01 WtEn= 1.97D-01
 Coeff-Com:  0.255D+00 0.745D+00
 Coeff-En:   0.000D+00 0.100D+01
 Coeff:      0.205D+00 0.795D+00
 Gap=     0.642 Goal=   None    Shift=    0.000
 RMSDP=1.71D-03 MaxDP=3.19D-02 DE=-3.73D-01 OVMax= 4.57D-02

 Cycle   3  Pass 0  IDiag  1:
 RMSU=  8.68D-04    CP:  9.60D-01  7.14D-01
 E= -235.754402885682     Delta-E=       -0.066502556729 Rises=F Damp=F
 DIIS: error= 3.90D-03 at cycle   3 NSaved=   3.
 NSaved= 3 IEnMin= 3 EnMin= -235.754402885682     IErMin= 3 ErrMin= 3.90D-03
 ErrMax= 3.90D-03  0.00D+00 EMaxC= 1.00D-01 BMatC= 1.45D-03 BMatP= 6.95D-02
 IDIUse=3 WtCom= 9.61D-01 WtEn= 3.90D-02
 Coeff-Com: -0.291D-01 0.573D-01 0.972D+00
 Coeff-En:   0.000D+00 0.000D+00 0.100D+01
 Coeff:     -0.279D-01 0.550D-01 0.973D+00
 Gap=     0.618 Goal=   None    Shift=    0.000
 RMSDP=2.60D-04 MaxDP=5.68D-03 DE=-6.65D-02 OVMax= 7.99D-03

 Cycle   4  Pass 0  IDiag  1:
 RMSU=  1.28D-04    CP:  9.58D-01  7.57D-01  1.06D+00
 E= -235.756170211337     Delta-E=       -0.001767325655 Rises=F Damp=F
 DIIS: error= 5.22D-04 at cycle   4 NSaved=   4.
 NSaved= 4 IEnMin= 4 EnMin= -235.756170211337     IErMin= 4 ErrMin= 5.22D-04
 ErrMax= 5.22D-04  0.00D+00 EMaxC= 1.00D-01 BMatC= 3.42D-05 BMatP= 1.45D-03
 IDIUse=3 WtCom= 9.95D-01 WtEn= 5.22D-03
 Coeff-Com: -0.173D-02-0.188D-01-0.593D-01 0.108D+01
 Coeff-En:   0.000D+00 0.000D+00 0.000D+00 0.100D+01
 Coeff:     -0.172D-02-0.187D-01-0.590D-01 0.108D+01
 Gap=     0.620 Goal=   None    Shift=    0.000
 RMSDP=7.05D-05 MaxDP=1.07D-03 DE=-1.77D-03 OVMax= 1.93D-03

 Cycle   5  Pass 0  IDiag  1:
 RMSU=  4.21D-05    CP:  9.58D-01  7.57D-01  1.11D+00  1.25D+00
 E= -235.756229008560     Delta-E=       -0.000058797223 Rises=F Damp=F
 DIIS: error= 1.81D-04 at cycle   5 NSaved=   5.
 NSaved= 5 IEnMin= 5 EnMin= -235.756229008560     IErMin= 5 ErrMin= 1.81D-04
 ErrMax= 1.81D-04  0.00D+00 EMaxC= 1.00D-01 BMatC= 3.76D-06 BMatP= 3.42D-05
 IDIUse=3 WtCom= 9.98D-01 WtEn= 1.81D-03
 Coeff-Com:  0.200D-02-0.809D-02-0.850D-01 0.174D+00 0.917D+00
 Coeff-En:   0.000D+00 0.000D+00 0.000D+00 0.000D+00 0.100D+01
 Coeff:      0.199D-02-0.808D-02-0.849D-01 0.174D+00 0.917D+00
 Gap=     0.620 Goal=   None    Shift=    0.000
 RMSDP=2.03D-05 MaxDP=3.68D-04 DE=-5.88D-05 OVMax= 6.13D-04

 Cycle   6  Pass 0  IDiag  1:
 RMSU=  8.43D-06    CP:  9.58D-01  7.58D-01  1.12D+00  1.37D+00  1.06D+00
 E= -235.756234448163     Delta-E=       -0.000005439603 Rises=F Damp=F
 DIIS: error= 2.12D-05 at cycle   6 NSaved=   6.
 NSaved= 6 IEnMin= 6 EnMin= -235.756234448163     IErMin= 6 ErrMin= 2.12D-05
 ErrMax= 2.12D-05  0.00D+00 EMaxC= 1.00D-01 BMatC= 8.09D-08 BMatP= 3.76D-06
 IDIUse=1 WtCom= 1.00D+00 WtEn= 0.00D+00
 Coeff-Com:  0.247D-03-0.128D-03-0.515D-02-0.315D-01 0.658D-01 0.971D+00
 Coeff:      0.247D-03-0.128D-03-0.515D-02-0.315D-01 0.658D-01 0.971D+00
 Gap=     0.620 Goal=   None    Shift=    0.000
 RMSDP=4.42D-06 MaxDP=7.25D-05 DE=-5.44D-06 OVMax= 1.13D-04

 Initial convergence to 1.0D-05 achieved.  Increase integral accuracy.
 Cycle   7  Pass 1  IDiag  1:
 E= -235.756235896163     Delta-E=       -0.000001447999 Rises=F Damp=F
 DIIS: error= 1.20D-05 at cycle   1 NSaved=   1.
 NSaved= 1 IEnMin= 1 EnMin= -235.756235896163     IErMin= 1 ErrMin= 1.20D-05
 ErrMax= 1.20D-05  0.00D+00 EMaxC= 1.00D-01 BMatC= 8.28D-09 BMatP= 8.28D-09
 IDIUse=1 WtCom= 1.00D+00 WtEn= 0.00D+00
 Coeff-Com:  0.100D+01
 Coeff:      0.100D+01
 Gap=     0.620 Goal=   None    Shift=    0.000
 RMSDP=4.42D-06 MaxDP=7.25D-05 DE=-1.45D-06 OVMax= 2.00D-05

 Cycle   8  Pass 1  IDiag  1:
 RMSU=  1.21D-06    CP:  1.00D+00
 E= -235.756235902983     Delta-E=       -0.000000006821 Rises=F Damp=F
 DIIS: error= 1.72D-06 at cycle   2 NSaved=   2.
 NSaved= 2 IEnMin= 2 EnMin= -235.756235902983     IErMin= 2 ErrMin= 1.72D-06
 ErrMax= 1.72D-06  0.00D+00 EMaxC= 1.00D-01 BMatC= 4.87D-10 BMatP= 8.28D-09
 IDIUse=1 WtCom= 1.00D+00 WtEn= 0.00D+00
 Coeff-Com:  0.466D-01 0.953D+00
 Coeff:      0.466D-01 0.953D+00
 Gap=     0.620 Goal=   None    Shift=    0.000
 RMSDP=2.86D-07 MaxDP=4.69D-06 DE=-6.82D-09 OVMax= 8.36D-06

 Cycle   9  Pass 1  IDiag  1:
 RMSU=  2.26D-07    CP:  1.00D+00  1.14D+00
 E= -235.756235903737     Delta-E=       -0.000000000754 Rises=F Damp=F
 DIIS: error= 6.45D-07 at cycle   3 NSaved=   3.
 NSaved= 3 IEnMin= 3 EnMin= -235.756235903737     IErMin= 3 ErrMin= 6.45D-07
 ErrMax= 6.45D-07  0.00D+00 EMaxC= 1.00D-01 BMatC= 8.72D-11 BMatP= 4.87D-10
 IDIUse=1 WtCom= 1.00D+00 WtEn= 0.00D+00
 Coeff-Com: -0.478D-01 0.163D+00 0.885D+00
 Coeff:     -0.478D-01 0.163D+00 0.885D+00
 Gap=     0.620 Goal=   None    Shift=    0.000
 RMSDP=1.19D-07 MaxDP=1.79D-06 DE=-7.54D-10 OVMax= 2.94D-06

 Cycle  10  Pass 1  IDiag  1:
 RMSU=  6.94D-08    CP:  1.00D+00  1.22D+00  1.19D+00
 E= -235.756235903876     Delta-E=       -0.000000000139 Rises=F Damp=F
 DIIS: error= 2.40D-07 at cycle   4 NSaved=   4.
 NSaved= 4 IEnMin= 4 EnMin= -235.756235903876     IErMin= 4 ErrMin= 2.40D-07
 ErrMax= 2.40D-07  0.00D+00 EMaxC= 1.00D-01 BMatC= 6.77D-12 BMatP= 8.72D-11
 IDIUse=1 WtCom= 1.00D+00 WtEn= 0.00D+00
 Coeff-Com:  0.447D-02-0.138D+00-0.183D+00 0.132D+01
 Coeff:      0.447D-02-0.138D+00-0.183D+00 0.132D+01
 Gap=     0.620 Goal=   None    Shift=    0.000
 RMSDP=6.66D-08 MaxDP=1.05D-06 DE=-1.39D-10 OVMax= 1.96D-06

 Cycle  11  Pass 1  IDiag  1:
 RMSU=  1.02D-08    CP:  1.00D+00  1.25D+00  1.39D+00  1.36D+00
 E= -235.756235903896     Delta-E=       -0.000000000019 Rises=F Damp=F
 DIIS: error= 2.43D-08 at cycle   5 NSaved=   5.
 NSaved= 5 IEnMin= 5 EnMin= -235.756235903896     IErMin= 5 ErrMin= 2.43D-08
 ErrMax= 2.43D-08  0.00D+00 EMaxC= 1.00D-01 BMatC= 1.27D-13 BMatP= 6.77D-12
 IDIUse=1 WtCom= 1.00D+00 WtEn= 0.00D+00
 Coeff-Com:  0.106D-02-0.594D-02-0.202D-01 0.306D-01 0.994D+00
 Coeff:      0.106D-02-0.594D-02-0.202D-01 0.306D-01 0.994D+00
 Gap=     0.620 Goal=   None    Shift=    0.000
 RMSDP=4.07D-09 MaxDP=8.67D-08 DE=-1.94D-11 OVMax= 1.22D-07

 SCF Done:  E(RHF) =  -235.756235904     A.U. after   11 cycles
            NFock= 11  Conv=0.41D-08     -V/T= 2.0002
 KE= 2.357051911315D+02 PE=-1.039527455599D+03 EE= 3.228233743226D+02
 Leave Link  502 at Mon Mar 23 14:19:04 2020, MaxMem=   134217728 cpu:              13.6 elap:               1.7
 (Enter /home/soft/g16/l601.exe)
 Copying SCF densities to generalized density rwf, IOpCl= 0 IROHF=0.

 **********************************************************************

            Population analysis using the SCF density.

 **********************************************************************

 Alpha  occ. eigenvalues --  -11.19701 -11.19240 -11.19172 -11.18647 -11.18354
 Alpha  occ. eigenvalues --  -11.13973  -1.07029  -1.01629  -0.93731  -0.84560
 Alpha  occ. eigenvalues --   -0.78434  -0.77273  -0.64591  -0.60045  -0.57502
 Alpha  occ. eigenvalues --   -0.54645  -0.54133  -0.50248  -0.48835  -0.47665
 Alpha  occ. eigenvalues --   -0.46402  -0.45818  -0.45305  -0.43834  -0.38012
 Alpha virt. eigenvalues --    0.23972   0.26078   0.28475   0.29284   0.30019
 Alpha virt. eigenvalues --    0.33501   0.33611   0.35489   0.35566   0.36239
 Alpha virt. eigenvalues --    0.36446   0.38545   0.39399   0.39656   0.41031
 Alpha virt. eigenvalues --    0.42349   0.47017   0.48131   0.49121   0.69565
 Alpha virt. eigenvalues --    0.72231   0.74457   0.75387   0.77584   0.77964
 Alpha virt. eigenvalues --    0.80285   0.85417   0.85886   0.89835   0.95489
 Alpha virt. eigenvalues --    0.97877   1.00286   1.00944   1.03774   1.09199
 Alpha virt. eigenvalues --    1.09479   1.12385   1.16513   1.16559   1.18990
 Alpha virt. eigenvalues --    1.20609   1.20682   1.21955   1.22395   1.22564
 Alpha virt. eigenvalues --    1.23224   1.23835   1.25698   1.26349   1.26760
 Alpha virt. eigenvalues --    1.34892   1.38585   1.56125   1.57282   1.59085
 Alpha virt. eigenvalues --    1.67857   1.69158   1.73676   1.81306   1.82573
 Alpha virt. eigenvalues --    1.88635   1.97672   1.98408   2.01025   2.02200
 Alpha virt. eigenvalues --    2.02932   2.12470   2.16195   2.20274   2.21581
 Alpha virt. eigenvalues --    2.23577   2.28463   2.32300   2.36918   2.42052
 Alpha virt. eigenvalues --    2.42724   2.43884   2.45158   2.45973   2.47180
 Alpha virt. eigenvalues --    2.52025   2.53506   2.53772   2.57763   2.57943
 Alpha virt. eigenvalues --    2.59932   2.62949   2.65318   2.65591   2.67397
 Alpha virt. eigenvalues --    2.67943   2.73162   2.79250   2.79474   2.83108
 Alpha virt. eigenvalues --    2.88038   2.90581   2.98669   3.03095   3.03681
 Alpha virt. eigenvalues --    3.05772   3.06874   3.12026   3.15252   3.18012
 Alpha virt. eigenvalues --    3.18821   3.24301   3.27530   3.27996   3.30002
 Alpha virt. eigenvalues --    3.31047   3.33340   3.33888   3.36432   3.38387
 Alpha virt. eigenvalues --    3.64326   3.68710   3.71591   3.73790   3.74677
 Alpha virt. eigenvalues --    3.78719   3.81200   3.85879   3.90870   3.93249
 Alpha virt. eigenvalues --    3.99246   4.02503   4.03324   4.09654
          Condensed to atoms (all electrons):
               1          2          3          4          5          6
     1  C    4.919172   0.347305  -0.063430   0.005159  -0.000144   0.000001
     2  C    0.347305   4.959887   0.355333  -0.058763   0.005150  -0.000153
     3  C   -0.063430   0.355333   4.990711   0.349456  -0.059441   0.005451
     4  C    0.005159  -0.058763   0.349456   4.990157   0.345453  -0.065137
     5  C   -0.000144   0.005150  -0.059441   0.345453   4.992987   0.331522
     6  C    0.000001  -0.000153   0.005451  -0.065137   0.331522   5.048329
     7  H    0.404746  -0.040391  -0.005033  -0.000060  -0.000001  -0.000000
     8  H    0.404766  -0.040418  -0.005065  -0.000059  -0.000001  -0.000000
     9  H    0.403705  -0.039320   0.005192  -0.000139   0.000002  -0.000000
    10  H   -0.041070   0.411502  -0.042740  -0.004084  -0.000054  -0.000001
    11  H   -0.041062   0.411498  -0.042745  -0.004084  -0.000054  -0.000001
    12  H   -0.003919  -0.041949   0.408656  -0.040582  -0.004232  -0.000049
    13  H   -0.003931  -0.041931   0.408652  -0.040574  -0.004234  -0.000049
    14  H   -0.000043  -0.004267  -0.042672   0.410332  -0.040772  -0.003483
    15  H   -0.000044  -0.004268  -0.042672   0.410332  -0.040770  -0.003483
    16  H    0.000000  -0.000061  -0.004299  -0.045177   0.408193  -0.042330
    17  H    0.000000  -0.000061  -0.004300  -0.045178   0.408194  -0.042329
    18  H   -0.000000  -0.000001  -0.000038  -0.006221  -0.045229   0.400890
    19  H   -0.000000  -0.000001  -0.000038  -0.006221  -0.045229   0.400890
    20  H   -0.000000   0.000001  -0.000123   0.004476  -0.034055   0.403319
               7          8          9         10         11         12
     1  C    0.404746   0.404766   0.403705  -0.041070  -0.041062  -0.003919
     2  C   -0.040391  -0.040418  -0.039320   0.411502   0.411498  -0.041949
     3  C   -0.005033  -0.005065   0.005192  -0.042740  -0.042745   0.408656
     4  C   -0.000060  -0.000059  -0.000139  -0.004084  -0.004084  -0.040582
     5  C   -0.000001  -0.000001   0.000002  -0.000054  -0.000054  -0.004232
     6  C   -0.000000  -0.000000  -0.000000  -0.000001  -0.000001  -0.000049
     7  H    0.589472  -0.030924  -0.029233   0.004705  -0.003383   0.002427
     8  H   -0.030924   0.589498  -0.029246  -0.003350   0.004706   0.000166
     9  H   -0.029233  -0.029246   0.588542  -0.002909  -0.002879  -0.000042
    10  H    0.004705  -0.003350  -0.002909   0.598271  -0.031430   0.004730
    11  H   -0.003383   0.004706  -0.002879  -0.031430   0.598265  -0.003143
    12  H    0.002427   0.000166  -0.000042   0.004730  -0.003143   0.602782
    13  H    0.000166   0.002433  -0.000042  -0.003148   0.004729  -0.031895
    14  H   -0.000003   0.000015   0.000001   0.001967   0.000257   0.004659
    15  H    0.000015  -0.000003   0.000001   0.000257   0.001967  -0.002984
    16  H   -0.000002   0.000001   0.000000  -0.000005   0.000019   0.001959
    17  H    0.000001  -0.000002   0.000000   0.000019  -0.000005   0.000302
    18  H   -0.000000   0.000000   0.000000  -0.000002   0.000001  -0.000002
    19  H    0.000000  -0.000000   0.000000   0.000001  -0.000002   0.000016
    20  H   -0.000000  -0.000000   0.000000   0.000000   0.000000   0.000001
              13         14         15         16         17         18
     1  C   -0.003931  -0.000043  -0.000044   0.000000   0.000000  -0.000000
     2  C   -0.041931  -0.004267  -0.004268  -0.000061  -0.000061  -0.000001
     3  C    0.408652  -0.042672  -0.042672  -0.004299  -0.004300  -0.000038
     4  C   -0.040574   0.410332   0.410332  -0.045177  -0.045178  -0.006221
     5  C   -0.004234  -0.040772  -0.040770   0.408193   0.408194  -0.045229
     6  C   -0.000049  -0.003483  -0.003483  -0.042330  -0.042329   0.400890
     7  H    0.000166  -0.000003   0.000015  -0.000002   0.000001  -0.000000
     8  H    0.002433   0.000015  -0.000003   0.000001  -0.000002   0.000000
     9  H   -0.000042   0.000001   0.000001   0.000000   0.000000   0.000000
    10  H   -0.003148   0.001967   0.000257  -0.000005   0.000019  -0.000002
    11  H    0.004729   0.000257   0.001967   0.000019  -0.000005   0.000001
    12  H   -0.031895   0.004659  -0.002984   0.001959   0.000302  -0.000002
    13  H    0.602770  -0.002983   0.004659   0.000302   0.001960   0.000016
    14  H   -0.002983   0.600510  -0.031108   0.004895  -0.003231   0.002669
    15  H    0.004659  -0.031108   0.600510  -0.003231   0.004895   0.000153
    16  H    0.000302   0.004895  -0.003231   0.633426  -0.035986   0.005255
    17  H    0.001960  -0.003231   0.004895  -0.035986   0.633427  -0.003798
    18  H    0.000016   0.002669   0.000153   0.005255  -0.003798   0.632488
    19  H   -0.000002   0.000154   0.002669  -0.003798   0.005255  -0.034150
    20  H    0.000001  -0.000037  -0.000037  -0.002322  -0.002322  -0.019387
              19         20
     1  C   -0.000000  -0.000000
     2  C   -0.000001   0.000001
     3  C   -0.000038  -0.000123
     4  C   -0.006221   0.004476
     5  C   -0.045229  -0.034055
     6  C    0.400890   0.403319
     7  H    0.000000  -0.000000
     8  H   -0.000000  -0.000000
     9  H    0.000000   0.000000
    10  H    0.000001   0.000000
    11  H   -0.000002   0.000000
    12  H    0.000016   0.000001
    13  H   -0.000002   0.000001
    14  H    0.000154  -0.000037
    15  H    0.002669  -0.000037
    16  H   -0.003798  -0.002322
    17  H    0.005255  -0.002322
    18  H   -0.034150  -0.019387
    19  H    0.632489  -0.019387
    20  H   -0.019387   0.308520
 Mulliken charges:
               1
     1  C   -0.331213
     2  C   -0.219092
     3  C   -0.210855
     4  C   -0.199084
     5  C   -0.217283
     6  C   -0.433387
     7  H    0.107500
     8  H    0.107483
     9  H    0.106367
    10  H    0.107343
    11  H    0.107348
    12  H    0.103099
    13  H    0.103103
    14  H    0.103141
    15  H    0.103140
    16  H    0.083161
    17  H    0.083161
    18  H    0.067357
    19  H    0.067357
    20  H    0.361354
 Sum of Mulliken charges =  -0.00000
 Mulliken charges with hydrogens summed into heavy atoms:
               1
     1  C   -0.009864
     2  C   -0.004401
     3  C   -0.004652
     4  C    0.007197
     5  C   -0.050961
     6  C    0.062680
 Electronic spatial extent (au):  <R**2>=           6690.3878
 Charge=             -0.0000 electrons
 Dipole moment (field-independent basis, Debye):
    X=              1.4132    Y=              0.3064    Z=             -0.5266  Tot=              1.5390
 Quadrupole moment (field-independent basis, Debye-Ang):
   XX=            -51.9074   YY=            -41.4688   ZZ=            -41.2493
   XY=              0.1652   XZ=             -0.9696   YZ=              0.0835
 Traceless Quadrupole moment (field-independent basis, Debye-Ang):
   XX=             -7.0323   YY=              3.4064   ZZ=              3.6259
   XY=              0.1652   XZ=             -0.9696   YZ=              0.0835
 Octapole moment (field-independent basis, Debye-Ang**2):
  XXX=            751.9204  YYY=            -50.7757  ZZZ=            146.4313  XYY=            228.7429
  XXY=            -16.7081  XXZ=             53.7742  XZZ=            238.2139  YZZ=            -16.3244
  YYZ=             48.7684  XYZ=             -7.7346
 Hexadecapole moment (field-independent basis, Debye-Ang**3):
 XXXX=          -8786.2082 YYYY=           -258.4112 ZZZZ=           -837.3816 XXXY=            105.4289
 XXXZ=           -542.9062 YYYX=            131.2654 YYYZ=            176.3466 ZZZX=           -578.6987
 ZZZY=            180.5667 XXYY=          -1433.1602 XXZZ=          -1591.0265 YYZZ=           -184.5069
 XXYZ=            110.6160 YYXZ=           -188.4831 ZZXY=             58.7045
 N-N= 2.452426542413D+02 E-N=-1.039527453246D+03  KE= 2.357051911315D+02
 No NMR shielding tensors so no spin-rotation constants.
 Leave Link  601 at Mon Mar 23 14:19:04 2020, MaxMem=   134217728 cpu:               0.8 elap:               0.1
 (Enter /home/soft/g16/l607.exe)
 ******************************Gaussian NBO Version 3.1******************************
             N A T U R A L   A T O M I C   O R B I T A L   A N D
          N A T U R A L   B O N D   O R B I T A L   A N A L Y S I S
 ******************************Gaussian NBO Version 3.1******************************
       /RESON  / : Allow strongly delocalized NBO set

 Analyzing the SCF density

 Job title: Atom number=20                                                  

 Storage needed:     72522 in NPA ( 134215528 available)
 GSVD:  LWork=       12772 too small for GESVD, short by        8468 words or        8468 for optimal perf.


 NATURAL POPULATIONS:  Natural atomic orbital occupancies 
                                                          
   NAO  Atom  No  lang   Type(AO)    Occupancy      Energy
 ----------------------------------------------------------
     1    C    1  S      Cor( 1S)     1.99942     -11.05016
     2    C    1  S      Val( 2S)     1.08577      -0.23171
     3    C    1  S      Ryd( 3S)     0.00039       1.52451
     4    C    1  px     Val( 2p)     1.21141      -0.03787
     5    C    1  px     Ryd( 3p)     0.00263       0.93976
     6    C    1  py     Val( 2p)     1.19308      -0.03493
     7    C    1  py     Ryd( 3p)     0.00122       0.83994
     8    C    1  pz     Val( 2p)     1.13014      -0.02617
     9    C    1  pz     Ryd( 3p)     0.00101       0.79372
    10    C    1  dxy    Ryd( 3d)     0.00056       2.56539
    11    C    1  dxz    Ryd( 3d)     0.00058       2.51107
    12    C    1  dyz    Ryd( 3d)     0.00109       2.64773
    13    C    1  dx2y2  Ryd( 3d)     0.00153       2.89873
    14    C    1  dz2    Ryd( 3d)     0.00131       2.72642

    15    C    2  S      Cor( 1S)     1.99933     -11.05128
    16    C    2  S      Val( 2S)     1.02720      -0.20486
    17    C    2  S      Ryd( 3S)     0.00079       1.64165
    18    C    2  px     Val( 2p)     1.06381      -0.01214
    19    C    2  px     Ryd( 3p)     0.00152       0.83608
    20    C    2  py     Val( 2p)     1.18951      -0.02685
    21    C    2  py     Ryd( 3p)     0.00285       1.01753
    22    C    2  pz     Val( 2p)     1.12308      -0.02014
    23    C    2  pz     Ryd( 3p)     0.00219       0.96307
    24    C    2  dxy    Ryd( 3d)     0.00074       2.54147
    25    C    2  dxz    Ryd( 3d)     0.00078       2.48501
    26    C    2  dyz    Ryd( 3d)     0.00118       2.66812
    27    C    2  dx2y2  Ryd( 3d)     0.00160       2.73100
    28    C    2  dz2    Ryd( 3d)     0.00139       2.69852

    29    C    3  S      Cor( 1S)     1.99931     -11.04329
    30    C    3  S      Val( 2S)     1.02340      -0.19796
    31    C    3  S      Ryd( 3S)     0.00107       1.66035
    32    C    3  px     Val( 2p)     1.05884      -0.00938
    33    C    3  px     Ryd( 3p)     0.00269       0.97412
    34    C    3  py     Val( 2p)     1.19172      -0.02535
    35    C    3  py     Ryd( 3p)     0.00320       1.05823
    36    C    3  pz     Val( 2p)     1.13353      -0.01900
    37    C    3  pz     Ryd( 3p)     0.00255       0.96702
    38    C    3  dxy    Ryd( 3d)     0.00072       2.55099
    39    C    3  dxz    Ryd( 3d)     0.00075       2.49861
    40    C    3  dyz    Ryd( 3d)     0.00117       2.67669
    41    C    3  dx2y2  Ryd( 3d)     0.00164       2.73967
    42    C    3  dz2    Ryd( 3d)     0.00144       2.70593

    43    C    4  S      Cor( 1S)     1.99931     -11.03782
    44    C    4  S      Val( 2S)     1.02338      -0.19249
    45    C    4  S      Ryd( 3S)     0.00120       1.66448
    46    C    4  px     Val( 2p)     1.07042      -0.00733
    47    C    4  px     Ryd( 3p)     0.00285       0.97718
    48    C    4  py     Val( 2p)     1.18812      -0.01883
    49    C    4  py     Ryd( 3p)     0.00329       1.06212
    50    C    4  pz     Val( 2p)     1.12043      -0.00928
    51    C    4  pz     Ryd( 3p)     0.00250       0.97247
    52    C    4  dxy    Ryd( 3d)     0.00077       2.55618
    53    C    4  dxz    Ryd( 3d)     0.00080       2.50399
    54    C    4  dyz    Ryd( 3d)     0.00117       2.68215
    55    C    4  dx2y2  Ryd( 3d)     0.00158       2.74522
    56    C    4  dz2    Ryd( 3d)     0.00139       2.71157

    57    C    5  S      Cor( 1S)     1.99934     -11.03729
    58    C    5  S      Val( 2S)     1.02540      -0.19028
    59    C    5  S      Ryd( 3S)     0.00078       1.65217
    60    C    5  px     Val( 2p)     1.05578       0.00116
    61    C    5  px     Ryd( 3p)     0.00114       0.84404
    62    C    5  py     Val( 2p)     1.18531      -0.01289
    63    C    5  py     Ryd( 3p)     0.00261       1.02975
    64    C    5  pz     Val( 2p)     1.14010      -0.01204
    65    C    5  pz     Ryd( 3p)     0.00219       0.97336
    66    C    5  dxy    Ryd( 3d)     0.00072       2.55516
    67    C    5  dxz    Ryd( 3d)     0.00076       2.49929
    68    C    5  dyz    Ryd( 3d)     0.00115       2.68283
    69    C    5  dx2y2  Ryd( 3d)     0.00164       2.74376
    70    C    5  dz2    Ryd( 3d)     0.00146       2.71234

    71    C    6  S      Cor( 1S)     1.99940     -10.99347
    72    C    6  S      Val( 2S)     1.10686      -0.20898
    73    C    6  S      Ryd( 3S)     0.00053       1.55959
    74    C    6  px     Val( 2p)     1.38306      -0.05741
    75    C    6  px     Ryd( 3p)     0.00321       0.97723
    76    C    6  py     Val( 2p)     1.16322       0.01263
    77    C    6  py     Ryd( 3p)     0.00158       0.87086
    78    C    6  pz     Val( 2p)     1.09061       0.02511
    79    C    6  pz     Ryd( 3p)     0.00213       0.83181
    80    C    6  dxy    Ryd( 3d)     0.00067       2.61158
    81    C    6  dxz    Ryd( 3d)     0.00068       2.55646
    82    C    6  dyz    Ryd( 3d)     0.00103       2.69163
    83    C    6  dx2y2  Ryd( 3d)     0.00124       2.94670
    84    C    6  dz2    Ryd( 3d)     0.00112       2.77119

    85    H    7  S      Val( 1S)     0.78999       0.19927
    86    H    7  S      Ryd( 2S)     0.00120       0.83704
    87    H    7  px     Ryd( 2p)     0.00012       2.77068
    88    H    7  py     Ryd( 2p)     0.00067       3.32674
    89    H    7  pz     Ryd( 2p)     0.00004       2.63828

    90    H    8  S      Val( 1S)     0.79000       0.19926
    91    H    8  S      Ryd( 2S)     0.00120       0.83717
    92    H    8  px     Ryd( 2p)     0.00012       2.77051
    93    H    8  py     Ryd( 2p)     0.00020       2.81418
    94    H    8  pz     Ryd( 2p)     0.00051       3.15075

    95    H    9  S      Val( 1S)     0.78705       0.20550
    96    H    9  S      Ryd( 2S)     0.00101       0.81999
    97    H    9  px     Ryd( 2p)     0.00074       3.40773
    98    H    9  py     Ryd( 2p)     0.00004       2.67766
    99    H    9  pz     Ryd( 2p)     0.00005       2.65288

   100    H   10  S      Val( 1S)     0.78896       0.21112
   101    H   10  S      Ryd( 2S)     0.00171       0.83550
   102    H   10  px     Ryd( 2p)     0.00012       2.76325
   103    H   10  py     Ryd( 2p)     0.00069       3.32817
   104    H   10  pz     Ryd( 2p)     0.00004       2.73370

   105    H   11  S      Val( 1S)     0.78895       0.21112
   106    H   11  S      Ryd( 2S)     0.00171       0.83550
   107    H   11  px     Ryd( 2p)     0.00012       2.76169
   108    H   11  py     Ryd( 2p)     0.00020       2.87917
   109    H   11  pz     Ryd( 2p)     0.00052       3.18414

   110    H   12  S      Val( 1S)     0.79141       0.20919
   111    H   12  S      Ryd( 2S)     0.00175       0.84855
   112    H   12  px     Ryd( 2p)     0.00012       2.81792
   113    H   12  py     Ryd( 2p)     0.00068       3.33974
   114    H   12  pz     Ryd( 2p)     0.00003       2.73261

   115    H   13  S      Val( 1S)     0.79141       0.20919
   116    H   13  S      Ryd( 2S)     0.00175       0.84860
   117    H   13  px     Ryd( 2p)     0.00012       2.81659
   118    H   13  py     Ryd( 2p)     0.00021       2.88410
   119    H   13  pz     Ryd( 2p)     0.00051       3.18963

   120    H   14  S      Val( 1S)     0.79060       0.21514
   121    H   14  S      Ryd( 2S)     0.00172       0.85330
   122    H   14  px     Ryd( 2p)     0.00011       2.82352
   123    H   14  py     Ryd( 2p)     0.00069       3.34496
   124    H   14  pz     Ryd( 2p)     0.00004       2.73831

   125    H   15  S      Val( 1S)     0.79060       0.21514
   126    H   15  S      Ryd( 2S)     0.00172       0.85330
   127    H   15  px     Ryd( 2p)     0.00011       2.82211
   128    H   15  py     Ryd( 2p)     0.00020       2.88965
   129    H   15  pz     Ryd( 2p)     0.00053       3.19504

   130    H   16  S      Val( 1S)     0.80242       0.20691
   131    H   16  S      Ryd( 2S)     0.00177       0.84280
   132    H   16  px     Ryd( 2p)     0.00012       2.76962
   133    H   16  py     Ryd( 2p)     0.00069       3.33531
   134    H   16  pz     Ryd( 2p)     0.00004       2.74119

   135    H   17  S      Val( 1S)     0.80242       0.20691
   136    H   17  S      Ryd( 2S)     0.00177       0.84280
   137    H   17  px     Ryd( 2p)     0.00012       2.76807
   138    H   17  py     Ryd( 2p)     0.00022       2.88652
   139    H   17  pz     Ryd( 2p)     0.00051       3.19153

   140    H   18  S      Val( 1S)     0.81338       0.20794
   141    H   18  S      Ryd( 2S)     0.00116       0.87278
   142    H   18  px     Ryd( 2p)     0.00012       2.80359
   143    H   18  py     Ryd( 2p)     0.00065       3.35653
   144    H   18  pz     Ryd( 2p)     0.00005       2.66841

   145    H   19  S      Val( 1S)     0.81338       0.20794
   146    H   19  S      Ryd( 2S)     0.00116       0.87279
   147    H   19  px     Ryd( 2p)     0.00012       2.80218
   148    H   19  py     Ryd( 2p)     0.00019       2.84561
   149    H   19  pz     Ryd( 2p)     0.00051       3.18074

   150    H   20  S      Val( 1S)     0.56654       0.48451
   151    H   20  S      Ryd( 2S)     0.00033       0.94073
   152    H   20  px     Ryd( 2p)     0.00291       3.72694
   153    H   20  py     Ryd( 2p)     0.00002       2.82215
   154    H   20  pz     Ryd( 2p)     0.00005       2.80275


 Summary of Natural Population Analysis:                  
                                                          
                                       Natural Population 
                Natural  -----------------------------------------------
    Atom  No    Charge         Core      Valence    Rydberg      Total
 -----------------------------------------------------------------------
      C    1   -0.63014      1.99942     4.62040    0.01032     6.63014
      C    2   -0.41599      1.99933     4.40361    0.01306     6.41599
      C    3   -0.42204      1.99931     4.40749    0.01524     6.42204
      C    4   -0.41724      1.99931     4.40236    0.01556     6.41724
      C    5   -0.41838      1.99934     4.40659    0.01245     6.41838
      C    6   -0.75532      1.99940     4.74374    0.01218     6.75532
      H    7    0.20799      0.00000     0.78999    0.00202     0.79201
      H    8    0.20798      0.00000     0.79000    0.00202     0.79202
      H    9    0.21111      0.00000     0.78705    0.00184     0.78889
      H   10    0.20849      0.00000     0.78896    0.00255     0.79151
      H   11    0.20850      0.00000     0.78895    0.00255     0.79150
      H   12    0.20601      0.00000     0.79141    0.00258     0.79399
      H   13    0.20601      0.00000     0.79141    0.00258     0.79399
      H   14    0.20684      0.00000     0.79060    0.00256     0.79316
      H   15    0.20684      0.00000     0.79060    0.00256     0.79316
      H   16    0.19496      0.00000     0.80242    0.00262     0.80504
      H   17    0.19495      0.00000     0.80242    0.00262     0.80505
      H   18    0.18464      0.00000     0.81338    0.00198     0.81536
      H   19    0.18464      0.00000     0.81338    0.00198     0.81536
      H   20    0.43016      0.00000     0.56654    0.00331     0.56984
 =======================================================================
   * Total *   -0.00000     11.99611    37.89131    0.11259    50.00000

                                 Natural Population      
 --------------------------------------------------------
   Core                      11.99611 ( 99.9675% of  12)
   Valence                   37.89131 ( 99.7140% of  38)
   Natural Minimal Basis     49.88741 ( 99.7748% of  50)
   Natural Rydberg Basis      0.11259 (  0.2252% of  50)
 --------------------------------------------------------

    Atom  No          Natural Electron Configuration
 ----------------------------------------------------------------------------
      C    1      [core]2S( 1.09)2p( 3.53)3d( 0.01)
      C    2      [core]2S( 1.03)2p( 3.38)3p( 0.01)3d( 0.01)
      C    3      [core]2S( 1.02)2p( 3.38)3p( 0.01)3d( 0.01)
      C    4      [core]2S( 1.02)2p( 3.38)3p( 0.01)3d( 0.01)
      C    5      [core]2S( 1.03)2p( 3.38)3p( 0.01)3d( 0.01)
      C    6      [core]2S( 1.11)2p( 3.64)3p( 0.01)
      H    7            1S( 0.79)
      H    8            1S( 0.79)
      H    9            1S( 0.79)
      H   10            1S( 0.79)
      H   11            1S( 0.79)
      H   12            1S( 0.79)
      H   13            1S( 0.79)
      H   14            1S( 0.79)
      H   15            1S( 0.79)
      H   16            1S( 0.80)
      H   17            1S( 0.80)
      H   18            1S( 0.81)
      H   19            1S( 0.81)
      H   20            1S( 0.57)


 NBO analysis skipped by request.
 Leave Link  607 at Mon Mar 23 14:19:04 2020, MaxMem=   134217728 cpu:               1.0 elap:               0.1
 (Enter /home/soft/g16/l9999.exe)

 Test job not archived.
 1\1\GINC-NODE09\SP\RHF\6-31G(d,p)\C6H14\ROOT\23-Mar-2020\0\\#p hf/6-31
 g** 5d pop=npa charge nosymm\\Atom number=20\\0,1\C,0,-7.76057171,-0.6
 9067984,0.7141873\C,0,-7.24722949,0.03527643,-0.54321767\C,0,-5.707232
 04,0.0376959,-0.5418104\C,0,-5.19388883,0.76318274,-1.79948587\C,0,-3.
 6538916,0.76570489,-1.79801945\C,0,-3.14054837,1.49117995,-3.05570171\
 H,0,-7.40391729,-1.69948984,0.7141873\H,0,-7.40389887,-0.18628165,1.58
 78388\H,0,-8.83057171,-0.69066666,0.7141873\H,0,-7.60548042,1.04352011
 ,-0.54419642\H,0,-7.60230413,-0.47025036,-1.41686787\H,0,-5.3489823,-0
 .97054777,-0.5404547\H,0,-5.35215751,0.54354861,0.33165117\H,0,-5.5522
 0656,1.77140219,-1.80088226\H,0,-5.54889583,0.25728268,-2.67294747\H,0
 ,-3.29557473,-0.24251485,-1.7966131\H,0,-3.29888438,1.27161321,-0.9245
 6273\H,0,-3.49886752,2.49939888,-3.05710842\H,0,-3.49555393,0.9852707,
 -3.92915857\H,0,-2.07055029,1.49293387,-3.05468197\\Version=ES64L-G16R
 evA.03\HF=-235.7562359\RMSD=4.068e-09\Dipole=0.5560099,0.1205495,-0.20
 71929\Quadrupole=-5.2283097,2.5325444,2.6957653,0.1228205,-0.720892,0.
 0621172\PG=C01 [X(C6H14)]\\@


 ACCORDING TO HEN3RY, LIFE IS MUCH LIKE A SEWER........
 YOU GET OUT OF IT JUST WHAT YOU PUT INTO IT...........
                         TOM LEHRER - (THE 3 IS SILENT)
 Job cpu time:       0 days  0 hours  0 minutes 23.1 seconds.
 Elapsed time:       0 days  0 hours  0 minutes  3.1 seconds.
 File lengths (MBytes):  RWF=     72 Int=      0 D2E=      0 Chk=      8 Scr=      8
 Normal termination of Gaussian 16 at Mon Mar 23 14:19:04 2020.
