#INFO: **** input file is /home/liwei01/wsr/dftpart/test_2body/c8h18/gfea_c8.py ****
from dftpart import gfea3
from pyscf import lib

par = 8
with lib.with_omp_threads(par):
    fr0 = gfea3.GFEA()
    fr0.inputstyle = 'frg'
    fr0.method = ['hf', '6-31gss','charge']
    fr0.gjfname = 'c8h18'
    fr0.output = 'c8h18'
    fr0.verbose = 9
    fr0.showinter = True
    fr0.kernel()

#INFO: ******************** input file end ********************


System: uname_result(system='Linux', node='master', release='3.10.0-693.el7.x86_64', version='#1 SMP Tue Aug 22 21:09:27 UTC 2017', machine='x86_64', processor='x86_64')  Threads 8
Python 3.6.4 |Anaconda, Inc.| (default, Jan 16 2018, 18:10:19) 
[GCC 7.2.0]
numpy 1.14.0  scipy 1.0.0
Date: Mon Mar 23 15:05:58 2020
PySCF version 1.6.1
PySCF path  /home/liwei01/zcheng/pyscf/pyscf
GIT HEAD      ref: refs/heads/master
GIT master branch  3adc7fd25839fe674469a52b764c3661e32d7318

[CONFIG] DEBUG = False
[CONFIG] MAX_MEMORY = 4000
[CONFIG] TMPDIR = .
[CONFIG] UNIT = angstrom
[CONFIG] VERBOSE = 3
[CONFIG] conf_file = None
[INPUT] verbose = 9
[INPUT] max_memory = 4000 
[INPUT] num. atoms = 20
[INPUT] num. electrons = 50
[INPUT] charge = 0
[INPUT] spin (= nelec alpha-beta = 2S) = 0
[INPUT] symmetry False subgroup None
[INPUT] Mole.unit = angstrom
[INPUT]  1 C     -5.707232040000   0.037695900000  -0.541810400000 AA  -10.785105484943   0.071234927019  -1.023873267441 Bohr
[INPUT]  2 C     -5.193888830000   0.763182740000  -1.799485870000 AA   -9.815027410138   1.442206361595  -3.400535459325 Bohr
[INPUT]  3 C     -3.653891600000   0.765704890000  -1.798019450000 AA   -6.904854412849   1.446972534340  -3.397764327141 Bohr
[INPUT]  4 C     -3.140548370000   1.491179950000  -3.055701710000 AA   -5.934776300249   2.817921707943  -5.774439350265 Bohr
[INPUT]  5 C     -1.600551140000   1.493704280000  -3.054234050000 AA   -3.024603302960   2.822692000291  -5.771665874821 Bohr
[INPUT]  6 C     -1.087207910000   2.219181520000  -4.311915050000 AA   -2.054525190361   4.193645293496  -8.148338516890 Bohr
[INPUT]  7 H     -6.777230270000   0.036014840000  -0.542788180000 AA  -12.807109093412   0.068058184020  -1.025721003851 Bohr
[INPUT]  8 H     -5.348982300000  -0.970547770000  -0.540454700000 AA  -10.108111592146  -1.834069476107  -1.021311365734 Bohr
[INPUT]  9 H     -5.352157510000   0.543548610000   0.331651170000 AA  -10.114111869434   1.027158008288   0.626729880192 Bohr
[INPUT] 10 H     -5.552206560000   1.771402190000  -1.800882260000 AA  -10.492149785414   3.347464995555  -3.403174253988 Bohr
[INPUT] 11 H     -5.548895830000   0.257282680000  -2.672947470000 AA  -10.485893412441   0.486193801794  -5.051138663649 Bohr
[INPUT] 12 H     -3.295574730000  -0.242514850000  -1.796613100000 AA   -6.227733662737  -0.458286647640  -3.395106710806 Bohr
[INPUT] 13 H     -3.298884380000   1.271613210000  -0.924562730000 AA   -6.233987994806   2.403000703279  -1.747170344680 Bohr
[INPUT] 14 H     -3.498867520000   2.499398880000  -3.057108420000 AA   -6.611901358936   4.723179359245  -5.777097646902 Bohr
[INPUT] 15 H     -3.495553930000   0.985270700000  -3.929158570000 AA   -6.605639581347   1.861891781559  -7.425033597288 Bohr
[INPUT] 16 H     -1.242232840000   0.485485050000  -3.052828560000 AA   -2.347479850541   0.917433782071  -5.769009883650 Bohr
[INPUT] 17 H     -1.245545350000   1.999612100000  -2.180776450000 AA   -2.353739587226   3.778719224366  -4.121070229401 Bohr
[INPUT] 18 H     -1.445525630000   3.227400960000  -4.313319140000 AA   -2.731647546739   6.098903908558  -8.150991862445 Bohr
[INPUT] 19 H     -0.017209830000   2.220933910000  -4.310896180000 AA   -0.032521865350   4.196956830659  -8.146413131634 Bohr
[INPUT] 20 H     -1.442214910000   1.713274800000  -5.185372790000 AA   -2.725391192664   3.237620148119  -9.798934426872 Bohr
[INPUT] ---------------- BASIS SET ---------------- 
[INPUT] l, kappa, [nprim/nctr], expnt,             c_1 c_2 ...
[INPUT] H
[INPUT] 0    0    [3    /1   ]  18.731137         0.0334946
                                2.8253937         0.23472695
                                0.6401217         0.81375733
[INPUT] 0    0    [1    /1   ]  0.1612778            1
[INPUT] 1    0    [1    /1   ]  1.1                  1
[INPUT] C
[INPUT] 0    0    [6    /1   ]  3047.5249         0.0018347
                                457.36951         0.0140373
                                103.94869         0.0688426
                                29.210155         0.2321844
                                9.286663          0.4679413
                                3.163927          0.362312
[INPUT] 0    0    [3    /1   ]  7.8682724         -0.1193324
                                1.8812885         -0.1608542
                                0.5442493         1.1434564
[INPUT] 0    0    [1    /1   ]  0.1687144            1
[INPUT] 1    0    [3    /1   ]  7.8682724         0.0689991
                                1.8812885         0.316424
                                0.5442493         0.7443083
[INPUT] 1    0    [1    /1   ]  0.1687144            1
[INPUT] 2    0    [1    /1   ]  0.8                  1

nuclear repulsion = 246.446968367933
number of shells = 78
number of NR pGTOs = 260
number of NR cGTOs = 154
basis = 6-31gss
ecp = {}
bas 0, expnt(s) = [3047.5249    457.36951   103.94869    29.210155    9.286663    3.163927]
bas 1, expnt(s) = [7.8682724 1.8812885 0.5442493]
bas 2, expnt(s) = [0.1687144]
bas 3, expnt(s) = [7.8682724 1.8812885 0.5442493]
bas 4, expnt(s) = [0.1687144]
bas 5, expnt(s) = [0.8]
bas 6, expnt(s) = [3047.5249    457.36951   103.94869    29.210155    9.286663    3.163927]
bas 7, expnt(s) = [7.8682724 1.8812885 0.5442493]
bas 8, expnt(s) = [0.1687144]
bas 9, expnt(s) = [7.8682724 1.8812885 0.5442493]
bas 10, expnt(s) = [0.1687144]
bas 11, expnt(s) = [0.8]
bas 12, expnt(s) = [3047.5249    457.36951   103.94869    29.210155    9.286663    3.163927]
bas 13, expnt(s) = [7.8682724 1.8812885 0.5442493]
bas 14, expnt(s) = [0.1687144]
bas 15, expnt(s) = [7.8682724 1.8812885 0.5442493]
bas 16, expnt(s) = [0.1687144]
bas 17, expnt(s) = [0.8]
bas 18, expnt(s) = [3047.5249    457.36951   103.94869    29.210155    9.286663    3.163927]
bas 19, expnt(s) = [7.8682724 1.8812885 0.5442493]
bas 20, expnt(s) = [0.1687144]
bas 21, expnt(s) = [7.8682724 1.8812885 0.5442493]
bas 22, expnt(s) = [0.1687144]
bas 23, expnt(s) = [0.8]
bas 24, expnt(s) = [3047.5249    457.36951   103.94869    29.210155    9.286663    3.163927]
bas 25, expnt(s) = [7.8682724 1.8812885 0.5442493]
bas 26, expnt(s) = [0.1687144]
bas 27, expnt(s) = [7.8682724 1.8812885 0.5442493]
bas 28, expnt(s) = [0.1687144]
bas 29, expnt(s) = [0.8]
bas 30, expnt(s) = [3047.5249    457.36951   103.94869    29.210155    9.286663    3.163927]
bas 31, expnt(s) = [7.8682724 1.8812885 0.5442493]
bas 32, expnt(s) = [0.1687144]
bas 33, expnt(s) = [7.8682724 1.8812885 0.5442493]
bas 34, expnt(s) = [0.1687144]
bas 35, expnt(s) = [0.8]
bas 36, expnt(s) = [18.731137   2.8253937  0.6401217]
bas 37, expnt(s) = [0.1612778]
bas 38, expnt(s) = [1.1]
bas 39, expnt(s) = [18.731137   2.8253937  0.6401217]
bas 40, expnt(s) = [0.1612778]
bas 41, expnt(s) = [1.1]
bas 42, expnt(s) = [18.731137   2.8253937  0.6401217]
bas 43, expnt(s) = [0.1612778]
bas 44, expnt(s) = [1.1]
bas 45, expnt(s) = [18.731137   2.8253937  0.6401217]
bas 46, expnt(s) = [0.1612778]
bas 47, expnt(s) = [1.1]
bas 48, expnt(s) = [18.731137   2.8253937  0.6401217]
bas 49, expnt(s) = [0.1612778]
bas 50, expnt(s) = [1.1]
bas 51, expnt(s) = [18.731137   2.8253937  0.6401217]
bas 52, expnt(s) = [0.1612778]
bas 53, expnt(s) = [1.1]
bas 54, expnt(s) = [18.731137   2.8253937  0.6401217]
bas 55, expnt(s) = [0.1612778]
bas 56, expnt(s) = [1.1]
bas 57, expnt(s) = [18.731137   2.8253937  0.6401217]
bas 58, expnt(s) = [0.1612778]
bas 59, expnt(s) = [1.1]
bas 60, expnt(s) = [18.731137   2.8253937  0.6401217]
bas 61, expnt(s) = [0.1612778]
bas 62, expnt(s) = [1.1]
bas 63, expnt(s) = [18.731137   2.8253937  0.6401217]
bas 64, expnt(s) = [0.1612778]
bas 65, expnt(s) = [1.1]
bas 66, expnt(s) = [18.731137   2.8253937  0.6401217]
bas 67, expnt(s) = [0.1612778]
bas 68, expnt(s) = [1.1]
bas 69, expnt(s) = [18.731137   2.8253937  0.6401217]
bas 70, expnt(s) = [0.1612778]
bas 71, expnt(s) = [1.1]
bas 72, expnt(s) = [18.731137   2.8253937  0.6401217]
bas 73, expnt(s) = [0.1612778]
bas 74, expnt(s) = [1.1]
bas 75, expnt(s) = [18.731137   2.8253937  0.6401217]
bas 76, expnt(s) = [0.1612778]
bas 77, expnt(s) = [1.1]
CPU time:        40.97
arg.atm = [[ 6 20  1 23  0  0]
 [ 6 24  1 27  0  0]
 [ 6 28  1 31  0  0]
 [ 6 32  1 35  0  0]
 [ 6 36  1 39  0  0]
 [ 6 40  1 43  0  0]
 [ 1 44  1 47  0  0]
 [ 1 48  1 51  0  0]
 [ 1 52  1 55  0  0]
 [ 1 56  1 59  0  0]
 [ 1 60  1 63  0  0]
 [ 1 64  1 67  0  0]
 [ 1 68  1 71  0  0]
 [ 1 72  1 75  0  0]
 [ 1 76  1 79  0  0]
 [ 1 80  1 83  0  0]
 [ 1 84  1 87  0  0]
 [ 1 88  1 91  0  0]
 [ 1 92  1 95  0  0]
 [ 1 96  1 99  0  0]]
arg.bas = [[  0   0   6   1   0 110 116   0]
 [  0   0   3   1   0 122 125   0]
 [  0   0   1   1   0 128 129   0]
 [  0   1   3   1   0 130 133   0]
 [  0   1   1   1   0 136 137   0]
 [  0   2   1   1   0 138 139   0]
 [  1   0   6   1   0 110 116   0]
 [  1   0   3   1   0 122 125   0]
 [  1   0   1   1   0 128 129   0]
 [  1   1   3   1   0 130 133   0]
 [  1   1   1   1   0 136 137   0]
 [  1   2   1   1   0 138 139   0]
 [  2   0   6   1   0 110 116   0]
 [  2   0   3   1   0 122 125   0]
 [  2   0   1   1   0 128 129   0]
 [  2   1   3   1   0 130 133   0]
 [  2   1   1   1   0 136 137   0]
 [  2   2   1   1   0 138 139   0]
 [  3   0   6   1   0 110 116   0]
 [  3   0   3   1   0 122 125   0]
 [  3   0   1   1   0 128 129   0]
 [  3   1   3   1   0 130 133   0]
 [  3   1   1   1   0 136 137   0]
 [  3   2   1   1   0 138 139   0]
 [  4   0   6   1   0 110 116   0]
 [  4   0   3   1   0 122 125   0]
 [  4   0   1   1   0 128 129   0]
 [  4   1   3   1   0 130 133   0]
 [  4   1   1   1   0 136 137   0]
 [  4   2   1   1   0 138 139   0]
 [  5   0   6   1   0 110 116   0]
 [  5   0   3   1   0 122 125   0]
 [  5   0   1   1   0 128 129   0]
 [  5   1   3   1   0 130 133   0]
 [  5   1   1   1   0 136 137   0]
 [  5   2   1   1   0 138 139   0]
 [  6   0   3   1   0 100 103   0]
 [  6   0   1   1   0 106 107   0]
 [  6   1   1   1   0 108 109   0]
 [  7   0   3   1   0 100 103   0]
 [  7   0   1   1   0 106 107   0]
 [  7   1   1   1   0 108 109   0]
 [  8   0   3   1   0 100 103   0]
 [  8   0   1   1   0 106 107   0]
 [  8   1   1   1   0 108 109   0]
 [  9   0   3   1   0 100 103   0]
 [  9   0   1   1   0 106 107   0]
 [  9   1   1   1   0 108 109   0]
 [ 10   0   3   1   0 100 103   0]
 [ 10   0   1   1   0 106 107   0]
 [ 10   1   1   1   0 108 109   0]
 [ 11   0   3   1   0 100 103   0]
 [ 11   0   1   1   0 106 107   0]
 [ 11   1   1   1   0 108 109   0]
 [ 12   0   3   1   0 100 103   0]
 [ 12   0   1   1   0 106 107   0]
 [ 12   1   1   1   0 108 109   0]
 [ 13   0   3   1   0 100 103   0]
 [ 13   0   1   1   0 106 107   0]
 [ 13   1   1   1   0 108 109   0]
 [ 14   0   3   1   0 100 103   0]
 [ 14   0   1   1   0 106 107   0]
 [ 14   1   1   1   0 108 109   0]
 [ 15   0   3   1   0 100 103   0]
 [ 15   0   1   1   0 106 107   0]
 [ 15   1   1   1   0 108 109   0]
 [ 16   0   3   1   0 100 103   0]
 [ 16   0   1   1   0 106 107   0]
 [ 16   1   1   1   0 108 109   0]
 [ 17   0   3   1   0 100 103   0]
 [ 17   0   1   1   0 106 107   0]
 [ 17   1   1   1   0 108 109   0]
 [ 18   0   3   1   0 100 103   0]
 [ 18   0   1   1   0 106 107   0]
 [ 18   1   1   1   0 108 109   0]
 [ 19   0   3   1   0 100 103   0]
 [ 19   0   1   1   0 106 107   0]
 [ 19   1   1   1   0 108 109   0]]
arg.env = [ 1.37036000e+02  0.00000000e+00  0.00000000e+00  0.00000000e+00
  0.00000000e+00  0.00000000e+00  0.00000000e+00  0.00000000e+00
  0.00000000e+00  0.00000000e+00  0.00000000e+00  0.00000000e+00
  0.00000000e+00  0.00000000e+00  0.00000000e+00  0.00000000e+00
  0.00000000e+00  0.00000000e+00  0.00000000e+00  0.00000000e+00
 -1.07851055e+01  7.12349270e-02 -1.02387327e+00  0.00000000e+00
 -9.81502741e+00  1.44220636e+00 -3.40053546e+00  0.00000000e+00
 -6.90485441e+00  1.44697253e+00 -3.39776433e+00  0.00000000e+00
 -5.93477630e+00  2.81792171e+00 -5.77443935e+00  0.00000000e+00
 -3.02460330e+00  2.82269200e+00 -5.77166587e+00  0.00000000e+00
 -2.05452519e+00  4.19364529e+00 -8.14833852e+00  0.00000000e+00
 -1.28071091e+01  6.80581840e-02 -1.02572100e+00  0.00000000e+00
 -1.01081116e+01 -1.83406948e+00 -1.02131137e+00  0.00000000e+00
 -1.01141119e+01  1.02715801e+00  6.26729880e-01  0.00000000e+00
 -1.04921498e+01  3.34746500e+00 -3.40317425e+00  0.00000000e+00
 -1.04858934e+01  4.86193802e-01 -5.05113866e+00  0.00000000e+00
 -6.22773366e+00 -4.58286648e-01 -3.39510671e+00  0.00000000e+00
 -6.23398799e+00  2.40300070e+00 -1.74717034e+00  0.00000000e+00
 -6.61190136e+00  4.72317936e+00 -5.77709765e+00  0.00000000e+00
 -6.60563958e+00  1.86189178e+00 -7.42503360e+00  0.00000000e+00
 -2.34747985e+00  9.17433782e-01 -5.76900988e+00  0.00000000e+00
 -2.35373959e+00  3.77871922e+00 -4.12107023e+00  0.00000000e+00
 -2.73164755e+00  6.09890391e+00 -8.15099186e+00  0.00000000e+00
 -3.25218654e-02  4.19695683e+00 -8.14641313e+00  0.00000000e+00
 -2.72539119e+00  3.23762015e+00 -9.79893443e+00  0.00000000e+00
  1.87311370e+01  2.82539370e+00  6.40121700e-01  7.61926220e-01
  1.29237100e+00  1.47131900e+00  1.61277800e-01  6.42977783e-01
  1.10000000e+00  3.28643653e+00  3.04752490e+03  4.57369510e+02
  1.03948690e+02  2.92101550e+01  9.28666300e+00  3.16392700e+00
  1.90125588e+00  3.50751108e+00  5.66221808e+00  7.37052623e+00
  6.28928397e+00  2.17153894e+00  7.86827240e+00  1.88128850e+00
  5.44249300e-01 -1.41639039e+00 -6.52813326e-01  1.83055623e+00
  1.68714400e-01  6.65088040e-01  7.86827240e+00  1.88128850e+00
  5.44249300e-01  2.65263212e+00  2.03386926e+00  1.01504332e+00
  1.68714400e-01  3.15445679e-01  8.00000000e-01  1.76578110e+00]
ecpbas  = []


******** <class 'pyscf.qmmm.itrf.mm_charge.<locals>.QMMM'> ********
method = QMMM-RHF
initial guess = minao
damping factor = 0
level shift factor = 0
DIIS = <class 'pyscf.scf.diis.CDIIS'>
DIIS start cycle = 1
DIIS space = 8
SCF tol = 1e-09
SCF gradient tol = None
max. SCF cycles = 50
direct_scf = True
direct_scf_tol = 1e-13
chkfile to save SCF result = /home/liwei01/wsr/dftpart/test_2body/c8h18/tmp1gc74sfc
max_memory 4000 MB (current use 226 MB)
** Add background charges for <class 'pyscf.scf.hf.RHF'> **
Charge      Location
-0.633884    [-14.6653551   -1.30519574   1.3496184 ]
0.210445    [-13.99137593  -3.21157035   1.3496184 ]
0.210434    [-13.99134112  -0.3520213    3.00058046]
0.214544    [-16.68736206  -1.30517083   1.3496184 ]
-0.418003    [-13.6952789    0.06666279  -1.02653262]
0.210745    [-14.37227504   1.97196721  -1.02838219]
0.210752    [-14.36627272  -0.88864439  -2.67749223]
Set gradient conv threshold to 3.16228e-05
Nelec from initial guess = 49.971875001263044
cond(S) = 1795.127148321745
E1 = -796.7708585344765  E_coul = 314.27020907729076
init E= -237.039579972259
    CPU time for initialize scf      6.01 sec, wall time      0.75 sec
  HOMO = -0.312251870620387  LUMO = 0.142460359221996
  mo_energy =
[-11.43946876 -11.43470882 -11.43212852 -11.42852227 -11.42119818
 -11.38166776  -1.66822581  -1.5080037   -1.2949616   -1.07951951
  -0.94790776  -0.93683135  -0.69713402  -0.6162109   -0.58119394
  -0.54598417  -0.51730528  -0.47065666  -0.44619448  -0.43388878
  -0.4065798   -0.39592497  -0.38686451  -0.3855252   -0.31225187
   0.14246036   0.15873977   0.19063275   0.19558371   0.20555889
   0.23417422   0.24645213   0.24660185   0.260968     0.27627246
   0.28417279   0.28998598   0.29322236   0.29722052   0.30351019
   0.31694952   0.34586948   0.35099127   0.38124989   0.60485268
   0.62934995   0.64787708   0.6724632    0.69052841   0.69710183
   0.70016976   0.73510231   0.76831117   0.77372501   0.81047395
   0.82444552   0.87262962   0.88984157   0.91642831   0.95076825
   0.97122878   0.99813061   1.03930416   1.04293374   1.05594272
   1.07902011   1.08802745   1.08813504   1.10347061   1.10862901
   1.11298646   1.12049755   1.13230197   1.14418827   1.16027331
   1.24747231   1.27919022   1.42863586   1.44168312   1.48468897
   1.54969184   1.59146151   1.63945968   1.69750474   1.7229377
   1.77324868   1.85600343   1.86363266   1.88785623   1.89823053
   1.90246482   2.00078179   2.00754433   2.06282018   2.08163917
   2.10492013   2.13957393   2.18111396   2.27116816   2.29699603
   2.31119882   2.31941455   2.32865851   2.33471888   2.37154001
   2.39920325   2.40147975   2.40536122   2.47493529   2.48357595
   2.49717676   2.52509921   2.528519     2.54137532   2.55417884
   2.57644086   2.60783452   2.677945     2.6907654    2.70815763
   2.75912824   2.80082712   2.8769889    2.90321258   2.90672302
   2.92623428   2.9502984    3.00889634   3.04056431   3.05409007
   3.05503619   3.12316573   3.14422886   3.16944669   3.18079812
   3.18346948   3.20806678   3.21081373   3.27214535   3.2730649
   3.51121689   3.55342862   3.58264677   3.60175429   3.61451583
   3.65557203   3.67594256   3.72380814   3.7713179    3.79356838
   3.8540483    3.88346696   3.89212946   4.02483732]
E1 = -805.0415220713184  E_coul = 324.10200976446856
cycle= 1 E= -235.478442821923  delta_E= 1.56  |g|= 0.424  |ddm|= 3.46
    CPU time for cycle= 1      0.73 sec, wall time      0.09 sec
diis-norm(errvec)=0.930637
diis-c [-0.86608531  1.        ]
  HOMO = -0.343873362088012  LUMO = 0.245088768152247
  mo_energy =
[-11.15770087 -11.14519153 -11.14447706 -11.13720317 -11.13494301
 -11.09592071  -1.04840769  -0.99710372  -0.92079395  -0.83132929
  -0.77213378  -0.76055699  -0.62930813  -0.5855622   -0.55744005
  -0.52606684  -0.52109565  -0.47941241  -0.4723653   -0.45005892
  -0.44670597  -0.43635879  -0.43542894  -0.41453752  -0.34387336
   0.24508877   0.26403151   0.29082587   0.29646505   0.3031145
   0.33760483   0.3398247    0.35925      0.36022499   0.36762046
   0.37017941   0.3924298    0.39797572   0.40320887   0.41846663
   0.43148022   0.48504945   0.49136256   0.50401633   0.70889932
   0.74048779   0.76333469   0.76498583   0.78687641   0.79446148
   0.81977092   0.87130046   0.8718387    0.91548398   0.97765001
   1.00307148   1.01870672   1.03134927   1.05926869   1.10992083
   1.11069979   1.13936367   1.17454491   1.17715544   1.19641079
   1.2158848    1.21763698   1.22678538   1.23503935   1.23516929
   1.24210226   1.25003525   1.26436363   1.27166383   1.28048847
   1.35077204   1.39749054   1.57922294   1.5934945    1.60460749
   1.69516355   1.70337425   1.7493054    1.82473711   1.84185971
   1.89875354   1.98791792   1.99610337   2.02334611   2.03391129
   2.04771011   2.14121265   2.18867287   2.2210961    2.23511147
   2.25301345   2.30494087   2.34276525   2.36470874   2.42108046
   2.4295732    2.44947042   2.46124471   2.46418793   2.47459835
   2.52856915   2.54683128   2.55642808   2.57936578   2.5830891
   2.60135978   2.63118959   2.65788083   2.66456646   2.68315565
   2.68785487   2.7419394    2.79670512   2.80029411   2.83841387
   2.89029262   2.9121422    2.99216275   3.04101066   3.04736918
   3.0699577    3.07825065   3.12608262   3.1593015    3.19035372
   3.20413708   3.24992011   3.28402648   3.28724095   3.30825698
   3.32177336   3.34228744   3.35191336   3.36941494   3.39281672
   3.64721992   3.69446688   3.72287857   3.74785035   3.75320238
   3.79396594   3.8206377    3.86878088   3.91831127   3.94189766
   4.00225293   4.03695717   4.04567455   4.09881099]
E1 = -803.2351536925098  E_coul = 322.24095821008484
cycle= 2 E= -235.533125997498  delta_E= -0.0547  |g|= 0.116  |ddm|= 0.436
    CPU time for cycle= 2      0.67 sec, wall time      0.08 sec
diis-norm(errvec)=0.267814
diis-c [-0.07011388 -0.04709999  1.04709999]
  HOMO = -0.390471178296732  LUMO = 0.234754884606734
  mo_energy =
[-11.21993219 -11.21796557 -11.21652345 -11.2130296  -11.21217213
 -11.1586626   -1.08522914  -1.02971224  -0.9491672   -0.85636003
  -0.79408335  -0.7830157   -0.65605838  -0.60940363  -0.58373993
  -0.55803421  -0.54945714  -0.51197007  -0.49585951  -0.48626971
  -0.47133935  -0.46665652  -0.4605053   -0.4473775   -0.39047118
   0.23475488   0.25606281   0.27875233   0.28795397   0.29528099
   0.33084015   0.33117661   0.35028149   0.35077632   0.35728966
   0.35753894   0.37919117   0.38952774   0.39030345   0.40290922
   0.41649075   0.45945478   0.47236472   0.48205004   0.68878588
   0.71487684   0.73627519   0.74809743   0.76844759   0.77261209
   0.79418063   0.84578257   0.85159199   0.88901038   0.94230004
   0.96596285   0.9935846    0.99822103   1.02630652   1.08005362
   1.08542685   1.113418     1.15679735   1.15784512   1.18187121
   1.19767482   1.19885854   1.21069088   1.21563569   1.21698653
   1.22343926   1.22884592   1.24939071   1.25576709   1.25962111
   1.34371261   1.37714015   1.5492629    1.56006499   1.5827973
   1.66785083   1.6842564    1.72911977   1.80551967   1.8157554
   1.87720657   1.96749293   1.97426326   1.99987155   2.01230811
   2.01813315   2.11484416   2.14746853   2.19069461   2.20448492
   2.22443549   2.27229249   2.31073615   2.36483842   2.41342646
   2.4214563    2.42882581   2.44184698   2.45313099   2.46534313
   2.51111959   2.52410554   2.52555013   2.57174735   2.57194229
   2.5923069    2.62263782   2.64357069   2.64911268   2.66279495
   2.67193718   2.72183841   2.78384642   2.78804054   2.82336106
   2.87088841   2.89794596   2.97864245   3.02134848   3.02637505
   3.04709517   3.06073484   3.11277115   3.14422452   3.17033542
   3.17675068   3.2347179    3.26452536   3.27217206   3.29071145
   3.3014775    3.32387167   3.3287944    3.35733627   3.37504774
   3.63492282   3.67694377   3.70632032   3.72697335   3.7375034
   3.777722     3.8021495    3.84815524   3.89878132   3.9231512
   3.9823695    4.01339086   4.02134662   4.09078185]
E1 = -804.1345405644801  E_coul = 323.1361994060719
cycle= 3 E= -235.537271673482  delta_E= -0.00415  |g|= 0.0433  |ddm|= 0.148
    CPU time for cycle= 3      0.67 sec, wall time      0.08 sec
diis-norm(errvec)=0.0946748
diis-c [-0.00128962 -0.09074645  0.19768715  0.8930593 ]
  HOMO = -0.378612338615623  LUMO = 0.239988673253063
  mo_energy =
[-11.19536269 -11.19246152 -11.1897843  -11.18365726 -11.18086499
 -11.13971438  -1.06942422  -1.0155879   -0.93672257  -0.84502481
  -0.78373888  -0.7719862   -0.64527283  -0.59992134  -0.57445035
  -0.54538363  -0.54086949  -0.50160749  -0.487854    -0.47570305
  -0.46335725  -0.45725105  -0.45232695  -0.43731514  -0.37861234
   0.23998867   0.26106143   0.28499106   0.29309843   0.30051979
   0.33522311   0.33631614   0.35505605   0.35600594   0.36260944
   0.3648838    0.38581312   0.39451477   0.39688519   0.41077267
   0.42395848   0.47097195   0.4820256    0.49196403   0.69633485
   0.72318826   0.74542362   0.75427636   0.77636646   0.78028073
   0.8037171    0.85481997   0.85938925   0.89920565   0.95597015
   0.97977343   1.0035407    1.0105242    1.0387531    1.09283685
   1.09570519   1.12449901   1.16543884   1.16603336   1.19056307
   1.20680463   1.20720579   1.2202189    1.22463411   1.22610103
   1.23286572   1.23910214   1.25758458   1.26408726   1.2682291
   1.34969979   1.38648562   1.56217667   1.57375896   1.5914632
   1.67934358   1.69212806   1.73741868   1.81372192   1.82650858
   1.88701614   1.97738521   1.9848607    2.01115884   2.0227798
   2.03019712   2.12546789   2.16312894   2.20369498   2.21664561
   2.23676554   2.28554489   2.32397359   2.3695199    2.4209352
   2.42757559   2.43964527   2.45244853   2.46008042   2.47234427
   2.52099221   2.53591438   2.53872668   2.57823963   2.58003745
   2.59990186   2.63003827   2.65384002   2.65641648   2.67479934
   2.67998991   2.73237753   2.79314218   2.79529406   2.83158593
   2.88107481   2.90658709   2.98733906   3.03167998   3.03760049
   3.05857508   3.06932426   3.12089055   3.15316433   3.18091778
   3.18905426   3.24365195   3.27613337   3.28058006   3.30074092
   3.31103359   3.33403719   3.3396421    3.36498675   3.38459987
   3.64373208   3.68787399   3.71657439   3.73868765   3.74737491
   3.78788797   3.81261678   3.85959279   3.90923976   3.93300897
   3.99307205   4.02590008   4.03421642   4.09728866]
E1 = -803.8193987776203  E_coul = 322.8205049157829
cycle= 4 E= -235.537824376911  delta_E= -0.000553  |g|= 0.00396  |ddm|= 0.0476
    CPU time for cycle= 4      0.67 sec, wall time      0.08 sec
diis-norm(errvec)=0.00831542
diis-c [-4.40161414e-05  8.68670275e-03 -3.38945803e-02 -8.47482604e-02
  1.10995614e+00]
  HOMO = -0.380024754956076  LUMO = 0.239716633783601
  mo_energy =
[-11.19707956 -11.1919966  -11.19162549 -11.18711816 -11.18420574
 -11.13900759  -1.07034844  -1.01623547  -0.93720176  -0.84549152
  -0.78431517  -0.7727957   -0.64597407  -0.60045015  -0.5748682
  -0.54645385  -0.54126254  -0.50243244  -0.48826516  -0.47644146
  -0.46401566  -0.4581099   -0.45309185  -0.43832478  -0.38002475
   0.23971663   0.26080538   0.28471151   0.29282727   0.30024794
   0.33510658   0.33615766   0.35490629   0.35566992   0.3623703
   0.36448783   0.38541705   0.39404678   0.39656212   0.41031951
   0.42349397   0.47016064   0.48129519   0.49119147   0.69566813
   0.72238516   0.7446147    0.75399782   0.77587491   0.77961875
   0.80284714   0.8543378    0.85890967   0.89842158   0.95484621
   0.97882015   1.00284031   1.0094715    1.0376727    1.09186312
   1.09478752   1.12379667   1.16533087   1.1656689    1.18991683
   1.20609089   1.20691973   1.21955564   1.22398261   1.22569233
   1.23218463   1.23831547   1.25704494   1.26356648   1.2676682
   1.34910577   1.38589436   1.56122484   1.57281225   1.59090736
   1.67864786   1.6916538    1.7367745    1.81306971   1.82579595
   1.88640817   1.97679889   1.98409384   2.01019289   2.02202088
   2.0293592    2.12469783   2.16188845   2.20269015   2.21584118
   2.2357093    2.28464327   2.32299319   2.3693524    2.42071031
   2.42746091   2.43880787   2.45149283   2.45997258   2.4719912
   2.52023059   2.53496923   2.53766755   2.57784908   2.57940493
   2.59929996   2.62947764   2.65326356   2.65594018   2.67395983
   2.67944226   2.73159126   2.79252947   2.79473819   2.83122538
   2.88041899   2.90587344   2.98666859   3.03098063   3.03680427
   3.05764156   3.06885918   3.12040923   3.15249741   3.18012465
   3.18823391   3.24303606   3.27527351   3.27993907   3.29997139
   3.3105954    3.33345941   3.33886536   3.36446885   3.38393898
   3.64340216   3.68709186   3.71595427   3.73787403   3.74684556
   3.78721383   3.81209117   3.85878002   3.90885059   3.93265352
   3.99256772   4.02497785   4.03312892   4.0967633 ]
E1 = -803.8245243635515  E_coul = 322.82562374882355
cycle= 5 E= -235.537831129801  delta_E= -6.75e-06  |g|= 0.00123  |ddm|= 0.00776
    CPU time for cycle= 5      0.67 sec, wall time      0.08 sec
diis-norm(errvec)=0.00259195
diis-c [-3.04535530e-06  4.59048451e-03 -1.27898039e-02 -4.83219600e-02
  2.09368882e-01  8.47152398e-01]
  HOMO = -0.380085385907918  LUMO = 0.239721844466186
  mo_energy =
[-11.19708604 -11.19253721 -11.19171404 -11.18642704 -11.1835383
 -11.13984076  -1.07027386  -1.01628713  -0.93731048  -0.8455947
  -0.78433041  -0.77271064  -0.64590646  -0.60046114  -0.57502996
  -0.54643756  -0.54134122  -0.50247899  -0.48836098  -0.47665095
  -0.46402012  -0.45817575  -0.45305131  -0.43833045  -0.38008539
   0.23972184   0.2607793    0.2847489    0.29284844   0.30019578
   0.33500539   0.33610179   0.35487875   0.35566679   0.36238561
   0.36446931   0.38545326   0.39399474   0.3965631    0.41030335
   0.42348876   0.47018139   0.48130615   0.49120817   0.69565245
   0.72231891   0.74457622   0.75385521   0.77583637   0.77964245
   0.80285834   0.85415964   0.85885035   0.89836016   0.95489046
   0.97875787   1.00285266   1.00945103   1.03775761   1.09199568
   1.09479148   1.12384473   1.16509969   1.16557346   1.18989564
   1.20608494   1.2067993    1.21955333   1.22394783   1.22563513
   1.23224016   1.2383594    1.25697509   1.26348161   1.2676058
   1.34890538   1.38584647   1.56124723   1.57282442   1.5908542
   1.67855506   1.6915833    1.7367687    1.81306782   1.82572742
   1.88634944   1.97670962   1.98409049   2.01026523   2.02200603
   2.02931456   2.12470484   2.16195875   2.20275142   2.21580436
   2.23577365   2.28463303   2.32300366   2.36916123   2.42049992
   2.42722188   2.43885249   2.45158697   2.45969929   2.47178053
   2.52024938   2.53507634   2.53772682   2.57761521   2.57944127
   2.5993285    2.62949266   2.65317522   2.65591439   2.67398244
   2.67942985   2.73163157   2.79250624   2.79474156   2.83106017
   2.88037871   2.90580241   2.98669487   3.03095061   3.03680999
   3.05772145   3.06872869   3.12024667   3.15252489   3.18012765
   3.18821232   3.24299961   3.2753088    3.2799578    3.30003866
   3.31045369   3.33340096   3.33888308   3.36430565   3.38386743
   3.64323613   3.68710473   3.71590684   3.73790272   3.74676117
   3.78717904   3.81198727   3.85878924   3.90868794   3.93247161
   3.99244539   4.02503305   4.03324896   4.09651472]
E1 = -803.8228981450208  E_coul = 322.8239970363312
cycle= 6 E= -235.537831623763  delta_E= -4.94e-07  |g|= 0.00027  |ddm|= 0.00159
    CPU time for cycle= 6      0.69 sec, wall time      0.09 sec
diis-norm(errvec)=0.000554203
diis-c [-1.58794874e-07 -2.63103076e-04  1.21667414e-03  1.89761772e-03
 -5.84811041e-02  2.39516482e-02  1.03167827e+00]
  HOMO = -0.380105729461837  LUMO = 0.239717910211792
  mo_energy =
[-11.19697886 -11.1923799  -11.19172447 -11.18647042 -11.18353085
 -11.13970149  -1.07028732  -1.01627955  -0.93730325  -0.84558757
  -0.78432944  -0.77272154  -0.64590859  -0.60044521  -0.57501002
  -0.5464436   -0.54132476  -0.50247817  -0.48834533  -0.47663349
  -0.46401499  -0.4581699   -0.45305003  -0.43833406  -0.38010573
   0.23971791   0.26077932   0.28474654   0.29284393   0.3001954
   0.3350189    0.33611392   0.35488861   0.35566537   0.36238839
   0.36446662   0.38545165   0.39399676   0.39656087   0.4103108
   0.42349188   0.4701762    0.48131212   0.49121092   0.69565048
   0.72231781   0.74457318   0.75387545   0.77583777   0.77963741
   0.80285887   0.85418      0.85886102   0.89836003   0.95489278
   0.97877306   1.00286297   1.00945331   1.03774572   1.09198986
   1.09479069   1.12384766   1.16513519   1.16559838   1.18990381
   1.20609208   1.20682205   1.21955418   1.2239573    1.22564387
   1.23224203   1.23835036   1.256985     1.26349349   1.26760793
   1.34893895   1.38585366   1.5612521    1.57282679   1.5908572
   1.67857464   1.69158402   1.73676101   1.81306399   1.82573554
   1.88635501   1.97672202   1.98408704   2.01025592   2.02200395
   2.02932477   2.12470456   2.16196056   2.20274702   2.21581268
   2.23577169   2.28463558   2.32301214   2.36918102   2.42052235
   2.42724422   2.43884529   2.45158341   2.45973388   2.47180879
   2.52025129   2.53505571   2.53772188   2.57764369   2.57942959
   2.59932301   2.62948777   2.65318946   2.65591176   2.67397712
   2.67942717   2.73162316   2.79250535   2.79474213   2.83108543
   2.88038188   2.90581802   2.98668791   3.03095535   3.03681103
   3.05771685   3.0687482    3.1202686    3.15251959   3.18013057
   3.18821741   3.2430103    3.27530077   3.27995699   3.30002195
   3.31047393   3.33340776   3.33887991   3.36432595   3.38387919
   3.64326179   3.68710673   3.71591648   3.7379033    3.74677378
   3.78719198   3.81200935   3.85879118   3.9087083    3.9324995
   3.99246758   4.02502863   4.03324191   4.09655857]
E1 = -803.8221464782023  E_coul = 322.8232453321795
cycle= 7 E= -235.537831661096  delta_E= -3.73e-08  |g|= 6.41e-05  |ddm|= 0.000575
    CPU time for cycle= 7      0.68 sec, wall time      0.09 sec
diis-norm(errvec)=0.00013831
diis-c [-6.80374057e-09 -2.62766883e-04  5.71527583e-04  3.14199761e-03
 -6.54058386e-03 -5.60890299e-02 -8.68121131e-02  1.14599097e+00]
  HOMO = -0.380117758918031  LUMO = 0.239716837654529
  mo_energy =
[-11.19702128 -11.1924015  -11.19171826 -11.18646314 -11.18354859
 -11.13972149  -1.07029381  -1.0162901   -0.93731228  -0.84559667
  -0.78433724  -0.77272642  -0.64590936  -0.60044858  -0.57501754
  -0.54645027  -0.54132672  -0.50248301  -0.48834794  -0.47664813
  -0.46401724  -0.45817728  -0.45305051  -0.43833762  -0.38011776
   0.23971684   0.26077643   0.28474654   0.2928422    0.30019101
   0.33501432   0.33611147   0.35488689   0.35566225   0.36238934
   0.36446369   0.38545109   0.39398946   0.3965612    0.4103065
   0.42348862   0.47017213   0.48130585   0.49120441   0.69564682
   0.72231003   0.74456835   0.75387011   0.77583605   0.77963755
   0.80285308   0.85417213   0.8588572    0.89835458   0.95488515
   0.97876393   1.00285872   1.00944311   1.03774323   1.09199032
   1.09478487   1.12384525   1.16512673   1.16559325   1.18990018
   1.20608579   1.20681758   1.21955118   1.2239515    1.22564251
   1.23224019   1.2383492    1.25697915   1.26348823   1.26760295
   1.3489237    1.3858489    1.56124661   1.57282093   1.59085261
   1.67856612   1.6915806    1.73675797   1.81305964   1.82573032
   1.88635018   1.97671587   1.98408402   2.01025221   2.02200074
   2.02931733   2.12469872   2.16195416   2.20274211   2.21580584
   2.23576552   2.28463079   2.32300317   2.36917574   2.42051738
   2.42724001   2.43884286   2.45157904   2.45972588   2.47180011
   2.52024657   2.53505662   2.53771595   2.57763303   2.57942871
   2.59932114   2.62948614   2.65318284   2.65590992   2.67397478
   2.67942511   2.73162182   2.79250154   2.79473935   2.83107559
   2.88037675   2.90580841   2.98668557   3.03094959   3.03680693
   3.05771406   3.06874192   3.12026075   3.15251725   3.18012452
   3.18821325   3.24300427   3.27529829   3.27995446   3.30002225
   3.31046628   3.333403     3.33887614   3.3643163    3.38387241
   3.6432552    3.68710384   3.7159125    3.7379003    3.74676878
   3.78718606   3.81200303   3.85878747   3.90870441   3.93249169
   3.99246081   4.02502584   4.03323917   4.09654096]
E1 = -803.8222509237348  E_coul = 322.823349775478
cycle= 8 E= -235.53783166333  delta_E= -2.23e-09  |g|= 1.51e-05  |ddm|= 0.000164
    CPU time for cycle= 8      0.67 sec, wall time      0.08 sec
diis-norm(errvec)=3.26212e-05
diis-c [-5.38339749e-10 -3.41438327e-05  4.31017985e-05  5.00516175e-04
  1.54345025e-03 -1.05044248e-02 -5.98163789e-02  1.71968608e-01
  8.96299271e-01]
  HOMO = -0.380118971526723  LUMO = 0.239717078906393
  mo_energy =
[-11.19700975 -11.19240453 -11.19172461 -11.18647257 -11.18354421
 -11.13972686  -1.07029407  -1.01628969  -0.9373134   -0.8455977
  -0.78433678  -0.7727269   -0.64590912  -0.60044751  -0.57501764
  -0.54645076  -0.54132743  -0.50248395  -0.48834855  -0.47664746
  -0.46401671  -0.45817664  -0.45305057  -0.4383381   -0.38011897
   0.23971708   0.2607763    0.28474665   0.29284238   0.30019043
   0.33501432   0.3361116    0.35488799   0.35566255   0.36238921
   0.364463     0.38545116   0.39398885   0.39656056   0.41030687
   0.42348867   0.47017044   0.48130548   0.4912045    0.69564643
   0.72231011   0.74456809   0.75387081   0.77583531   0.7796373
   0.80285347   0.85417187   0.85885714   0.89835345   0.95488575
   0.97876419   1.00285954   1.00944337   1.03774179   1.09198953
   1.09478445   1.12384554   1.16512658   1.16559362   1.18990002
   1.20608606   1.20681744   1.2195505    1.22395183   1.2256413
   1.23224071   1.23834791   1.25697854   1.26348786   1.26760204
   1.34892164   1.38584889   1.56124654   1.57282058   1.59085248
   1.67856628   1.69157983   1.73675753   1.81306002   1.82572902
   1.8863502    1.97671609   1.9840837    2.01025256   2.02200001
   2.02931673   2.1246993    2.16195368   2.20274245   2.21580577
   2.23576587   2.28462987   2.32300363   2.3691751    2.42051623
   2.42723862   2.43884292   2.45158031   2.45972519   2.47179897
   2.52024733   2.5350554    2.53771519   2.57763092   2.57942888
   2.59932203   2.62948669   2.65318313   2.65590998   2.67397383
   2.67942501   2.73162134   2.79250151   2.79474027   2.83107653
   2.88037644   2.90580784   2.98668547   3.03094957   3.03680647
   3.0577144    3.0687413    3.12025927   3.15251757   3.18012486
   3.18821197   3.24300546   3.27529727   3.27995496   3.30002121
   3.31046679   3.33340278   3.33887612   3.36431481   3.38387167
   3.64325495   3.68710303   3.71591214   3.7379001    3.74676881
   3.78718637   3.8120032    3.85878646   3.9087028    3.93249157
   3.9924611    4.02502571   4.03323926   4.09653861]
E1 = -803.8222674047714  E_coul = 322.8233662564192
cycle= 9 E= -235.537831663426  delta_E= -9.54e-11  |g|= 4.14e-06  |ddm|= 2.78e-05
    CPU time for cycle= 9      0.68 sec, wall time      0.08 sec
  HOMO = -0.380118512692859  LUMO = 0.239717228381458
  mo_energy =
[-11.19701198 -11.19240381 -11.1917238  -11.18647045 -11.18354467
 -11.13972544  -1.07029381  -1.01628955  -0.93731302  -0.8455974
  -0.78433666  -0.77272642  -0.64590896  -0.6004474   -0.57501749
  -0.54645043  -0.54132719  -0.50248363  -0.48834844  -0.47664734
  -0.46401667  -0.45817652  -0.45305025  -0.43833757  -0.38011851
   0.23971723   0.26077648   0.28474676   0.29284249   0.30019055
   0.3350144    0.33611169   0.35488796   0.35566263   0.36238938
   0.36446314   0.38545133   0.39398899   0.39656069   0.41030699
   0.4234888    0.47017074   0.48130571   0.4912046    0.69564662
   0.72231038   0.74456833   0.75387081   0.77583553   0.77963752
   0.80285364   0.85417221   0.85885729   0.89835374   0.95488583
   0.97876442   1.0028596    1.00944349   1.0377422    1.09198979
   1.09478465   1.12384563   1.16512664   1.16559373   1.18990022
   1.20608627   1.20681755   1.21955068   1.22395195   1.22564152
   1.23224091   1.23834826   1.2569788    1.26348801   1.26760226
   1.34892202   1.38584907   1.56124676   1.57282083   1.59085267
   1.67856645   1.69158008   1.73675773   1.8130602    1.82572944
   1.88635039   1.97671626   1.98408393   2.01025276   2.02200034
   2.029317     2.12469942   2.16195394   2.20274261   2.21580594
   2.23576605   2.28463018   2.3230038    2.36917528   2.42051642
   2.42723874   2.43884306   2.4515805    2.45972541   2.47179921
   2.52024747   2.53505578   2.5377155    2.57763123   2.57942905
   2.59932219   2.62948688   2.6531832    2.65591015   2.67397414
   2.67942524   2.73162162   2.7925017    2.79474047   2.83107647
   2.88037664   2.90580815   2.98668569   3.03094978   3.03680666
   3.05771466   3.0687415    3.1202595    3.15251774   3.18012502
   3.18821226   3.24300551   3.27529763   3.27995521   3.30002153
   3.31046683   3.33340292   3.3388763    3.36431511   3.38387195
   3.64325511   3.68710339   3.71591235   3.73790032   3.74676886
   3.78718658   3.81200338   3.85878686   3.90870317   3.93249172
   3.9924612    4.02502587   4.0332396    4.09653908]
E1 = -803.8222692921064  E_coul = 322.82336814374537
Extra cycle  E= -235.537831663434  delta_E= -8.81e-12  |g|= 1.68e-06  |ddm|= 8.26e-06
    CPU time for scf_cycle     12.80 sec, wall time      1.60 sec
    CPU time for SCF     12.81 sec, wall time      1.60 sec
converged SCF energy = -235.537831663434
