#INFO: **** input file is /home/liwei01/wsr/dftpart/test_2body/c8h18/gfea_c8.py ****
from dftpart import gfea3
from pyscf import lib

par = 8
with lib.with_omp_threads(par):
    fr0 = gfea3.GFEA()
    fr0.inputstyle = 'frg'
    fr0.method = ['hf', '6-31gss','charge']
    fr0.gjfname = 'c8h18'
    fr0.output = 'c8h18'
    fr0.verbose = 9
    fr0.showinter = True
    fr0.kernel()

#INFO: ******************** input file end ********************


System: uname_result(system='Linux', node='master', release='3.10.0-693.el7.x86_64', version='#1 SMP Tue Aug 22 21:09:27 UTC 2017', machine='x86_64', processor='x86_64')  Threads 8
Python 3.6.4 |Anaconda, Inc.| (default, Jan 16 2018, 18:10:19) 
[GCC 7.2.0]
numpy 1.14.0  scipy 1.0.0
Date: Mon Mar 23 15:05:53 2020
PySCF version 1.6.1
PySCF path  /home/liwei01/zcheng/pyscf/pyscf
GIT HEAD      ref: refs/heads/master
GIT master branch  3adc7fd25839fe674469a52b764c3661e32d7318

[CONFIG] DEBUG = False
[CONFIG] MAX_MEMORY = 4000
[CONFIG] TMPDIR = .
[CONFIG] UNIT = angstrom
[CONFIG] VERBOSE = 3
[CONFIG] conf_file = None
[INPUT] verbose = 9
[INPUT] max_memory = 4000 
[INPUT] num. atoms = 20
[INPUT] num. electrons = 50
[INPUT] charge = 0
[INPUT] spin (= nelec alpha-beta = 2S) = 0
[INPUT] symmetry False subgroup None
[INPUT] Mole.unit = angstrom
[INPUT]  1 C     -7.760571710000  -0.690679840000   0.714187300000 AA  -14.665355101948  -1.305195737358   1.349618398643 Bohr
[INPUT]  2 C     -7.247229490000   0.035276430000  -0.543217670000 AA  -13.695278897971   0.066662791352  -1.026532622324 Bohr
[INPUT]  3 C     -5.707232040000   0.037695900000  -0.541810400000 AA  -10.785105484943   0.071234927019  -1.023873267441 Bohr
[INPUT]  4 C     -5.193888830000   0.763182740000  -1.799485870000 AA   -9.815027410138   1.442206361595  -3.400535459325 Bohr
[INPUT]  5 C     -3.653891600000   0.765704890000  -1.798019450000 AA   -6.904854412849   1.446972534340  -3.397764327141 Bohr
[INPUT]  6 C     -3.140548370000   1.491179950000  -3.055701710000 AA   -5.934776300249   2.817921707943  -5.774439350265 Bohr
[INPUT]  7 H     -7.403917290000  -1.699489840000   0.714187300000 AA  -13.991375927032  -3.211570349081   1.349618398643 Bohr
[INPUT]  8 H     -7.403898870000  -0.186281650000   1.587838800000 AA  -13.991341118277  -0.352021300532   3.000580461958 Bohr
[INPUT]  9 H     -8.830571710000  -0.690666660000   0.714187300000 AA  -16.687362055232  -1.305170830768   1.349618398643 Bohr
[INPUT] 10 H     -7.605480420000   1.043520110000  -0.544196420000 AA  -14.372275039542   1.971967213376  -1.028382191769 Bohr
[INPUT] 11 H     -7.602304130000  -0.470250360000  -1.416867870000 AA  -14.366272721350  -0.888644390378  -2.677492228996 Bohr
[INPUT] 12 H     -5.348982300000  -0.970547770000  -0.540454700000 AA  -10.108111592146  -1.834069476107  -1.021311365734 Bohr
[INPUT] 13 H     -5.352157510000   0.543548610000   0.331651170000 AA  -10.114111869434   1.027158008288   0.626729880192 Bohr
[INPUT] 14 H     -5.552206560000   1.771402190000  -1.800882260000 AA  -10.492149785414   3.347464995555  -3.403174253988 Bohr
[INPUT] 15 H     -5.548895830000   0.257282680000  -2.672947470000 AA  -10.485893412441   0.486193801794  -5.051138663649 Bohr
[INPUT] 16 H     -3.295574730000  -0.242514850000  -1.796613100000 AA   -6.227733662737  -0.458286647640  -3.395106710806 Bohr
[INPUT] 17 H     -3.298884380000   1.271613210000  -0.924562730000 AA   -6.233987994806   2.403000703279  -1.747170344680 Bohr
[INPUT] 18 H     -3.498867520000   2.499398880000  -3.057108420000 AA   -6.611901358936   4.723179359245  -5.777097646902 Bohr
[INPUT] 19 H     -3.495553930000   0.985270700000  -3.929158570000 AA   -6.605639581347   1.861891781559  -7.425033597288 Bohr
[INPUT] 20 H     -2.070550290000   1.492933870000  -3.054681970000 AA   -3.912772975239   2.821236136387  -5.772512320947 Bohr
[INPUT] ---------------- BASIS SET ---------------- 
[INPUT] l, kappa, [nprim/nctr], expnt,             c_1 c_2 ...
[INPUT] H
[INPUT] 0    0    [3    /1   ]  18.731137         0.0334946
                                2.8253937         0.23472695
                                0.6401217         0.81375733
[INPUT] 0    0    [1    /1   ]  0.1612778            1
[INPUT] 1    0    [1    /1   ]  1.1                  1
[INPUT] C
[INPUT] 0    0    [6    /1   ]  3047.5249         0.0018347
                                457.36951         0.0140373
                                103.94869         0.0688426
                                29.210155         0.2321844
                                9.286663          0.4679413
                                3.163927          0.362312
[INPUT] 0    0    [3    /1   ]  7.8682724         -0.1193324
                                1.8812885         -0.1608542
                                0.5442493         1.1434564
[INPUT] 0    0    [1    /1   ]  0.1687144            1
[INPUT] 1    0    [3    /1   ]  7.8682724         0.0689991
                                1.8812885         0.316424
                                0.5442493         0.7443083
[INPUT] 1    0    [1    /1   ]  0.1687144            1
[INPUT] 2    0    [1    /1   ]  0.8                  1

nuclear repulsion = 246.446969273771
number of shells = 78
number of NR pGTOs = 260
number of NR cGTOs = 154
basis = 6-31gss
ecp = {}
bas 0, expnt(s) = [3047.5249    457.36951   103.94869    29.210155    9.286663    3.163927]
bas 1, expnt(s) = [7.8682724 1.8812885 0.5442493]
bas 2, expnt(s) = [0.1687144]
bas 3, expnt(s) = [7.8682724 1.8812885 0.5442493]
bas 4, expnt(s) = [0.1687144]
bas 5, expnt(s) = [0.8]
bas 6, expnt(s) = [3047.5249    457.36951   103.94869    29.210155    9.286663    3.163927]
bas 7, expnt(s) = [7.8682724 1.8812885 0.5442493]
bas 8, expnt(s) = [0.1687144]
bas 9, expnt(s) = [7.8682724 1.8812885 0.5442493]
bas 10, expnt(s) = [0.1687144]
bas 11, expnt(s) = [0.8]
bas 12, expnt(s) = [3047.5249    457.36951   103.94869    29.210155    9.286663    3.163927]
bas 13, expnt(s) = [7.8682724 1.8812885 0.5442493]
bas 14, expnt(s) = [0.1687144]
bas 15, expnt(s) = [7.8682724 1.8812885 0.5442493]
bas 16, expnt(s) = [0.1687144]
bas 17, expnt(s) = [0.8]
bas 18, expnt(s) = [3047.5249    457.36951   103.94869    29.210155    9.286663    3.163927]
bas 19, expnt(s) = [7.8682724 1.8812885 0.5442493]
bas 20, expnt(s) = [0.1687144]
bas 21, expnt(s) = [7.8682724 1.8812885 0.5442493]
bas 22, expnt(s) = [0.1687144]
bas 23, expnt(s) = [0.8]
bas 24, expnt(s) = [3047.5249    457.36951   103.94869    29.210155    9.286663    3.163927]
bas 25, expnt(s) = [7.8682724 1.8812885 0.5442493]
bas 26, expnt(s) = [0.1687144]
bas 27, expnt(s) = [7.8682724 1.8812885 0.5442493]
bas 28, expnt(s) = [0.1687144]
bas 29, expnt(s) = [0.8]
bas 30, expnt(s) = [3047.5249    457.36951   103.94869    29.210155    9.286663    3.163927]
bas 31, expnt(s) = [7.8682724 1.8812885 0.5442493]
bas 32, expnt(s) = [0.1687144]
bas 33, expnt(s) = [7.8682724 1.8812885 0.5442493]
bas 34, expnt(s) = [0.1687144]
bas 35, expnt(s) = [0.8]
bas 36, expnt(s) = [18.731137   2.8253937  0.6401217]
bas 37, expnt(s) = [0.1612778]
bas 38, expnt(s) = [1.1]
bas 39, expnt(s) = [18.731137   2.8253937  0.6401217]
bas 40, expnt(s) = [0.1612778]
bas 41, expnt(s) = [1.1]
bas 42, expnt(s) = [18.731137   2.8253937  0.6401217]
bas 43, expnt(s) = [0.1612778]
bas 44, expnt(s) = [1.1]
bas 45, expnt(s) = [18.731137   2.8253937  0.6401217]
bas 46, expnt(s) = [0.1612778]
bas 47, expnt(s) = [1.1]
bas 48, expnt(s) = [18.731137   2.8253937  0.6401217]
bas 49, expnt(s) = [0.1612778]
bas 50, expnt(s) = [1.1]
bas 51, expnt(s) = [18.731137   2.8253937  0.6401217]
bas 52, expnt(s) = [0.1612778]
bas 53, expnt(s) = [1.1]
bas 54, expnt(s) = [18.731137   2.8253937  0.6401217]
bas 55, expnt(s) = [0.1612778]
bas 56, expnt(s) = [1.1]
bas 57, expnt(s) = [18.731137   2.8253937  0.6401217]
bas 58, expnt(s) = [0.1612778]
bas 59, expnt(s) = [1.1]
bas 60, expnt(s) = [18.731137   2.8253937  0.6401217]
bas 61, expnt(s) = [0.1612778]
bas 62, expnt(s) = [1.1]
bas 63, expnt(s) = [18.731137   2.8253937  0.6401217]
bas 64, expnt(s) = [0.1612778]
bas 65, expnt(s) = [1.1]
bas 66, expnt(s) = [18.731137   2.8253937  0.6401217]
bas 67, expnt(s) = [0.1612778]
bas 68, expnt(s) = [1.1]
bas 69, expnt(s) = [18.731137   2.8253937  0.6401217]
bas 70, expnt(s) = [0.1612778]
bas 71, expnt(s) = [1.1]
bas 72, expnt(s) = [18.731137   2.8253937  0.6401217]
bas 73, expnt(s) = [0.1612778]
bas 74, expnt(s) = [1.1]
bas 75, expnt(s) = [18.731137   2.8253937  0.6401217]
bas 76, expnt(s) = [0.1612778]
bas 77, expnt(s) = [1.1]
CPU time:         0.71
arg.atm = [[ 6 20  1 23  0  0]
 [ 6 24  1 27  0  0]
 [ 6 28  1 31  0  0]
 [ 6 32  1 35  0  0]
 [ 6 36  1 39  0  0]
 [ 6 40  1 43  0  0]
 [ 1 44  1 47  0  0]
 [ 1 48  1 51  0  0]
 [ 1 52  1 55  0  0]
 [ 1 56  1 59  0  0]
 [ 1 60  1 63  0  0]
 [ 1 64  1 67  0  0]
 [ 1 68  1 71  0  0]
 [ 1 72  1 75  0  0]
 [ 1 76  1 79  0  0]
 [ 1 80  1 83  0  0]
 [ 1 84  1 87  0  0]
 [ 1 88  1 91  0  0]
 [ 1 92  1 95  0  0]
 [ 1 96  1 99  0  0]]
arg.bas = [[  0   0   6   1   0 110 116   0]
 [  0   0   3   1   0 122 125   0]
 [  0   0   1   1   0 128 129   0]
 [  0   1   3   1   0 130 133   0]
 [  0   1   1   1   0 136 137   0]
 [  0   2   1   1   0 138 139   0]
 [  1   0   6   1   0 110 116   0]
 [  1   0   3   1   0 122 125   0]
 [  1   0   1   1   0 128 129   0]
 [  1   1   3   1   0 130 133   0]
 [  1   1   1   1   0 136 137   0]
 [  1   2   1   1   0 138 139   0]
 [  2   0   6   1   0 110 116   0]
 [  2   0   3   1   0 122 125   0]
 [  2   0   1   1   0 128 129   0]
 [  2   1   3   1   0 130 133   0]
 [  2   1   1   1   0 136 137   0]
 [  2   2   1   1   0 138 139   0]
 [  3   0   6   1   0 110 116   0]
 [  3   0   3   1   0 122 125   0]
 [  3   0   1   1   0 128 129   0]
 [  3   1   3   1   0 130 133   0]
 [  3   1   1   1   0 136 137   0]
 [  3   2   1   1   0 138 139   0]
 [  4   0   6   1   0 110 116   0]
 [  4   0   3   1   0 122 125   0]
 [  4   0   1   1   0 128 129   0]
 [  4   1   3   1   0 130 133   0]
 [  4   1   1   1   0 136 137   0]
 [  4   2   1   1   0 138 139   0]
 [  5   0   6   1   0 110 116   0]
 [  5   0   3   1   0 122 125   0]
 [  5   0   1   1   0 128 129   0]
 [  5   1   3   1   0 130 133   0]
 [  5   1   1   1   0 136 137   0]
 [  5   2   1   1   0 138 139   0]
 [  6   0   3   1   0 100 103   0]
 [  6   0   1   1   0 106 107   0]
 [  6   1   1   1   0 108 109   0]
 [  7   0   3   1   0 100 103   0]
 [  7   0   1   1   0 106 107   0]
 [  7   1   1   1   0 108 109   0]
 [  8   0   3   1   0 100 103   0]
 [  8   0   1   1   0 106 107   0]
 [  8   1   1   1   0 108 109   0]
 [  9   0   3   1   0 100 103   0]
 [  9   0   1   1   0 106 107   0]
 [  9   1   1   1   0 108 109   0]
 [ 10   0   3   1   0 100 103   0]
 [ 10   0   1   1   0 106 107   0]
 [ 10   1   1   1   0 108 109   0]
 [ 11   0   3   1   0 100 103   0]
 [ 11   0   1   1   0 106 107   0]
 [ 11   1   1   1   0 108 109   0]
 [ 12   0   3   1   0 100 103   0]
 [ 12   0   1   1   0 106 107   0]
 [ 12   1   1   1   0 108 109   0]
 [ 13   0   3   1   0 100 103   0]
 [ 13   0   1   1   0 106 107   0]
 [ 13   1   1   1   0 108 109   0]
 [ 14   0   3   1   0 100 103   0]
 [ 14   0   1   1   0 106 107   0]
 [ 14   1   1   1   0 108 109   0]
 [ 15   0   3   1   0 100 103   0]
 [ 15   0   1   1   0 106 107   0]
 [ 15   1   1   1   0 108 109   0]
 [ 16   0   3   1   0 100 103   0]
 [ 16   0   1   1   0 106 107   0]
 [ 16   1   1   1   0 108 109   0]
 [ 17   0   3   1   0 100 103   0]
 [ 17   0   1   1   0 106 107   0]
 [ 17   1   1   1   0 108 109   0]
 [ 18   0   3   1   0 100 103   0]
 [ 18   0   1   1   0 106 107   0]
 [ 18   1   1   1   0 108 109   0]
 [ 19   0   3   1   0 100 103   0]
 [ 19   0   1   1   0 106 107   0]
 [ 19   1   1   1   0 108 109   0]]
arg.env = [ 1.37036000e+02  0.00000000e+00  0.00000000e+00  0.00000000e+00
  0.00000000e+00  0.00000000e+00  0.00000000e+00  0.00000000e+00
  0.00000000e+00  0.00000000e+00  0.00000000e+00  0.00000000e+00
  0.00000000e+00  0.00000000e+00  0.00000000e+00  0.00000000e+00
  0.00000000e+00  0.00000000e+00  0.00000000e+00  0.00000000e+00
 -1.46653551e+01 -1.30519574e+00  1.34961840e+00  0.00000000e+00
 -1.36952789e+01  6.66627914e-02 -1.02653262e+00  0.00000000e+00
 -1.07851055e+01  7.12349270e-02 -1.02387327e+00  0.00000000e+00
 -9.81502741e+00  1.44220636e+00 -3.40053546e+00  0.00000000e+00
 -6.90485441e+00  1.44697253e+00 -3.39776433e+00  0.00000000e+00
 -5.93477630e+00  2.81792171e+00 -5.77443935e+00  0.00000000e+00
 -1.39913759e+01 -3.21157035e+00  1.34961840e+00  0.00000000e+00
 -1.39913411e+01 -3.52021301e-01  3.00058046e+00  0.00000000e+00
 -1.66873621e+01 -1.30517083e+00  1.34961840e+00  0.00000000e+00
 -1.43722750e+01  1.97196721e+00 -1.02838219e+00  0.00000000e+00
 -1.43662727e+01 -8.88644390e-01 -2.67749223e+00  0.00000000e+00
 -1.01081116e+01 -1.83406948e+00 -1.02131137e+00  0.00000000e+00
 -1.01141119e+01  1.02715801e+00  6.26729880e-01  0.00000000e+00
 -1.04921498e+01  3.34746500e+00 -3.40317425e+00  0.00000000e+00
 -1.04858934e+01  4.86193802e-01 -5.05113866e+00  0.00000000e+00
 -6.22773366e+00 -4.58286648e-01 -3.39510671e+00  0.00000000e+00
 -6.23398799e+00  2.40300070e+00 -1.74717034e+00  0.00000000e+00
 -6.61190136e+00  4.72317936e+00 -5.77709765e+00  0.00000000e+00
 -6.60563958e+00  1.86189178e+00 -7.42503360e+00  0.00000000e+00
 -3.91277298e+00  2.82123614e+00 -5.77251232e+00  0.00000000e+00
  1.87311370e+01  2.82539370e+00  6.40121700e-01  7.61926220e-01
  1.29237100e+00  1.47131900e+00  1.61277800e-01  6.42977783e-01
  1.10000000e+00  3.28643653e+00  3.04752490e+03  4.57369510e+02
  1.03948690e+02  2.92101550e+01  9.28666300e+00  3.16392700e+00
  1.90125588e+00  3.50751108e+00  5.66221808e+00  7.37052623e+00
  6.28928397e+00  2.17153894e+00  7.86827240e+00  1.88128850e+00
  5.44249300e-01 -1.41639039e+00 -6.52813326e-01  1.83055623e+00
  1.68714400e-01  6.65088040e-01  7.86827240e+00  1.88128850e+00
  5.44249300e-01  2.65263212e+00  2.03386926e+00  1.01504332e+00
  1.68714400e-01  3.15445679e-01  8.00000000e-01  1.76578110e+00]
ecpbas  = []


******** <class 'pyscf.qmmm.itrf.mm_charge.<locals>.QMMM'> ********
method = QMMM-RHF
initial guess = minao
damping factor = 0
level shift factor = 0
DIIS = <class 'pyscf.scf.diis.CDIIS'>
DIIS start cycle = 1
DIIS space = 8
SCF tol = 1e-09
SCF gradient tol = None
max. SCF cycles = 50
direct_scf = True
direct_scf_tol = 1e-13
chkfile to save SCF result = /home/liwei01/wsr/dftpart/test_2body/c8h18/tmpyp627nmx
max_memory 4000 MB (current use 65 MB)
** Add background charges for <class 'pyscf.scf.hf.RHF'> **
Charge      Location
-0.418003    [-3.0246033   2.822692   -5.77166587]
0.210748    [-2.34747985  0.91743378 -5.76900988]
0.210748    [-2.35373959  3.77871922 -4.12107023]
-0.633884    [-2.05452519  4.19364529 -8.14833852]
0.210439    [-2.73164755  6.09890391 -8.15099186]
0.214544    [-0.03252187  4.19695683 -8.14641313]
0.210439    [-2.72539119  3.23762015 -9.79893443]
Set gradient conv threshold to 3.16228e-05
Nelec from initial guess = 49.9718750009958
cond(S) = 1795.1270682574855
E1 = -796.7708484395209  E_coul = 314.2702098897705
init E= -237.039580042451
    CPU time for initialize scf      7.68 sec, wall time      1.11 sec
  HOMO = -0.31225155081083  LUMO = 0.142460534234937
  mo_energy =
[-11.43946863 -11.43470866 -11.43212835 -11.42852205 -11.42119788
 -11.38166733  -1.66822561  -1.50800347  -1.29496136  -1.07951926
  -0.94790761  -0.93683107  -0.6971338   -0.61621067  -0.58119377
  -0.54598392  -0.51730509  -0.47065637  -0.44619424  -0.43388855
  -0.40657966  -0.3959247   -0.3868642   -0.38552491  -0.31225155
   0.14246053   0.15873999   0.19063295   0.19558393   0.2055591
   0.23417419   0.24643014   0.246624     0.26096826   0.2762726
   0.28417301   0.2899862    0.29322205   0.29722164   0.30351035
   0.3169501    0.34586993   0.35099159   0.38125036   0.60485309
   0.62935017   0.64787737   0.67246318   0.69052862   0.69710231
   0.70017022   0.73510253   0.76831106   0.77372572   0.81047425
   0.82444581   0.87262958   0.88984192   0.91642848   0.95076846
   0.97122907   0.99813086   1.03930421   1.04293398   1.05594285
   1.07902029   1.08802621   1.08813652   1.10347049   1.10862929
   1.11298673   1.12049772   1.13230211   1.14418847   1.1602735
   1.24747282   1.2791902    1.42863607   1.44168313   1.48468889
   1.54969224   1.59146108   1.63946006   1.69750524   1.72293799
   1.77324914   1.85600372   1.86363288   1.88785642   1.89823074
   1.90246515   2.000782     2.00754466   2.06282047   2.08163936
   2.10492042   2.13957414   2.18111393   2.27116855   2.29699632
   2.31119849   2.31941476   2.32865709   2.3347212    2.37154043
   2.3992027    2.40148063   2.4053614    2.47493542   2.48357628
   2.49717687   2.5250996    2.52851932   2.54137561   2.55417924
   2.57644122   2.6078349    2.67794503   2.69076533   2.70815829
   2.75912872   2.80082759   2.87698914   2.90321252   2.9067236
   2.92623452   2.95029856   3.00889644   3.04056417   3.0540891
   3.05503738   3.12316517   3.14422899   3.16944677   3.180799
   3.18346973   3.20806699   3.21081415   3.27214581   3.27306528
   3.51121692   3.55342891   3.58264696   3.60175464   3.61451611
   3.65557233   3.67594289   3.72380842   3.77131801   3.79356825
   3.85404835   3.88346713   3.89212973   4.02483782]
E1 = -805.0415126666533  E_coul = 324.10201132767327
cycle= 1 E= -235.47844283168  delta_E= 1.56  |g|= 0.424  |ddm|= 3.46
    CPU time for cycle= 1      0.84 sec, wall time      0.12 sec
diis-norm(errvec)=0.930637
diis-c [-0.86608539  1.        ]
  HOMO = -0.34387307664614  LUMO = 0.245088978383483
  mo_energy =
[-11.15770065 -11.14519133 -11.14447684 -11.13720287 -11.13494274
 -11.0959204   -1.04840747  -0.99710347  -0.92079369  -0.83132903
  -0.77213358  -0.76055671  -0.6293079   -0.58556195  -0.55743984
  -0.52606664  -0.52109537  -0.47941214  -0.47236505  -0.45005867
  -0.44670571  -0.43635853  -0.4354287   -0.41453724  -0.34387308
   0.24508898   0.26403177   0.29082608   0.29646527   0.30311475
   0.33760441   0.33982501   0.35925019   0.36022568   0.36762074
   0.37017966   0.39242991   0.39797617   0.40320913   0.4184669
   0.43148075   0.48504981   0.4913629    0.5040166    0.70889975
   0.74048804   0.76333494   0.76498602   0.78687676   0.79446171
   0.81977137   0.87129819   0.87184138   0.91548431   0.97765031
   1.00307175   1.01870657   1.03134982   1.05926883   1.10992063
   1.1107005    1.13936394   1.17454488   1.17715573   1.196411
   1.21588468   1.21763732   1.22678566   1.23503915   1.23516948
   1.2421026    1.25003554   1.26436386   1.27166398   1.28048871
   1.35077242   1.39749054   1.5792232    1.59349411   1.60460777
   1.69516398   1.70337388   1.74930577   1.82473766   1.84185997
   1.89875406   1.98791827   1.99610362   2.02334636   2.03391156
   2.04771032   2.14121292   2.1886731    2.2210964    2.23511168
   2.25301371   2.30494107   2.34276525   2.36470918   2.42108083
   2.4295736    2.44946985   2.46124296   2.46419055   2.47459893
   2.52856925   2.54683101   2.55642861   2.57936598   2.5830893
   2.60135996   2.63118977   2.65788112   2.66456716   2.68315598
   2.6878554    2.74193976   2.7967039    2.80029552   2.83841449
   2.89029299   2.9121426    2.99216306   3.0410108    3.04736934
   3.06995789   3.07825097   3.12608277   3.15930139   3.19035352
   3.20413757   3.24991956   3.28402667   3.28724131   3.3082571
   3.32177426   3.34228773   3.35191368   3.36941524   3.39281707
   3.64721998   3.69446721   3.72287877   3.74785074   3.75320268
   3.79396626   3.82063804   3.86878118   3.91831139   3.94189758
   4.002253     4.03695737   4.04567481   4.09881134]
E1 = -803.2351440202833  E_coul = 322.2409595027225
cycle= 2 E= -235.533126010261  delta_E= -0.0547  |g|= 0.116  |ddm|= 0.436
    CPU time for cycle= 2      0.69 sec, wall time      0.09 sec
diis-norm(errvec)=0.267814
diis-c [-0.07011389 -0.04709993  1.04709993]
  HOMO = -0.390470873125849  LUMO = 0.234755094258662
  mo_energy =
[-11.21993202 -11.21796537 -11.21652322 -11.21302944 -11.21217182
 -11.15866218  -1.08522893  -1.02971199  -0.94916694  -0.85635978
  -0.79408317  -0.78301541  -0.65605815  -0.60940338  -0.58373975
  -0.55803396  -0.54945692  -0.5119698   -0.49585928  -0.48626946
  -0.47133912  -0.46665631  -0.46050499  -0.44737719  -0.39047087
   0.23475509   0.25606306   0.27875256   0.28795417   0.29528123
   0.33083762   0.33117893   0.35028204   0.3507767    0.35728962
   0.35753951   0.37919129   0.38952819   0.39030368   0.40290951
   0.4164913    0.45945516   0.47236501   0.48205036   0.68878632
   0.71487708   0.73627545   0.74809757   0.76844788   0.77261235
   0.79418111   0.84578258   0.85159239   0.88901073   0.94230034
   0.96596312   0.99358386   0.99822212   1.02630667   1.08005374
   1.08542721   1.11341826   1.15679721   1.15784552   1.1818714
   1.19767488   1.19885861   1.21069117   1.21563551   1.21698681
   1.22343953   1.22884624   1.24939095   1.25576721   1.25962137
   1.34371303   1.37714014   1.54926313   1.56006489   1.58279733
   1.66785126   1.68425599   1.72912013   1.80552035   1.81575556
   1.87720706   1.96749326   1.9742635    1.99987177   2.0123084
   2.01813338   2.11484443   2.1474688    2.19069489   2.20448512
   2.22443576   2.2722927    2.31073616   2.36483885   2.41342683
   2.42145665   2.42882559   2.44184652   2.4531319    2.46534375
   2.51111971   2.52410423   2.52555176   2.57174737   2.57194269
   2.59230705   2.62263799   2.64357116   2.64911314   2.66279528
   2.67193768   2.7218388    2.78384587   2.78804122   2.82336166
   2.87088883   2.89794638   2.97864272   3.02134859   3.02637535
   3.04709538   3.06073509   3.1127713    3.14422441   3.17033506
   3.1767513    3.23471734   3.26452556   3.2721722    3.29071153
   3.30147853   3.32387185   3.32879484   3.3573366    3.37504812
   3.63492289   3.67694408   3.70632052   3.72697372   3.73750369
   3.77772231   3.80214984   3.84815554   3.89878145   3.92315109
   3.98236956   4.01339105   4.02134688   4.09078225]
E1 = -804.1345309797217  E_coul = 323.1362007855037
cycle= 3 E= -235.537271686918  delta_E= -0.00415  |g|= 0.0433  |ddm|= 0.148
    CPU time for cycle= 3      0.77 sec, wall time      0.10 sec
diis-norm(errvec)=0.0946748
diis-c [-0.00128962 -0.09074645  0.19768711  0.89305935]
  HOMO = -0.378612041873201  LUMO = 0.239988882239293
  mo_energy =
[-11.1953625  -11.19246134 -11.18978411 -11.18365701 -11.18086469
 -11.139714    -1.06942401  -1.01558766  -0.93672231  -0.84502456
  -0.78373868  -0.77198591  -0.6452726   -0.5999211   -0.57445016
  -0.54538339  -0.54086925  -0.50160722  -0.48785376  -0.47570279
  -0.46335701  -0.45725083  -0.45232666  -0.43731484  -0.37861204
   0.23998888   0.26106168   0.28499128   0.29309863   0.30052003
   0.33522224   0.33631683   0.35505665   0.35600628   0.3626097
   0.36488406   0.38581324   0.39451521   0.39688543   0.41077295
   0.42395902   0.47097232   0.48202592   0.49196432   0.69633528
   0.7231885    0.74542388   0.75427652   0.77636679   0.78028096
   0.80371757   0.85481991   0.85938972   0.899206     0.95597045
   0.9797737    1.00354027   1.010525     1.03875325   1.09283692
   1.09570562   1.12449927   1.16543832   1.16603413   1.19056326
   1.20680444   1.20720613   1.22021919   1.22463392   1.22610132
   1.232866     1.23910244   1.25758482   1.26408739   1.26822936
   1.34970019   1.38648562   1.56217691   1.57375877   1.59146329
   1.67934401   1.69212766   1.73741904   1.81372255   1.82650878
   1.88701663   1.97738554   1.98486095   2.01115908   2.02278007
   2.03019735   2.12546816   2.16312919   2.20369528   2.21664581
   2.2367658    2.28554509   2.3239736    2.36952033   2.42093558
   2.42757594   2.43964495   2.45244779   2.46008177   2.47234485
   2.5209923    2.53591367   2.53872771   2.57823984   2.58003765
   2.59990202   2.63003845   2.65384039   2.65641708   2.6747996
   2.67999048   2.7323779    2.79314076   2.79529563   2.83158654
   2.88107522   2.90658751   2.98733934   3.03168011   3.03760073
   3.05857528   3.06932454   3.1208907    3.15316421   3.18091748
   3.18905484   3.24365138   3.27613361   3.28058022   3.30074101
   3.3110346    3.33403742   3.33964248   3.36498707   3.38460025
   3.64373214   3.68787431   3.71657459   3.73868803   3.7473752
   3.78788828   3.81261712   3.85959308   3.90923989   3.93300887
   3.99307212   4.02590026   4.03421669   4.09728905]
E1 = -803.819389189399  E_coul = 322.82050629161137
cycle= 4 E= -235.537824390488  delta_E= -0.000553  |g|= 0.00396  |ddm|= 0.0476
    CPU time for cycle= 4      0.67 sec, wall time      0.08 sec
diis-norm(errvec)=0.00831543
diis-c [-4.40161883e-05  8.68669747e-03 -3.38945704e-02 -8.47482143e-02
  1.10995609e+00]
  HOMO = -0.380024457776738  LUMO = 0.239716843057509
  mo_energy =
[-11.19707937 -11.1919964  -11.19162531 -11.18711791 -11.18420543
 -11.13900721  -1.07034822  -1.01623522  -0.93720151  -0.84549127
  -0.78431498  -0.77279541  -0.64597384  -0.6004499   -0.57486801
  -0.54645361  -0.54126231  -0.50243217  -0.48826492  -0.47644121
  -0.46401542  -0.45810969  -0.45309155  -0.43832449  -0.38002446
   0.23971684   0.26080563   0.28471173   0.29282747   0.30024819
   0.33510568   0.33615837   0.35490686   0.35567028   0.36237056
   0.3644881    0.38541718   0.39404723   0.39656236   0.41031979
   0.42349452   0.47016101   0.48129551   0.49119176   0.69566857
   0.72238541   0.74461496   0.75399797   0.77587524   0.77961898
   0.80284761   0.85433775   0.85891014   0.89842193   0.95484651
   0.97882042   1.00283984   1.00947233   1.03767284   1.09186319
   1.09478795   1.12379693   1.16532992   1.1656701    1.18991703
   1.20609089   1.20691987   1.21955593   1.22398241   1.22569262
   1.2321849    1.23831578   1.25704518   1.26356661   1.26766846
   1.34910618   1.38589435   1.56122508   1.57281208   1.59090745
   1.67864828   1.6916534    1.73677486   1.81307033   1.82579615
   1.88640866   1.97679922   1.98409409   2.01019313   2.02202116
   2.02935942   2.1246981    2.16188871   2.20269044   2.21584138
   2.23570957   2.28464347   2.3229932    2.36935282   2.42071069
   2.42746125   2.43880757   2.4514922    2.45997378   2.47199179
   2.52023069   2.53496848   2.53766862   2.57784929   2.57940513
   2.59930012   2.62947782   2.65326393   2.65594078   2.67396009
   2.67944282   2.73159164   2.79252811   2.7947397    2.83122599
   2.88041939   2.90587386   2.98666887   3.03098076   3.03680451
   3.05764177   3.06885946   3.12040938   3.1524973    3.18012434
   3.18823448   3.24303549   3.27527375   3.27993923   3.29997148
   3.31059641   3.33345964   3.33886576   3.36446918   3.38393936
   3.64340222   3.68709217   3.71595447   3.73787441   3.74684586
   3.78721414   3.81209152   3.85878031   3.90885072   3.93265342
   3.99256779   4.02497804   4.03312919   4.09676369]
E1 = -803.8245147769966  E_coul = 322.82562512631273
cycle= 5 E= -235.537831143384  delta_E= -6.75e-06  |g|= 0.00123  |ddm|= 0.00776
    CPU time for cycle= 5      0.71 sec, wall time      0.11 sec
diis-norm(errvec)=0.00259195
diis-c [-3.04535902e-06  4.59048494e-03 -1.27898025e-02 -4.83219680e-02
  2.09368800e-01  8.47152485e-01]
  HOMO = -0.380085089157799  LUMO = 0.239722053623294
  mo_energy =
[-11.19708586 -11.19253703 -11.19171384 -11.1864268  -11.183538
 -11.13984038  -1.07027364  -1.01628689  -0.93731023  -0.84559445
  -0.78433022  -0.77271035  -0.64590623  -0.6004609   -0.57502978
  -0.54643732  -0.54134099  -0.50247872  -0.48836074  -0.4766507
  -0.46401988  -0.45817554  -0.45305101  -0.43833015  -0.38008509
   0.23972205   0.26077955   0.28474912   0.29284864   0.30019603
   0.33500452   0.33610247   0.35487934   0.35566715   0.36238587
   0.36446957   0.38545338   0.39399519   0.39656333   0.41030362
   0.42348931   0.47018176   0.48130647   0.49120846   0.69565288
   0.72231915   0.74457648   0.75385536   0.7758367    0.77964268
   0.80285881   0.85415959   0.85885081   0.89836051   0.95489076
   0.97875815   1.00285219   1.00945186   1.03775775   1.09199574
   1.09479192   1.12384499   1.16509903   1.16557438   1.18989583
   1.20608491   1.20679947   1.21955362   1.22394763   1.22563542
   1.23224043   1.23835971   1.25697534   1.26348174   1.26760606
   1.34890578   1.38584646   1.56124748   1.57282424   1.59085429
   1.67855549   1.6915829    1.73676906   1.81306844   1.82572762
   1.88634994   1.97670995   1.98409074   2.01026546   2.02200631
   2.02931479   2.12470511   2.16195901   2.20275172   2.21580456
   2.23577391   2.28463323   2.32300367   2.36916166   2.4205003
   2.42722223   2.43885218   2.45158629   2.45970055   2.47178112
   2.52024947   2.53507558   2.5377279    2.57761542   2.57944147
   2.59932866   2.62949283   2.65317561   2.65591498   2.67398271
   2.67943041   2.73163195   2.7925049    2.79474305   2.83106078
   2.88037912   2.90580283   2.98669516   3.03095074   3.03681024
   3.05772165   3.06872897   3.12024682   3.15252478   3.18012734
   3.1882129    3.24299905   3.27530904   3.27995796   3.30003875
   3.31045469   3.33340119   3.33888347   3.36430598   3.3838678
   3.6432362    3.68710504   3.71590704   3.7379031    3.74676146
   3.78717935   3.81198761   3.85878954   3.90868807   3.93247151
   3.99244546   4.02503324   4.03324923   4.09651511]
E1 = -803.8228885592995  E_coul = 322.8239984146539
cycle= 6 E= -235.537831637346  delta_E= -4.94e-07  |g|= 0.00027  |ddm|= 0.00159
    CPU time for cycle= 6      1.03 sec, wall time      0.14 sec
diis-norm(errvec)=0.000554204
diis-c [-1.58795135e-07 -2.63102957e-04  1.21667436e-03  1.89761651e-03
 -5.84811187e-02  2.39516172e-02  1.03167831e+00]
  HOMO = -0.380105432675507  LUMO = 0.239718119388453
  mo_energy =
[-11.19697867 -11.19237972 -11.19172428 -11.18647017 -11.18353055
 -11.13970111  -1.07028711  -1.01627931  -0.937303    -0.84558732
  -0.78432925  -0.77272125  -0.64590836  -0.60044496  -0.57500983
  -0.54644336  -0.54132453  -0.5024779   -0.4883451   -0.47663324
  -0.46401475  -0.45816969  -0.45304973  -0.43833377  -0.38010543
   0.23971812   0.26077957   0.28474676   0.29284413   0.30019565
   0.33501803   0.33611461   0.35488919   0.35566572   0.36238865
   0.36446689   0.38545178   0.39399721   0.3965611    0.41031108
   0.42349243   0.47017657   0.48131243   0.49121121   0.69565091
   0.72231806   0.74457344   0.75387561   0.7758381    0.77963765
   0.80285934   0.85417995   0.85886149   0.89836038   0.95489308
   0.97877333   1.0028625    1.00945414   1.03774587   1.09198991
   1.09479113   1.12384792   1.16513452   1.16559931   1.18990401
   1.20609206   1.20682222   1.21955447   1.2239571    1.22564415
   1.2322423    1.23835067   1.25698524   1.26349362   1.26760819
   1.34893935   1.38585366   1.56125235   1.57282661   1.59085729
   1.67857507   1.69158362   1.73676137   1.81306462   1.82573574
   1.88635551   1.97672236   1.98408728   2.01025616   2.02200423
   2.02932499   2.12470482   2.16196082   2.20274731   2.21581288
   2.23577195   2.28463578   2.32301216   2.36918144   2.42052273
   2.42724457   2.43884498   2.45158274   2.45973513   2.47180937
   2.52025139   2.53505495   2.53772295   2.5776439    2.57942979
   2.59932317   2.62948795   2.65318984   2.65591235   2.67397738
   2.67942773   2.73162353   2.792504     2.79474363   2.83108604
   2.88038228   2.90581844   2.9866882    3.03095548   3.03681128
   3.05771706   3.06874847   3.12026874   3.15251948   3.18013026
   3.18821798   3.24300973   3.27530101   3.27995716   3.30002204
   3.31047493   3.33340799   3.3388803    3.36432627   3.38387956
   3.64326185   3.68710704   3.71591668   3.73790368   3.74677408
   3.78719229   3.81200969   3.85879147   3.90870842   3.9324994
   3.99246765   4.02502881   4.03324218   4.09655896]
E1 = -803.8221368920347  E_coul = 322.823246710056
cycle= 7 E= -235.537831674679  delta_E= -3.73e-08  |g|= 6.41e-05  |ddm|= 0.000575
    CPU time for cycle= 7      0.68 sec, wall time      0.08 sec
diis-norm(errvec)=0.00013831
diis-c [-6.80375011e-09 -2.62767119e-04  5.71528053e-04  3.14200019e-03
 -6.54059167e-03 -5.60890586e-02 -8.68119804e-02  1.14599087e+00]
  HOMO = -0.38011746213514  LUMO = 0.239717046827903
  mo_energy =
[-11.19702109 -11.19240132 -11.19171807 -11.18646289 -11.18354829
 -11.13972111  -1.0702936   -1.01628986  -0.93731203  -0.84559641
  -0.78433705  -0.77272613  -0.64590913  -0.60044833  -0.57501735
  -0.54645003  -0.54132649  -0.50248274  -0.4883477   -0.47664788
  -0.464017    -0.45817707  -0.45305021  -0.43833733  -0.38011746
   0.23971705   0.26077668   0.28474676   0.2928424    0.30019126
   0.33501344   0.33611215   0.35488747   0.3556626    0.3623896
   0.36446396   0.38545122   0.39398991   0.39656143   0.41030678
   0.42348916   0.4701725    0.48130617   0.4912047    0.69564725
   0.72231027   0.74456861   0.75387026   0.77583638   0.77963778
   0.80285355   0.85417208   0.85885767   0.89835493   0.95488545
   0.9787642    1.00285826   1.00944394   1.03774337   1.09199038
   1.09478531   1.12384552   1.16512606   1.16559418   1.18990038
   1.20608577   1.20681774   1.21955147   1.2239513    1.22564279
   1.23224047   1.23834951   1.25697939   1.26348836   1.26760321
   1.3489241    1.38584889   1.56124685   1.57282076   1.5908527
   1.67856655   1.6915802    1.73675833   1.81306026   1.82573052
   1.88635067   1.97671621   1.98408427   2.01025244   2.02200101
   2.02931755   2.12469898   2.16195442   2.20274241   2.21580604
   2.23576578   2.28463099   2.32300319   2.36917617   2.42051776
   2.42724036   2.43884255   2.45157837   2.45972713   2.47180069
   2.52024667   2.53505586   2.53771702   2.57763324   2.57942891
   2.5993213    2.62948632   2.65318323   2.65591051   2.67397504
   2.67942567   2.7316222    2.79250019   2.79474084   2.8310762
   2.88037715   2.90580882   2.98668585   3.03094972   3.03680718
   3.05771426   3.0687422    3.12026089   3.15251713   3.18012422
   3.18821382   3.2430037    3.27529853   3.27995463   3.30002234
   3.31046729   3.33340322   3.33887653   3.36431662   3.38387278
   3.64325526   3.68710415   3.7159127    3.73790067   3.74676907
   3.78718637   3.81200337   3.85878777   3.90870454   3.93249159
   3.99246088   4.02502603   4.03323944   4.09654134]
E1 = -803.8222413376438  E_coul = 322.82335115343017
cycle= 8 E= -235.537831676914  delta_E= -2.24e-09  |g|= 1.51e-05  |ddm|= 0.000164
    CPU time for cycle= 8      0.72 sec, wall time      0.10 sec
diis-norm(errvec)=3.26212e-05
diis-c [-5.38340388e-10 -3.41438491e-05  4.31018010e-05  5.00516368e-04
  1.54345030e-03 -1.05044211e-02 -5.98163466e-02  1.71968474e-01
  8.96299369e-01]
  HOMO = -0.380118674748824  LUMO = 0.239717288081267
  mo_energy =
[-11.19700956 -11.19240435 -11.19172441 -11.18647232 -11.18354391
 -11.13972648  -1.07029385  -1.01628944  -0.93731315  -0.84559745
  -0.78433659  -0.77272661  -0.64590889  -0.60044727  -0.57501745
  -0.54645052  -0.5413272   -0.50248368  -0.48834831  -0.47664721
  -0.46401647  -0.45817642  -0.45305027  -0.43833781  -0.38011867
   0.23971729   0.26077655   0.28474687   0.29284258   0.30019068
   0.33501345   0.33611229   0.35488857   0.3556629    0.36238947
   0.36446326   0.38545129   0.3939893    0.39656079   0.41030715
   0.42348921   0.47017081   0.4813058    0.49120479   0.69564686
   0.72231036   0.74456835   0.75387096   0.77583564   0.77963753
   0.80285394   0.85417182   0.85885761   0.8983538    0.95488605
   0.97876446   1.00285907   1.00944421   1.03774193   1.09198958
   1.09478489   1.1238458    1.16512591   1.16559454   1.18990022
   1.20608604   1.20681761   1.21955079   1.22395164   1.22564159
   1.23224098   1.23834821   1.25697878   1.26348799   1.2676023
   1.34892204   1.38584889   1.56124678   1.5728204    1.59085257
   1.67856671   1.69157943   1.73675789   1.81306065   1.82572922
   1.88635069   1.97671643   1.98408395   2.01025279   2.02200028
   2.02931696   2.12469957   2.16195393   2.20274275   2.21580597
   2.23576613   2.28463007   2.32300364   2.36917553   2.4205166
   2.42723897   2.43884261   2.45157964   2.45972645   2.47179956
   2.52024742   2.53505465   2.53771626   2.57763113   2.57942907
   2.59932219   2.62948687   2.65318351   2.65591057   2.67397409
   2.67942557   2.73162172   2.79250017   2.79474176   2.83107714
   2.88037685   2.90580826   2.98668575   3.0309497    3.03680671
   3.0577146    3.06874158   3.12025942   3.15251745   3.18012455
   3.18821254   3.24300489   3.27529751   3.27995512   3.30002129
   3.3104678    3.333403     3.33887651   3.36431514   3.38387204
   3.64325501   3.68710334   3.71591234   3.73790048   3.7467691
   3.78718668   3.81200354   3.85878675   3.90870293   3.93249147
   3.99246117   4.02502589   4.03323952   4.096539  ]
E1 = -803.8222578187406  E_coul = 322.8233676344307
cycle= 9 E= -235.53783167701  delta_E= -9.62e-11  |g|= 4.14e-06  |ddm|= 2.78e-05
    CPU time for cycle= 9      1.10 sec, wall time      0.15 sec
  HOMO = -0.380118215913635  LUMO = 0.239717437555926
  mo_energy =
[-11.19701179 -11.19240363 -11.19172361 -11.1864702  -11.18354437
 -11.13972507  -1.0702936   -1.01628931  -0.93731277  -0.84559715
  -0.78433647  -0.77272614  -0.64590873  -0.60044716  -0.5750173
  -0.54645019  -0.54132696  -0.50248336  -0.4883482   -0.47664709
  -0.46401644  -0.45817631  -0.45304995  -0.43833727  -0.38011822
   0.23971744   0.26077673   0.28474698   0.29284269   0.30019079
   0.33501353   0.33611237   0.35488854   0.35566298   0.36238964
   0.3644634    0.38545145   0.39398944   0.39656092   0.41030727
   0.42348935   0.47017111   0.48130603   0.49120489   0.69564705
   0.72231062   0.74456859   0.75387096   0.77583586   0.77963776
   0.80285411   0.85417216   0.85885775   0.89835409   0.95488613
   0.97876469   1.00285913   1.00944433   1.03774234   1.09198985
   1.09478509   1.12384589   1.16512597   1.16559466   1.18990042
   1.20608625   1.20681772   1.21955097   1.22395176   1.2256418
   1.23224119   1.23834857   1.25697904   1.26348814   1.26760252
   1.34892243   1.38584906   1.561247     1.57282065   1.59085276
   1.67856688   1.69157968   1.73675809   1.81306082   1.82572964
   1.88635088   1.97671659   1.98408418   2.01025299   2.02200062
   2.02931722   2.12469969   2.1619542    2.2027429    2.21580614
   2.23576632   2.28463039   2.32300382   2.36917571   2.4205168
   2.42723909   2.43884275   2.45157983   2.45972667   2.4717998
   2.52024757   2.53505502   2.53771657   2.57763144   2.57942925
   2.59932235   2.62948706   2.65318358   2.65591074   2.67397441
   2.6794258    2.731622     2.79250036   2.79474196   2.83107708
   2.88037705   2.90580856   2.98668597   3.03094991   3.0368069
   3.05771487   3.06874178   3.12025964   3.15251763   3.18012471
   3.18821283   3.24300494   3.27529787   3.27995537   3.30002162
   3.31046784   3.33340315   3.33887669   3.36431544   3.38387232
   3.64325517   3.6871037    3.71591255   3.7379007    3.74676915
   3.78718689   3.81200372   3.85878716   3.90870329   3.93249162
   3.99246126   4.02502606   4.03323987   4.09653947]
E1 = -803.8222597060706  E_coul = 322.82336952175365
Extra cycle  E= -235.537831677017  delta_E= -7.05e-12  |g|= 1.68e-06  |ddm|= 8.26e-06
    CPU time for scf_cycle     15.55 sec, wall time      2.16 sec
    CPU time for SCF     15.55 sec, wall time      2.16 sec
converged SCF energy = -235.537831677017
