#INFO: **** input file is /home/liwei01/wsr/dftpart/test_2body/c8b/eda_c8.py ****
from dftpart import scfeda

test1 = scfeda.EDA()
test1.gjf = 'c8b.gjf'
test1.method = ['hf','6-31gss']
test1.output = 'c8b'
test1.verbose = 9
#test1.build()
test1.showinter=True
test1.lso = 'c8b/c8b.lso'
test1.kernel()
        

#INFO: ******************** input file end ********************


System: uname_result(system='Linux', node='master', release='3.10.0-693.el7.x86_64', version='#1 SMP Tue Aug 22 21:09:27 UTC 2017', machine='x86_64', processor='x86_64')  Threads 20
Python 3.6.4 |Anaconda, Inc.| (default, Jan 16 2018, 18:10:19) 
[GCC 7.2.0]
numpy 1.14.0  scipy 1.0.0
Date: Sat Mar 28 15:37:22 2020
PySCF version 1.6.1
PySCF path  /home/liwei01/zcheng/pyscf/pyscf
GIT HEAD      ref: refs/heads/master
GIT master branch  3adc7fd25839fe674469a52b764c3661e32d7318

[CONFIG] DEBUG = False
[CONFIG] MAX_MEMORY = 4000
[CONFIG] TMPDIR = .
[CONFIG] UNIT = angstrom
[CONFIG] VERBOSE = 3
[CONFIG] conf_file = None
[INPUT] verbose = 9
[INPUT] max_memory = 4000 
[INPUT] num. atoms = 23
[INPUT] num. electrons = 74
[INPUT] charge = 0
[INPUT] spin (= nelec alpha-beta = 2S) = 0
[INPUT] symmetry False subgroup None
[INPUT] Mole.unit = angstrom
[INPUT]  1 C     -7.241242980000   0.108119710000  -0.522802850000 AA  -13.683966033629   0.204316640567  -0.987954203642 Bohr
[INPUT]  2 H     -7.548001040000   1.132595610000  -0.487467080000 AA  -14.263654753532   2.140295512785  -0.921179275941 Bohr
[INPUT]  3 H     -7.637948220000  -0.352815550000  -1.403179830000 AA  -14.433630289409  -0.666724761988  -2.651625582214 Bohr
[INPUT]  4 C     -5.703344760000   0.033502950000  -0.552826490000 AA  -10.777759590373   0.063311399865  -1.044690660505 Bohr
[INPUT]  5 H     -5.306639520000   0.494438220000   0.327550490000 AA  -10.028095334593   0.934352821317   0.618980718067 Bohr
[INPUT]  6 C     -5.177907760000   0.769963360000  -1.799077680000 AA   -9.784827564660   1.455019876350  -3.399764092018 Bohr
[INPUT]  7 H     -5.484665830000   1.794439260000  -1.763741910000 AA  -10.364516303460   3.390998748567  -3.332989164317 Bohr
[INPUT]  8 H     -5.574613010000   0.309028090000  -2.679454660000 AA  -10.534491839337   0.583978454897  -5.063435470590 Bohr
[INPUT]  9 C     -3.114572550000   1.431807010000  -3.075352510000 AA   -5.885689114588   2.705723112132  -5.811573980394 Bohr
[INPUT] 10 H     -3.421330610000   2.456282910000  -3.040016740000 AA   -6.465377834491   4.641701984350  -5.744799052693 Bohr
[INPUT] 11 H     -3.511277790000   0.970871740000  -3.955729490000 AA   -6.635353370368   1.834681690680  -7.475245358965 Bohr
[INPUT] 12 C     -1.576674330000   1.357190240000  -3.105376150000 AA   -2.979482671332   2.564717852533  -5.868310437256 Bohr
[INPUT] 13 H     -1.269916260000   0.332714340000  -3.140711910000 AA   -2.399793932532   0.628738980315  -5.935085346060 Bohr
[INPUT] 14 H     -1.179969090000   1.818125510000  -2.224999170000 AA   -2.229818415552   3.435759273985  -4.204639058685 Bohr
[INPUT] 15 N     -1.075120830000   2.060175180000  -4.294979550000 AA   -2.031683919515   3.893166858827  -8.116335060108 Bohr
[INPUT] 16 H     -1.361810610000   3.017629290000  -4.261955470000 AA   -2.573449086427   5.702492903566  -8.053928593392 Bohr
[INPUT] 17 H     -0.076485620000   2.011722740000  -4.314475430000 AA   -0.144536874268   3.801605017160  -8.153176933865 Bohr
[INPUT] 18 F     -5.316313560000  -1.259060100000  -0.597409000000 AA  -10.046376620711  -2.379278763367  -1.128939394350 Bohr
[INPUT] 19 O     -7.729148760000  -0.575736380000   0.634430400000 AA  -14.605974332422  -1.087984078149   1.198899701098 Bohr
[INPUT] 20 H     -8.687838560000  -0.529222040000   0.653146440000 AA  -16.417635492836  -1.000084714684   1.234267890835 Bohr
[INPUT] 21 C     -3.640009550000   0.695346600000  -1.829101320000 AA   -6.878621140301   1.314014635647  -3.456500548880 Bohr
[INPUT] 22 H     -3.333251480000  -0.329129310000  -1.864437080000 AA   -6.298932401501  -0.621964255467  -3.523275457684 Bohr
[INPUT] 23 H     -3.243304300000   1.156281860000  -0.948724340000 AA   -6.128956865624   2.185056038203  -1.792829170309 Bohr
[INPUT] ---------------- BASIS SET ---------------- 
[INPUT] l, kappa, [nprim/nctr], expnt,             c_1 c_2 ...
[INPUT] N
[INPUT] 0    0    [6    /1   ]  4173.511          0.0018348
                                627.4579          0.013995
                                142.9021          0.068587
                                40.23433          0.232241
                                12.82021          0.46907
                                4.390437          0.360455
[INPUT] 0    0    [3    /1   ]  11.626358         -0.114961
                                2.71628           -0.169118
                                0.772218          1.145852
[INPUT] 0    0    [1    /1   ]  0.2120313            1
[INPUT] 1    0    [3    /1   ]  11.626358         0.06758
                                2.71628           0.323907
                                0.772218          0.740895
[INPUT] 1    0    [1    /1   ]  0.2120313            1
[INPUT] 2    0    [1    /1   ]  0.8                  1
[INPUT] C
[INPUT] 0    0    [6    /1   ]  3047.5249         0.0018347
                                457.36951         0.0140373
                                103.94869         0.0688426
                                29.210155         0.2321844
                                9.286663          0.4679413
                                3.163927          0.362312
[INPUT] 0    0    [3    /1   ]  7.8682724         -0.1193324
                                1.8812885         -0.1608542
                                0.5442493         1.1434564
[INPUT] 0    0    [1    /1   ]  0.1687144            1
[INPUT] 1    0    [3    /1   ]  7.8682724         0.0689991
                                1.8812885         0.316424
                                0.5442493         0.7443083
[INPUT] 1    0    [1    /1   ]  0.1687144            1
[INPUT] 2    0    [1    /1   ]  0.8                  1
[INPUT] F
[INPUT] 0    0    [6    /1   ]  7001.71309        0.0018196169
                                1051.36609        0.0139160796
                                239.28569         0.0684053245
                                67.3974453        0.23318576
                                21.5199573        0.471267439
                                7.4031013         0.356618546
[INPUT] 0    0    [3    /1   ]  20.8479528        -0.108506975
                                4.80830834        -0.146451658
                                1.34406986        1.12868858
[INPUT] 0    0    [1    /1   ]  0.358151393          1
[INPUT] 1    0    [3    /1   ]  20.8479528        0.0716287243
                                4.80830834        0.345912103
                                1.34406986        0.722469957
[INPUT] 1    0    [1    /1   ]  0.358151393          1
[INPUT] 2    0    [1    /1   ]  0.8                  1
[INPUT] H
[INPUT] 0    0    [3    /1   ]  18.731137         0.0334946
                                2.8253937         0.23472695
                                0.6401217         0.81375733
[INPUT] 0    0    [1    /1   ]  0.1612778            1
[INPUT] 1    0    [1    /1   ]  1.1                  1
[INPUT] O
[INPUT] 0    0    [6    /1   ]  5484.6717         0.0018311
                                825.23495         0.0139501
                                188.04696         0.0684451
                                52.9645           0.2327143
                                16.89757          0.470193
                                5.7996353         0.3585209
[INPUT] 0    0    [3    /1   ]  15.539616         -0.1107775
                                3.5999336         -0.1480263
                                1.0137618         1.130767
[INPUT] 0    0    [1    /1   ]  0.2700058            1
[INPUT] 1    0    [3    /1   ]  15.539616         0.0708743
                                3.5999336         0.3397528
                                1.0137618         0.7271586
[INPUT] 1    0    [1    /1   ]  0.2700058            1
[INPUT] 2    0    [1    /1   ]  0.8                  1

nuclear repulsion = 470.404719938659
number of shells = 96
number of NR pGTOs = 341
number of NR cGTOs = 196
basis = 6-31gss
ecp = {}
bas 0, expnt(s) = [3047.5249    457.36951   103.94869    29.210155    9.286663    3.163927]
bas 1, expnt(s) = [7.8682724 1.8812885 0.5442493]
bas 2, expnt(s) = [0.1687144]
bas 3, expnt(s) = [7.8682724 1.8812885 0.5442493]
bas 4, expnt(s) = [0.1687144]
bas 5, expnt(s) = [0.8]
bas 6, expnt(s) = [18.731137   2.8253937  0.6401217]
bas 7, expnt(s) = [0.1612778]
bas 8, expnt(s) = [1.1]
bas 9, expnt(s) = [18.731137   2.8253937  0.6401217]
bas 10, expnt(s) = [0.1612778]
bas 11, expnt(s) = [1.1]
bas 12, expnt(s) = [3047.5249    457.36951   103.94869    29.210155    9.286663    3.163927]
bas 13, expnt(s) = [7.8682724 1.8812885 0.5442493]
bas 14, expnt(s) = [0.1687144]
bas 15, expnt(s) = [7.8682724 1.8812885 0.5442493]
bas 16, expnt(s) = [0.1687144]
bas 17, expnt(s) = [0.8]
bas 18, expnt(s) = [18.731137   2.8253937  0.6401217]
bas 19, expnt(s) = [0.1612778]
bas 20, expnt(s) = [1.1]
bas 21, expnt(s) = [3047.5249    457.36951   103.94869    29.210155    9.286663    3.163927]
bas 22, expnt(s) = [7.8682724 1.8812885 0.5442493]
bas 23, expnt(s) = [0.1687144]
bas 24, expnt(s) = [7.8682724 1.8812885 0.5442493]
bas 25, expnt(s) = [0.1687144]
bas 26, expnt(s) = [0.8]
bas 27, expnt(s) = [18.731137   2.8253937  0.6401217]
bas 28, expnt(s) = [0.1612778]
bas 29, expnt(s) = [1.1]
bas 30, expnt(s) = [18.731137   2.8253937  0.6401217]
bas 31, expnt(s) = [0.1612778]
bas 32, expnt(s) = [1.1]
bas 33, expnt(s) = [3047.5249    457.36951   103.94869    29.210155    9.286663    3.163927]
bas 34, expnt(s) = [7.8682724 1.8812885 0.5442493]
bas 35, expnt(s) = [0.1687144]
bas 36, expnt(s) = [7.8682724 1.8812885 0.5442493]
bas 37, expnt(s) = [0.1687144]
bas 38, expnt(s) = [0.8]
bas 39, expnt(s) = [18.731137   2.8253937  0.6401217]
bas 40, expnt(s) = [0.1612778]
bas 41, expnt(s) = [1.1]
bas 42, expnt(s) = [18.731137   2.8253937  0.6401217]
bas 43, expnt(s) = [0.1612778]
bas 44, expnt(s) = [1.1]
bas 45, expnt(s) = [3047.5249    457.36951   103.94869    29.210155    9.286663    3.163927]
bas 46, expnt(s) = [7.8682724 1.8812885 0.5442493]
bas 47, expnt(s) = [0.1687144]
bas 48, expnt(s) = [7.8682724 1.8812885 0.5442493]
bas 49, expnt(s) = [0.1687144]
bas 50, expnt(s) = [0.8]
bas 51, expnt(s) = [18.731137   2.8253937  0.6401217]
bas 52, expnt(s) = [0.1612778]
bas 53, expnt(s) = [1.1]
bas 54, expnt(s) = [18.731137   2.8253937  0.6401217]
bas 55, expnt(s) = [0.1612778]
bas 56, expnt(s) = [1.1]
bas 57, expnt(s) = [4173.511     627.4579    142.9021     40.23433    12.82021     4.390437]
bas 58, expnt(s) = [11.626358  2.71628   0.772218]
bas 59, expnt(s) = [0.2120313]
bas 60, expnt(s) = [11.626358  2.71628   0.772218]
bas 61, expnt(s) = [0.2120313]
bas 62, expnt(s) = [0.8]
bas 63, expnt(s) = [18.731137   2.8253937  0.6401217]
bas 64, expnt(s) = [0.1612778]
bas 65, expnt(s) = [1.1]
bas 66, expnt(s) = [18.731137   2.8253937  0.6401217]
bas 67, expnt(s) = [0.1612778]
bas 68, expnt(s) = [1.1]
bas 69, expnt(s) = [7001.71309   1051.36609    239.28569     67.3974453   21.5199573
    7.4031013]
bas 70, expnt(s) = [20.8479528   4.80830834  1.34406986]
bas 71, expnt(s) = [0.35815139]
bas 72, expnt(s) = [20.8479528   4.80830834  1.34406986]
bas 73, expnt(s) = [0.35815139]
bas 74, expnt(s) = [0.8]
bas 75, expnt(s) = [5484.6717     825.23495    188.04696     52.9645      16.89757
    5.7996353]
bas 76, expnt(s) = [15.539616   3.5999336  1.0137618]
bas 77, expnt(s) = [0.2700058]
bas 78, expnt(s) = [15.539616   3.5999336  1.0137618]
bas 79, expnt(s) = [0.2700058]
bas 80, expnt(s) = [0.8]
bas 81, expnt(s) = [18.731137   2.8253937  0.6401217]
bas 82, expnt(s) = [0.1612778]
bas 83, expnt(s) = [1.1]
bas 84, expnt(s) = [3047.5249    457.36951   103.94869    29.210155    9.286663    3.163927]
bas 85, expnt(s) = [7.8682724 1.8812885 0.5442493]
bas 86, expnt(s) = [0.1687144]
bas 87, expnt(s) = [7.8682724 1.8812885 0.5442493]
bas 88, expnt(s) = [0.1687144]
bas 89, expnt(s) = [0.8]
bas 90, expnt(s) = [18.731137   2.8253937  0.6401217]
bas 91, expnt(s) = [0.1612778]
bas 92, expnt(s) = [1.1]
bas 93, expnt(s) = [18.731137   2.8253937  0.6401217]
bas 94, expnt(s) = [0.1612778]
bas 95, expnt(s) = [1.1]
CPU time:         1.10
arg.atm = [[  6  20   1  23   0   0]
 [  1  24   1  27   0   0]
 [  1  28   1  31   0   0]
 [  6  32   1  35   0   0]
 [  1  36   1  39   0   0]
 [  6  40   1  43   0   0]
 [  1  44   1  47   0   0]
 [  1  48   1  51   0   0]
 [  6  52   1  55   0   0]
 [  1  56   1  59   0   0]
 [  1  60   1  63   0   0]
 [  6  64   1  67   0   0]
 [  1  68   1  71   0   0]
 [  1  72   1  75   0   0]
 [  7  76   1  79   0   0]
 [  1  80   1  83   0   0]
 [  1  84   1  87   0   0]
 [  9  88   1  91   0   0]
 [  8  92   1  95   0   0]
 [  1  96   1  99   0   0]
 [  6 100   1 103   0   0]
 [  1 104   1 107   0   0]
 [  1 108   1 111   0   0]]
arg.bas = [[  0   0   6   1   0 142 148   0]
 [  0   0   3   1   0 154 157   0]
 [  0   0   1   1   0 160 161   0]
 [  0   1   3   1   0 162 165   0]
 [  0   1   1   1   0 168 169   0]
 [  0   2   1   1   0 170 171   0]
 [  1   0   3   1   0 202 205   0]
 [  1   0   1   1   0 208 209   0]
 [  1   1   1   1   0 210 211   0]
 [  2   0   3   1   0 202 205   0]
 [  2   0   1   1   0 208 209   0]
 [  2   1   1   1   0 210 211   0]
 [  3   0   6   1   0 142 148   0]
 [  3   0   3   1   0 154 157   0]
 [  3   0   1   1   0 160 161   0]
 [  3   1   3   1   0 162 165   0]
 [  3   1   1   1   0 168 169   0]
 [  3   2   1   1   0 170 171   0]
 [  4   0   3   1   0 202 205   0]
 [  4   0   1   1   0 208 209   0]
 [  4   1   1   1   0 210 211   0]
 [  5   0   6   1   0 142 148   0]
 [  5   0   3   1   0 154 157   0]
 [  5   0   1   1   0 160 161   0]
 [  5   1   3   1   0 162 165   0]
 [  5   1   1   1   0 168 169   0]
 [  5   2   1   1   0 170 171   0]
 [  6   0   3   1   0 202 205   0]
 [  6   0   1   1   0 208 209   0]
 [  6   1   1   1   0 210 211   0]
 [  7   0   3   1   0 202 205   0]
 [  7   0   1   1   0 208 209   0]
 [  7   1   1   1   0 210 211   0]
 [  8   0   6   1   0 142 148   0]
 [  8   0   3   1   0 154 157   0]
 [  8   0   1   1   0 160 161   0]
 [  8   1   3   1   0 162 165   0]
 [  8   1   1   1   0 168 169   0]
 [  8   2   1   1   0 170 171   0]
 [  9   0   3   1   0 202 205   0]
 [  9   0   1   1   0 208 209   0]
 [  9   1   1   1   0 210 211   0]
 [ 10   0   3   1   0 202 205   0]
 [ 10   0   1   1   0 208 209   0]
 [ 10   1   1   1   0 210 211   0]
 [ 11   0   6   1   0 142 148   0]
 [ 11   0   3   1   0 154 157   0]
 [ 11   0   1   1   0 160 161   0]
 [ 11   1   3   1   0 162 165   0]
 [ 11   1   1   1   0 168 169   0]
 [ 11   2   1   1   0 170 171   0]
 [ 12   0   3   1   0 202 205   0]
 [ 12   0   1   1   0 208 209   0]
 [ 12   1   1   1   0 210 211   0]
 [ 13   0   3   1   0 202 205   0]
 [ 13   0   1   1   0 208 209   0]
 [ 13   1   1   1   0 210 211   0]
 [ 14   0   6   1   0 112 118   0]
 [ 14   0   3   1   0 124 127   0]
 [ 14   0   1   1   0 130 131   0]
 [ 14   1   3   1   0 132 135   0]
 [ 14   1   1   1   0 138 139   0]
 [ 14   2   1   1   0 140 141   0]
 [ 15   0   3   1   0 202 205   0]
 [ 15   0   1   1   0 208 209   0]
 [ 15   1   1   1   0 210 211   0]
 [ 16   0   3   1   0 202 205   0]
 [ 16   0   1   1   0 208 209   0]
 [ 16   1   1   1   0 210 211   0]
 [ 17   0   6   1   0 172 178   0]
 [ 17   0   3   1   0 184 187   0]
 [ 17   0   1   1   0 190 191   0]
 [ 17   1   3   1   0 192 195   0]
 [ 17   1   1   1   0 198 199   0]
 [ 17   2   1   1   0 200 201   0]
 [ 18   0   6   1   0 212 218   0]
 [ 18   0   3   1   0 224 227   0]
 [ 18   0   1   1   0 230 231   0]
 [ 18   1   3   1   0 232 235   0]
 [ 18   1   1   1   0 238 239   0]
 [ 18   2   1   1   0 240 241   0]
 [ 19   0   3   1   0 202 205   0]
 [ 19   0   1   1   0 208 209   0]
 [ 19   1   1   1   0 210 211   0]
 [ 20   0   6   1   0 142 148   0]
 [ 20   0   3   1   0 154 157   0]
 [ 20   0   1   1   0 160 161   0]
 [ 20   1   3   1   0 162 165   0]
 [ 20   1   1   1   0 168 169   0]
 [ 20   2   1   1   0 170 171   0]
 [ 21   0   3   1   0 202 205   0]
 [ 21   0   1   1   0 208 209   0]
 [ 21   1   1   1   0 210 211   0]
 [ 22   0   3   1   0 202 205   0]
 [ 22   0   1   1   0 208 209   0]
 [ 22   1   1   1   0 210 211   0]]
arg.env = [ 1.37036000e+02  0.00000000e+00  0.00000000e+00  0.00000000e+00
  0.00000000e+00  0.00000000e+00  0.00000000e+00  0.00000000e+00
  0.00000000e+00  0.00000000e+00  0.00000000e+00  0.00000000e+00
  0.00000000e+00  0.00000000e+00  0.00000000e+00  0.00000000e+00
  0.00000000e+00  0.00000000e+00  0.00000000e+00  0.00000000e+00
 -1.36839660e+01  2.04316641e-01 -9.87954204e-01  0.00000000e+00
 -1.42636548e+01  2.14029551e+00 -9.21179276e-01  0.00000000e+00
 -1.44336303e+01 -6.66724762e-01 -2.65162558e+00  0.00000000e+00
 -1.07777596e+01  6.33113999e-02 -1.04469066e+00  0.00000000e+00
 -1.00280953e+01  9.34352821e-01  6.18980718e-01  0.00000000e+00
 -9.78482756e+00  1.45501988e+00 -3.39976409e+00  0.00000000e+00
 -1.03645163e+01  3.39099875e+00 -3.33298916e+00  0.00000000e+00
 -1.05344918e+01  5.83978455e-01 -5.06343547e+00  0.00000000e+00
 -5.88568911e+00  2.70572311e+00 -5.81157398e+00  0.00000000e+00
 -6.46537783e+00  4.64170198e+00 -5.74479905e+00  0.00000000e+00
 -6.63535337e+00  1.83468169e+00 -7.47524536e+00  0.00000000e+00
 -2.97948267e+00  2.56471785e+00 -5.86831044e+00  0.00000000e+00
 -2.39979393e+00  6.28738980e-01 -5.93508535e+00  0.00000000e+00
 -2.22981842e+00  3.43575927e+00 -4.20463906e+00  0.00000000e+00
 -2.03168392e+00  3.89316686e+00 -8.11633506e+00  0.00000000e+00
 -2.57344909e+00  5.70249290e+00 -8.05392859e+00  0.00000000e+00
 -1.44536874e-01  3.80160502e+00 -8.15317693e+00  0.00000000e+00
 -1.00463766e+01 -2.37927876e+00 -1.12893939e+00  0.00000000e+00
 -1.46059743e+01 -1.08798408e+00  1.19889970e+00  0.00000000e+00
 -1.64176355e+01 -1.00008471e+00  1.23426789e+00  0.00000000e+00
 -6.87862114e+00  1.31401464e+00 -3.45650055e+00  0.00000000e+00
 -6.29893240e+00 -6.21964255e-01 -3.52327546e+00  0.00000000e+00
 -6.12895687e+00  2.18505604e+00 -1.79282917e+00  0.00000000e+00
  4.17351100e+03  6.27457900e+02  1.42902100e+02  4.02343300e+01
  1.28202100e+01  4.39043700e+00  2.40702054e+00  4.43278063e+00
  7.16202212e+00  9.37349097e+00  8.02923011e+00  2.76214682e+00
  1.16263580e+01  2.71628000e+00  7.72218000e-01 -1.82872504e+00
 -9.04036253e-01  2.38478141e+00  2.12031300e-01  7.89432508e-01
  1.16263580e+01  2.71628000e+00  7.72218000e-01  4.23260113e+00
  3.29513374e+00  1.56464604e+00  2.12031300e-01  4.19743870e-01
  8.00000000e-01  1.76578110e+00  3.04752490e+03  4.57369510e+02
  1.03948690e+02  2.92101550e+01  9.28666300e+00  3.16392700e+00
  1.90125588e+00  3.50751108e+00  5.66221808e+00  7.37052623e+00
  6.28928397e+00  2.17153894e+00  7.86827240e+00  1.88128850e+00
  5.44249300e-01 -1.41639039e+00 -6.52813326e-01  1.83055623e+00
  1.68714400e-01  6.65088040e-01  7.86827240e+00  1.88128850e+00
  5.44249300e-01  2.65263212e+00  2.03386926e+00  1.01504332e+00
  1.68714400e-01  3.15445679e-01  8.00000000e-01  1.76578110e+00
  7.00171309e+03  1.05136609e+03  2.39285690e+02  6.73974453e+01
  2.15199573e+01  7.40310130e+00  3.51882946e+00  6.49153500e+00
  1.05145933e+01  1.38579703e+01  1.18963440e+01  4.04370270e+00
  2.08479528e+01  4.80830834e+00  1.34406986e+00 -2.67467022e+00
 -1.20144405e+00  3.55963557e+00  3.58151393e-01  1.16967446e+00
  2.08479528e+01  4.80830834e+00  1.34406986e+00  9.30895386e+00
  7.18522772e+00  3.05022227e+00  3.58151393e-01  8.08290917e-01
  8.00000000e-01  1.76578110e+00  1.87311370e+01  2.82539370e+00
  6.40121700e-01  7.61926220e-01  1.29237100e+00  1.47131900e+00
  1.61277800e-01  6.42977783e-01  1.10000000e+00  3.28643653e+00
  5.48467170e+03  8.25234950e+02  1.88046960e+02  5.29645000e+01
  1.68975700e+01  5.79963530e+00  2.94842455e+00  5.42657124e+00
  8.78126489e+00  1.15432129e+01  9.90055015e+00  3.38516599e+00
  1.55396160e+01  3.59993360e+00  1.01376180e+00 -2.19051792e+00
 -9.77405528e-01  2.88629094e+00  2.70005800e-01  9.46334873e-01
  1.55396160e+01  3.59993360e+00  1.01376180e+00  6.37930734e+00
  4.91490975e+00  2.15791055e+00  2.70005800e-01  5.67807022e-01
  8.00000000e-01  1.76578110e+00]
ecpbas  = []


******** <class 'pyscf.scf.hf.RHF'> ********
method = RHF
initial guess = minao
damping factor = 0
level shift factor = 0
DIIS = <class 'pyscf.scf.diis.CDIIS'>
DIIS start cycle = 1
DIIS space = 8
SCF tol = 1e-09
SCF gradient tol = None
max. SCF cycles = 50
direct_scf = True
direct_scf_tol = 1e-13
chkfile to save SCF result = /home/liwei01/wsr/dftpart/test_2body/c8b/tmpbvt0nc67
max_memory 4000 MB (current use 65 MB)
Set gradient conv threshold to 3.16228e-05
Nelec from initial guess = 73.94774176496551
cond(S) = 2227.731694720841
E1 = -1560.2540529856476  E_coul = 623.568799941446
init E= -466.280533105542
    CPU time for initialize scf     21.80 sec, wall time      1.81 sec
  HOMO = -0.278689685282251  LUMO = 0.111824553073028
  mo_energy =
[-26.49150394 -20.79875975 -15.6502371  -11.44028261 -11.43757598
 -11.43626462 -11.43225154 -11.43059022 -11.42782259  -1.93118734
  -1.70533955  -1.67539913  -1.52480915  -1.34073743  -1.18251175
  -1.01646015  -0.95365298  -0.94676957  -0.78357852  -0.75680634
  -0.71109144  -0.69283371  -0.68328718  -0.63507508  -0.59797271
  -0.59536119  -0.54648188  -0.53964004  -0.48929684  -0.4598532
  -0.4440972   -0.41249246  -0.40519115  -0.3899639   -0.37194148
  -0.34365879  -0.27868969   0.11182455   0.13943716   0.14692669
   0.16378041   0.17655884   0.20224232   0.20344561   0.22723796
   0.23726322   0.24479467   0.25122793   0.26089075   0.27208147
   0.27941588   0.28872007   0.29648782   0.30071679   0.31167855
   0.31810507   0.33282418   0.37112332   0.38651275   0.60196378
   0.65939217   0.66252633   0.68538035   0.68580606   0.70171937
   0.73297579   0.73884865   0.75893447   0.78416238   0.81090267
   0.81594131   0.84066878   0.86271915   0.89540148   0.9028488
   0.91474011   0.94589819   0.95762737   0.97488964   0.99845118
   1.01957049   1.02288206   1.02963079   1.06216939   1.06902741
   1.07849741   1.08913774   1.09428673   1.09983058   1.10336801
   1.12178866   1.13375736   1.13811664   1.16536963   1.19331469
   1.23110705   1.2787468    1.36476505   1.39741211   1.42617655
   1.43591848   1.47342008   1.51017452   1.53190584   1.54425374
   1.58850934   1.59597381   1.60721455   1.65291604   1.7023364
   1.72982076   1.74280368   1.77835544   1.82240388   1.83406168
   1.86354197   1.87221977   1.88041439   1.91925478   1.97486981
   2.00547139   2.02289693   2.03961143   2.06079136   2.08240699
   2.09893928   2.10623153   2.15472003   2.16576623   2.1779212
   2.2141858    2.22383708   2.28614541   2.30434579   2.32392714
   2.32897633   2.3354983    2.34587873   2.35670539   2.39282553
   2.41377411   2.46999082   2.4743551    2.48937713   2.50903646
   2.521948     2.54000618   2.54901919   2.57604669   2.60139458
   2.6087748    2.63549393   2.64529323   2.6601532    2.67511447
   2.71334616   2.72946919   2.81885996   2.82541122   2.86242535
   2.89257979   2.91061954   2.92691582   2.94465884   2.95062603
   2.98606775   3.00197082   3.01687213   3.06177084   3.08286605
   3.11066551   3.12776301   3.14707723   3.16115359   3.17729304
   3.19147643   3.20564994   3.23570361   3.2524674    3.28038981
   3.28765768   3.41540475   3.53992484   3.57460836   3.59155983
   3.61429697   3.62861349   3.66628415   3.71178701   3.73158412
   3.78458577   3.80520058   3.8380808    3.84988402   3.8799073
   3.88282403]
E1 = -1570.1722997762886  E_coul = 635.7986730934259
cycle= 1 E= -463.968906744203  delta_E= 2.31  |g|= 0.74  |ddm|=    4
    CPU time for cycle= 1      2.64 sec, wall time      0.16 sec
diis-norm(errvec)=1.44951
diis-c [-2.10106658  1.        ]
  HOMO = -0.363444182459072  LUMO = 0.209956106592146
  mo_energy =
[-26.06330396 -20.33508739 -15.48286396 -11.4167664  -11.35102585
 -11.24192613 -11.22251798 -11.1911766  -11.17463136  -1.52527309
  -1.29715154  -1.16956171  -1.10079999  -1.03266058  -0.95684675
  -0.87068369  -0.83115346  -0.80461757  -0.71042721  -0.68251781
  -0.66545453  -0.64155803  -0.63224146  -0.61713277  -0.6032374
  -0.59208633  -0.56421802  -0.53028564  -0.51159516  -0.49392031
  -0.484668    -0.47481341  -0.46448529  -0.45064853  -0.42061951
  -0.39140325  -0.36344418   0.20995611   0.22099824   0.22951719
   0.25082896   0.25216988   0.27370553   0.29304157   0.2992641
   0.31451967   0.33353426   0.33456097   0.34533676   0.35419918
   0.36361184   0.36575299   0.37664253   0.39129994   0.40273417
   0.41874188   0.45426056   0.4927121    0.52417985   0.69075925
   0.72677424   0.7534524    0.764365     0.77331882   0.78305509
   0.81129579   0.82560487   0.84416254   0.8855603    0.89164095
   0.93443829   0.95215134   0.95785102   0.98489329   1.00188529
   1.01435308   1.04959976   1.05854805   1.07764556   1.08494963
   1.10983917   1.11810439   1.12377764   1.14629337   1.15618533
   1.17928818   1.18091877   1.19351896   1.1965385    1.20898183
   1.22567378   1.23136474   1.23667431   1.31282437   1.32996771
   1.34361177   1.39087733   1.46486393   1.50984848   1.52574764
   1.53597349   1.58720974   1.60573195   1.64924245   1.65569031
   1.70087361   1.74099917   1.75493468   1.78317058   1.80129121
   1.81890042   1.84795896   1.89730698   1.91191812   1.93236312
   1.9703176    1.98540004   1.99975028   2.02308784   2.07402942
   2.11206043   2.12246533   2.15952629   2.17323241   2.19076359
   2.2061888    2.22967673   2.27186905   2.28878956   2.30127521
   2.33004737   2.34023321   2.37938297   2.40775359   2.41285278
   2.42221969   2.42578102   2.43585218   2.45354373   2.48499065
   2.51282523   2.53083123   2.55605935   2.56668268   2.58665315
   2.60918109   2.62166034   2.63903557   2.66233573   2.68253422
   2.69463986   2.72588369   2.74025067   2.75795534   2.76512117
   2.81354388   2.82214179   2.8906542    2.91055032   2.93013043
   2.98853879   3.00158041   3.0147232    3.02986358   3.04952815
   3.07581727   3.09236613   3.11704175   3.14475927   3.17089774
   3.20767248   3.22401239   3.23361642   3.25532807   3.27715827
   3.29012292   3.31470525   3.31543009   3.34485457   3.3529362
   3.37288623   3.54141069   3.63722869   3.65257311   3.67395694
   3.70802289   3.7234795    3.74398937   3.79413901   3.83394555
   3.86284087   3.89374938   3.92532624   3.94316725   3.98744264
   4.00748585]
E1 = -1567.7318910732008  E_coul = 633.2466408475086
cycle= 2 E= -464.080530287033  delta_E= -0.112  |g|= 0.361  |ddm|= 0.732
    CPU time for cycle= 2      1.90 sec, wall time      0.10 sec
diis-norm(errvec)=0.641974
diis-c [-0.24797755  0.22936399  0.77063601]
  HOMO = -0.382298703297741  LUMO = 0.219009139008527
  mo_energy =
[-26.32383602 -20.62059231 -15.54111479 -11.28202162 -11.25606547
 -11.24094778 -11.21993848 -11.2187963  -11.21277597  -1.60569254
  -1.37002477  -1.18003783  -1.08807181  -1.02534591  -0.94928228
  -0.86519985  -0.82539487  -0.80903423  -0.72419728  -0.7102827
  -0.67630412  -0.67094104  -0.6593      -0.64112852  -0.61802753
  -0.60655738  -0.574785    -0.56263989  -0.53427423  -0.51464492
  -0.5104922   -0.4857419   -0.48199905  -0.46939028  -0.45744959
  -0.4275558   -0.3822987    0.21900914   0.22273103   0.23641038
   0.25712514   0.26384804   0.2772353    0.30463527   0.3108577
   0.32180345   0.34074565   0.344256     0.34844818   0.35982183
   0.37047417   0.37120139   0.38362075   0.39835186   0.40844334
   0.4337331    0.45974075   0.49997889   0.52726723   0.69198553
   0.73549058   0.75752274   0.75909193   0.78399195   0.78840666
   0.8304875    0.83221447   0.85513833   0.89109098   0.90494068
   0.93514889   0.95056497   0.96219539   0.98954422   0.99534472
   1.01193912   1.04610137   1.06434876   1.07783072   1.09646055
   1.11196532   1.12326235   1.13005913   1.15868432   1.16973249
   1.17750153   1.18856026   1.19456609   1.20138755   1.2070048
   1.22464253   1.229924     1.23126371   1.27150196   1.28682418
   1.31267423   1.37376283   1.45666789   1.5017723    1.52177804
   1.52745881   1.57185192   1.60146758   1.62803853   1.64161232
   1.68525216   1.69856928   1.70931351   1.75187861   1.78834137
   1.81701986   1.83868033   1.86654839   1.91475946   1.9314346
   1.96684135   1.97543989   1.98329526   2.01953343   2.06695224
   2.1045135    2.13234075   2.16082052   2.17094049   2.18574322
   2.2023147    2.2235115    2.25789247   2.27055579   2.28806555
   2.32296466   2.33874219   2.38671379   2.40723791   2.42471528
   2.42872912   2.43131256   2.43738851   2.46039472   2.49053693
   2.51950255   2.53701093   2.56058947   2.57492915   2.59170892
   2.61439555   2.62542727   2.63886426   2.66713013   2.68713325
   2.70481339   2.7229701    2.73834532   2.75391705   2.76685821
   2.8050899    2.81820645   2.89874163   2.91667242   2.94269128
   2.98544253   3.00253277   3.02397119   3.02968918   3.05031844
   3.08457532   3.09839541   3.12228783   3.15490903   3.17974965
   3.21402804   3.22669969   3.24765555   3.26680705   3.27618779
   3.28763767   3.31111523   3.33300751   3.34468988   3.35341524
   3.38107418   3.5275301    3.6531479    3.67992352   3.69150994
   3.71789309   3.73165934   3.75338674   3.80682678   3.83741694
   3.87528078   3.89259729   3.93451468   3.94541161   3.99172337
   4.0013702 ]
E1 = -1569.0562606096087  E_coul = 634.5480536067494
cycle= 3 E= -464.1034870642  delta_E= -0.023  |g|= 0.106  |ddm|= 0.322
    CPU time for cycle= 3      3.22 sec, wall time      0.17 sec
diis-norm(errvec)=0.190167
diis-c [-0.00897436 -0.0869063   0.10637137  0.98053493]
  HOMO = -0.380364841943726  LUMO = 0.222938695293486
  mo_energy =
[-26.26099471 -20.54773879 -15.53166551 -11.30038542 -11.27460615
 -11.23644573 -11.22539922 -11.21513117 -11.21214993  -1.58889597
  -1.34720997  -1.17377981  -1.08902996  -1.02518889  -0.94811677
  -0.86228663  -0.82241389  -0.80597811  -0.71858643  -0.70055466
  -0.67038994  -0.66035347  -0.6525145   -0.63534658  -0.61464541
  -0.6035435   -0.57344934  -0.55469026  -0.52981556  -0.51540557
  -0.51013483  -0.48521543  -0.48207066  -0.4716417   -0.44560314
  -0.43380973  -0.38036484   0.2229387    0.22682152   0.2390447
   0.25884592   0.26402765   0.27937663   0.30561533   0.31196432
   0.3240572    0.34257993   0.3461487    0.34883972   0.36112403
   0.37082615   0.37349739   0.38427921   0.39968121   0.41078121
   0.43380999   0.46067244   0.50144831   0.52901621   0.6923465
   0.7339226    0.75708607   0.75993318   0.78326257   0.787879
   0.82890129   0.8310215    0.85435429   0.89103738   0.90228486
   0.93522893   0.95052381   0.96121701   0.9909221    0.99803181
   1.01471487   1.04974013   1.06687978   1.08192926   1.09677722
   1.11544415   1.12388668   1.13174433   1.16094733   1.17014586
   1.1812976    1.19069561   1.19648732   1.20163929   1.21038249
   1.22780062   1.23364458   1.23630008   1.28681252   1.29770887
   1.31611145   1.37710807   1.46128515   1.50653006   1.52346205
   1.52879379   1.57559834   1.60395735   1.63273452   1.64609059
   1.6881183    1.7061939    1.71797538   1.75639364   1.79185611
   1.82003841   1.8439697    1.88262469   1.91409304   1.93300173
   1.96967107   1.98155589   1.98589841   2.02267482   2.07184454
   2.10824343   2.13133288   2.16238674   2.17268524   2.1873952
   2.20455767   2.22571428   2.26506659   2.27869125   2.29039941
   2.32612734   2.34091432   2.38878093   2.41048759   2.42563461
   2.43288843   2.43395714   2.43839443   2.4619283    2.4939297
   2.52096007   2.54426546   2.56444507   2.57701291   2.59517291
   2.61748093   2.62875617   2.6424189    2.67075398   2.69111742
   2.70627765   2.73017596   2.74251232   2.75694163   2.77027206
   2.81262983   2.82202252   2.90415702   2.92012089   2.94681372
   2.99280043   3.00981733   3.02555657   3.03358735   3.05338495
   3.08833995   3.1022945    3.12357165   3.15685861   3.18195468
   3.21692594   3.22948501   3.24831212   3.26800554   3.27826364
   3.29145636   3.31460658   3.3331644    3.34968291   3.35928265
   3.38358897   3.53089455   3.65664515   3.68106692   3.69205711
   3.72232009   3.73486099   3.75838522   3.81030763   3.8411639
   3.89028142   3.89512727   3.93510967   3.94942933   3.99464494
   4.00563863]
E1 = -1568.7839986261579  E_coul = 634.2733389278242
cycle= 4 E= -464.105939759674  delta_E= -0.00245  |g|= 0.0125  |ddm|= 0.0862
    CPU time for cycle= 4      2.10 sec, wall time      0.11 sec
diis-norm(errvec)=0.0244219
diis-c [-3.22684720e-04 -1.20223759e-02 -2.02027882e-02  4.78598289e-02
  9.84365335e-01]
  HOMO = -0.379547068052367  LUMO = 0.222606882838271
  mo_energy =
[-26.26826306 -20.55500274 -15.52816785 -11.30161535 -11.27392088
 -11.23716544 -11.21861355 -11.21302024 -11.20929645  -1.59122639
  -1.35033334  -1.17310789  -1.0872379   -1.02434574  -0.94728387
  -0.86204978  -0.82220112  -0.80498267  -0.71932328  -0.70189655
  -0.67015323  -0.66162787  -0.65344521  -0.63539896  -0.61539592
  -0.60344868  -0.57282585  -0.5554491   -0.53008241  -0.51460158
  -0.51002283  -0.48465348  -0.48212333  -0.47156711  -0.44806385
  -0.43342352  -0.37954707   0.22260688   0.22631548   0.23904672
   0.25925528   0.26460617   0.27974811   0.30581699   0.31199926
   0.32433491   0.34297577   0.34641796   0.34933113   0.36145103
   0.37160156   0.37396373   0.38476873   0.40002403   0.41087256
   0.43397696   0.46156132   0.50196402   0.52979566   0.69282481
   0.73418838   0.75729915   0.76063257   0.78356465   0.78792869
   0.82819473   0.83110586   0.85414805   0.89134031   0.90274556
   0.93565833   0.95164908   0.96188208   0.99154642   0.99822802
   1.01510664   1.05010906   1.06722756   1.0821033    1.09684294
   1.11526989   1.1245447    1.13212903   1.16145828   1.17009644
   1.18185406   1.19106062   1.19725584   1.20280049   1.2110145
   1.22863953   1.23369134   1.23660176   1.28542506   1.296648
   1.3163785    1.3772227    1.460619     1.50660556   1.52338507
   1.52925523   1.57571279   1.6044109    1.63283781   1.64606996
   1.68841015   1.70560864   1.71699756   1.75649029   1.79199173
   1.82013314   1.84357882   1.88049954   1.9134267    1.93351967
   1.97072321   1.98145508   1.98652546   2.02294372   2.0718713
   2.10807963   2.13138285   2.16308373   2.17329849   2.18785338
   2.20504311   2.22645027   2.26413196   2.27751565   2.29020003
   2.3261902    2.34084649   2.38865495   2.41063931   2.42617538
   2.43306431   2.43432466   2.43818762   2.46204287   2.4943717
   2.52173675   2.54408242   2.56525891   2.57715001   2.59590157
   2.61735114   2.62929235   2.64236688   2.67091796   2.69120606
   2.70656238   2.7298415    2.74297168   2.75777618   2.770342
   2.81217184   2.82224799   2.9041764    2.92024196   2.94646301
   2.99238457   3.00890843   3.02621945   3.03352296   3.0538278
   3.08806355   3.1019008    3.12422115   3.15732464   3.18228336
   3.21727743   3.22914384   3.24855352   3.26875369   3.27923541
   3.29224622   3.31557029   3.33352884   3.34996      3.35941823
   3.3829884    3.52978625   3.65777525   3.68150856   3.69244139
   3.72282142   3.73559539   3.75879078   3.81051802   3.84223042
   3.8892353    3.89438834   3.93505727   3.9504216    3.99567758
   4.0068422 ]
E1 = -1568.7708414254562  E_coul = 634.260129764867
cycle= 5 E= -464.10599172193  delta_E= -5.2e-05  |g|= 0.00343  |ddm|= 0.0195
    CPU time for cycle= 5      1.92 sec, wall time      0.10 sec
diis-norm(errvec)=0.00671522
diis-c [-3.04882538e-05  2.32686260e-03 -4.75948890e-03 -3.44041110e-02
  7.68178901e-02  9.60018847e-01]
  HOMO = -0.380326103429464  LUMO = 0.222472249097401
  mo_energy =
[-26.26724169 -20.5545035  -15.53034052 -11.30096073 -11.27381268
 -11.23718958 -11.22121256 -11.21435802 -11.211058    -1.59087618
  -1.35017806  -1.17375369  -1.08794954  -1.02470747  -0.94771335
  -0.86229424  -0.82236378  -0.80551772  -0.71922142  -0.70185833
  -0.67052476  -0.66170944  -0.65339686  -0.63580718  -0.6154688
  -0.60382321  -0.57342156  -0.55563967  -0.53051556  -0.51518424
  -0.51056354  -0.48519421  -0.48253068  -0.47202279  -0.44809879
  -0.43417457  -0.3803261    0.22247225   0.22617914   0.23881593
   0.25901773   0.26438589   0.27955806   0.305709     0.31190147
   0.32412425   0.34276439   0.3461919    0.34908187   0.3612793
   0.37128081   0.3737213    0.38442637   0.39976489   0.41063938
   0.43384167   0.4610547    0.50161358   0.52928944   0.69239068
   0.73375423   0.75682233   0.7601105    0.78322872   0.78766433
   0.82821962   0.83088421   0.85388908   0.8909526    0.90234367
   0.93518732   0.95087399   0.96136011   0.99099157   0.99773946
   1.01461709   1.04964903   1.06676923   1.08179088   1.09664683
   1.11499225   1.12411573   1.13176754   1.16108426   1.16988673
   1.1813979    1.19065147   1.19686056   1.20213904   1.21062927
   1.22808119   1.23342991   1.23611218   1.28543198   1.29649187
   1.31590208   1.37697666   1.46047556   1.50645636   1.52318449
   1.52880464   1.57539184   1.60395355   1.63259653   1.64576428
   1.68807524   1.70557194   1.71705539   1.75608064   1.79165725
   1.81982691   1.84322168   1.88049874   1.91342742   1.93307309
   1.97010372   1.98115149   1.98598337   2.02246297   2.07155308
   2.10790236   2.1311115    2.16249027   2.1728031    2.18739742
   2.20460392   2.22587034   2.26401876   2.27749038   2.29001052
   2.32588317   2.34051978   2.38853842   2.41034282   2.42576694
   2.43269061   2.43402589   2.43795273   2.46169513   2.49395854
   2.52127684   2.54369626   2.56480981   2.57678206   2.59546813
   2.61709287   2.62894079   2.64215748   2.67061027   2.69089405
   2.70621422   2.72959948   2.74250353   2.75723486   2.77005065
   2.81190969   2.82187804   2.90384747   2.91990528   2.94623497
   2.99209198   3.00871934   3.02572389   3.03319258   3.05338653
   3.08778556   3.10165413   3.12374166   3.15697076   3.18194085
   3.21690949   3.22903516   3.24825393   3.26828865   3.27864041
   3.29173617   3.31503421   3.33320015   3.349608     3.35898789
   3.38287283   3.52993816   3.6571802    3.6811946    3.69209781
   3.72238234   3.73512519   3.75827916   3.81015753   3.84159123
   3.88903407   3.89424953   3.9348637    3.94974681   3.99510429
   4.00616666]
E1 = -1568.7763111980432  E_coul = 634.2655949873185
cycle= 6 E= -464.105996272065  delta_E= -4.55e-06  |g|= 0.00118  |ddm|= 0.0056
    CPU time for cycle= 6      1.86 sec, wall time      0.09 sec
diis-norm(errvec)=0.0022834
diis-c [-2.39346815e-06  1.61290972e-03  1.53167973e-03 -1.06863411e-02
 -8.42571139e-02  9.53568743e-02  9.96441991e-01]
  HOMO = -0.38021540346995  LUMO = 0.222493640979963
  mo_energy =
[-26.26759429 -20.5545657  -15.52963899 -11.30106958 -11.27390279
 -11.23729363 -11.22078006 -11.2141085  -11.21074543  -1.59109114
  -1.35023133  -1.17356267  -1.08784956  -1.02468033  -0.94766342
  -0.86227078  -0.82237044  -0.80545447  -0.71931249  -0.70192498
  -0.67047254  -0.66172521  -0.65348732  -0.63574461  -0.61547672
  -0.60377555  -0.57332023  -0.5556866   -0.53049807  -0.51510678
  -0.51054579  -0.48514424  -0.48252684  -0.47202262  -0.44819968
  -0.43414212  -0.3802154    0.22249364   0.22620491   0.23885474
   0.25904086   0.26441573   0.27959024   0.30572626   0.31191318
   0.32417892   0.34277871   0.3462136    0.3491136    0.36129287
   0.37131061   0.37375842   0.38445913   0.39979302   0.41066208
   0.43382195   0.46112194   0.50164847   0.5293538    0.69243229
   0.73378352   0.75684309   0.76016105   0.78323548   0.78765763
   0.82812619   0.83084997   0.853878     0.89097514   0.90236797
   0.9352085    0.95097463   0.96140857   0.99107481   0.99781972
   1.01467049   1.04970513   1.066839     1.08182058   1.09665972
   1.11501635   1.12417718   1.13181305   1.16115858   1.16990225
   1.18150847   1.19073139   1.19690077   1.20222858   1.21066482
   1.22814123   1.23344675   1.236207     1.28537835   1.29646173
   1.31597332   1.37697552   1.4604459    1.5064112    1.52316663
   1.52885283   1.57540078   1.60401201   1.63259121   1.64577018
   1.68808437   1.70543222   1.71689438   1.75611475   1.79168075
   1.81982922   1.84326071   1.88046141   1.91334928   1.93309784
   1.97016403   1.98115793   1.98602889   2.0225195    2.07158083
   2.1078577    2.13111485   2.16254995   2.17284348   2.18743241
   2.20463575   2.22592552   2.26399586   2.27743827   2.28997406
   2.3258756    2.34054152   2.38847942   2.41034423   2.42579057
   2.43274638   2.43402161   2.4379732    2.46171296   2.49399569
   2.52131275   2.54378077   2.56484591   2.57680912   2.59550113
   2.6170925    2.62895492   2.64213761   2.67063092   2.69092159
   2.70623265   2.72960455   2.74255944   2.75728531   2.77006436
   2.8119154    2.82192183   2.90389935   2.9199411    2.94625855
   2.99212428   3.00872695   3.02578263   3.03322695   3.05342438
   3.08781851   3.10167732   3.12379499   3.15699289   3.18196772
   3.21693931   3.22899889   3.24826376   3.26833756   3.27870374
   3.29178027   3.31508762   3.33321528   3.3496461    3.35907334
   3.3828487    3.52979693   3.65724476   3.68121305   3.69212964
   3.72244036   3.73517415   3.75838274   3.81020786   3.84169566
   3.88905837   3.8942483    3.93485805   3.94986845   3.99516656
   4.00624077]
E1 = -1568.773326631615  E_coul = 634.2626097474074
cycle= 7 E= -464.105996945548  delta_E= -6.73e-07  |g|= 0.000307  |ddm|= 0.00242
    CPU time for cycle= 7      5.89 sec, wall time      0.35 sec
diis-norm(errvec)=0.00059413
diis-c [-1.61714777e-07 -3.20983636e-04  1.56356624e-04  3.11814459e-03
  7.34136687e-03 -8.55557128e-02 -1.50342733e-01  1.22560356e+00]
  HOMO = -0.380266354323652  LUMO = 0.222495197405151
  mo_energy =
[-26.26755172 -20.55454268 -15.52977929 -11.30104656 -11.27385348
 -11.23721667 -11.22076137 -11.21410301 -11.21071812  -1.59109523
  -1.35022972  -1.17358278  -1.08784763  -1.02467242  -0.94765411
  -0.86226342  -0.82235978  -0.80544745  -0.71930401  -0.70192055
  -0.67046797  -0.66172606  -0.65347781  -0.63575244  -0.61546304
  -0.60377404  -0.57331367  -0.55568802  -0.53049421  -0.5150901
  -0.51054505  -0.485135    -0.48251249  -0.4720138   -0.44821074
  -0.43413426  -0.38026635   0.2224952    0.22620339   0.23885236
   0.25904756   0.2644241    0.27959596   0.30573748   0.31191853
   0.32418236   0.34278622   0.34622321   0.34912266   0.3613004
   0.37132134   0.37376879   0.38447015   0.39980079   0.41067324
   0.43383722   0.46113228   0.50166313   0.52936022   0.69244307
   0.73379546   0.75685327   0.7601736    0.78324868   0.78767002
   0.82813687   0.83086726   0.85388945   0.89098179   0.90237758
   0.93522177   0.95098531   0.96141756   0.99105271   0.99780916
   1.01468089   1.04971054   1.06684853   1.08183603   1.09667227
   1.11502268   1.12418899   1.13182011   1.16116123   1.16991253
   1.18150188   1.19073192   1.19691451   1.20223934   1.21067485
   1.22815291   1.23345389   1.23619881   1.28537317   1.29645711
   1.31596734   1.37697353   1.46045168   1.50640982   1.52317442
   1.52885901   1.57540413   1.60401685   1.63259358   1.64577159
   1.68808812   1.70541822   1.71687974   1.75611425   1.79168588
   1.8198376    1.84326475   1.88045902   1.91335928   1.93310655
   1.97017368   1.981163     1.98603786   2.02252451   2.07157544
   2.10785818   2.13112323   2.16256397   2.17285504   2.18743832
   2.20464598   2.22593658   2.26400208   2.27744415   2.28998005
   2.32587902   2.34055489   2.38848325   2.41035175   2.4258042
   2.43274248   2.43404091   2.43797943   2.46172386   2.49400728
   2.52132243   2.54377874   2.56485568   2.57681866   2.59551241
   2.61709909   2.62896545   2.64214197   2.67063968   2.69092671
   2.70624561   2.72961346   2.74256227   2.75729439   2.77006758
   2.81191987   2.82192659   2.90390219   2.91994794   2.94626723
   2.99212546   3.00873231   3.02579362   3.03323362   3.05343671
   3.08782472   3.10168212   3.12380369   3.15700407   3.18197732
   3.2169498    3.22901118   3.2482753    3.2683497    3.27871668
   3.29179081   3.31509877   3.33322672   3.34965484   3.35906582
   3.38286096   3.52979699   3.65725756   3.68123052   3.69214658
   3.72245004   3.73518843   3.75837923   3.81021129   3.84169472
   3.88906397   3.89426213   3.93487435   3.94986831   3.99518249
   4.0062546 ]
E1 = -1568.7730523219307  E_coul = 634.262335371506
cycle= 8 E= -464.105997011765  delta_E= -6.62e-08  |g|= 8.45e-05  |ddm|= 0.00094
    CPU time for cycle= 8      2.01 sec, wall time      0.10 sec
diis-norm(errvec)=0.000164828
diis-c [-1.24856312e-08 -1.53036615e-04 -1.02819521e-04  1.09574204e-03
  7.83340205e-03 -1.76893522e-02 -9.41152760e-02  1.49991277e-01
  9.53140063e-01]
  HOMO = -0.380254145226052  LUMO = 0.222493230315579
  mo_energy =
[-26.26757036 -20.55454073 -15.52971496 -11.30104313 -11.27386816
 -11.23724593 -11.22079205 -11.21411278 -11.21075034  -1.59110774
  -1.35023281  -1.17356786  -1.08785526  -1.0246786   -0.94766025
  -0.86226708  -0.82236449  -0.80545369  -0.71930961  -0.70192619
  -0.67046938  -0.66172637  -0.65348439  -0.63574998  -0.61546604
  -0.60377397  -0.57331433  -0.55569216  -0.53050003  -0.51509539
  -0.51055045  -0.48514065  -0.48251818  -0.47201866  -0.44821394
  -0.43413985  -0.38025415   0.22249323   0.22620355   0.23885217
   0.25904468   0.26442083   0.2795955    0.3057356    0.31191784
   0.32418493   0.3427846    0.34622046   0.34911898   0.36129833
   0.37131721   0.37376566   0.38446513   0.39979909   0.41067219
   0.43383219   0.46112812   0.50165742   0.52935674   0.69243943
   0.73379169   0.75684756   0.76016783   0.78324431   0.78766608
   0.8281324    0.83086261   0.85388602   0.89097768   0.90237349
   0.93521533   0.9509777    0.9614133    0.99105781   0.99781465
   1.01467505   1.04970921   1.06684319   1.081831     1.0966704
   1.11502122   1.12418345   1.13181914   1.16116586   1.16990836
   1.18151017   1.19073357   1.19691099   1.20223207   1.21067331
   1.22814616   1.23345197   1.2362026    1.28537372   1.2964563
   1.3159699    1.37697172   1.46044837   1.50640522   1.52316975
   1.52885679   1.57540147   1.6040165    1.63259205   1.64577003
   1.68808499   1.70540949   1.7168709    1.75611229   1.7916838
   1.81983355   1.84326144   1.88045712   1.91335465   1.933101
   1.97016858   1.98115897   1.98603067   2.02252178   2.07157818
   2.10785392   2.13111962   2.16255576   2.17284861   2.18743443
   2.2046414    2.22592958   2.26399837   2.27744023   2.28997524
   2.32587415   2.34055086   2.38847823   2.41035006   2.42579874
   2.43274599   2.43403507   2.43797902   2.46171837   2.4940034
   2.5213181    2.54378504   2.56485257   2.57681374   2.59550804
   2.61709463   2.6289618    2.6421385    2.67063942   2.69092867
   2.70624072   2.72961137   2.74256163   2.75729068   2.77006732
   2.81191809   2.82192711   2.90390458   2.91994639   2.94626539
   2.99212475   3.00872925   3.02578886   3.03323088   3.05343167
   3.0878235    3.10168058   3.12380025   3.15700107   3.18197571
   3.21694668   3.22900873   3.24827186   3.26834511   3.27871011
   3.29178516   3.31509456   3.33322273   3.34965644   3.35907319
   3.38285723   3.52979081   3.65725223   3.68122677   3.69214137
   3.7224475    3.73518593   3.75838424   3.81021213   3.84169597
   3.88906135   3.89425918   3.93487243   3.94987136   3.99517706
   4.00624707]
E1 = -1568.7732104870017  E_coul = 634.2624935330323
cycle= 9 E= -464.10599701531  delta_E= -3.54e-09  |g|= 2.24e-05  |ddm|= 0.000201
    CPU time for cycle= 9      5.94 sec, wall time      0.78 sec
diis-norm(errvec)=4.43656e-05
diis-c [-1.16406911e-09  9.65196695e-01 -2.41324406e-05 -4.37327243e-05
  6.01286232e-04  3.82860272e-03 -1.27169654e-03 -6.71468258e-02
  9.88598033e-02]
  HOMO = -0.380257064311188  LUMO = 0.222493710666289
  mo_energy =
[-26.26756805 -20.55454263 -15.52972812 -11.30104502 -11.27386588
 -11.23723979 -11.22078578 -11.21410758 -11.21073999  -1.59110759
  -1.35023295  -1.17356898  -1.08785238  -1.02467647  -0.94765819
  -0.86226524  -0.8223632   -0.80545075  -0.71930912  -0.70192593
  -0.67046817  -0.66172652  -0.65348313  -0.63574959  -0.61546506
  -0.60377291  -0.57331285  -0.55569115  -0.53049805  -0.51509342
  -0.51054847  -0.48513828  -0.48251582  -0.4720167   -0.44821342
  -0.43413632  -0.38025706   0.22249371   0.22620401   0.23885242
   0.25904529   0.26442158   0.2795963    0.3057362    0.31191827
   0.32418512   0.34278551   0.34622144   0.34911999   0.36129933
   0.37131831   0.37376673   0.38446656   0.39980026   0.41067322
   0.43383287   0.46113006   0.50165905   0.52935822   0.69244113
   0.73379339   0.75684966   0.76017034   0.78324565   0.7876673
   0.82813205   0.83086348   0.85388716   0.89097878   0.90237466
   0.93521777   0.95098078   0.96141505   0.99105662   0.99781413
   1.01467697   1.04971001   1.06684448   1.08183301   1.09667083
   1.11502188   1.12418541   1.13182057   1.16116534   1.1699093
   1.18150928   1.19073428   1.19691239   1.20223424   1.2106747
   1.2281479    1.23345372   1.23620298   1.28537393   1.29645658
   1.31597034   1.37697279   1.46044872   1.50640655   1.52317096
   1.52885814   1.5754024    1.60401738   1.63259255   1.64577085
   1.68808626   1.70541033   1.71687161   1.75611321   1.79168497
   1.8198349    1.84326248   1.88045715   1.91335487   1.93310284
   1.97017117   1.98116025   1.98603321   2.02252308   2.07157839
   2.10785455   2.13112059   2.16255863   2.17285058   2.18743599
   2.20464348   2.22593189   2.26399907   2.27744072   2.28997614
   2.32587518   2.34055191   2.38847887   2.41035102   2.42580038
   2.43274601   2.43403744   2.43797952   2.46171983   2.49400524
   2.52131981   2.54378479   2.56485447   2.57681506   2.59550993
   2.61709565   2.62896336   2.64213939   2.67063999   2.69092847
   2.70624211   2.72961238   2.74256257   2.75729191   2.77006771
   2.81191871   2.82192785   2.90390498   2.91994768   2.94626624
   2.99212531   3.00872968   3.0257909    3.0332321    3.05343345
   3.0878241    3.10168146   3.12380184   3.15700216   3.18197681
   3.21694842   3.22900915   3.24827285   3.26834681   3.27871227
   3.29178756   3.31509696   3.33322347   3.34965709   3.35907279
   3.38285768   3.5297907    3.65725449   3.68122798   3.69214287
   3.7224494    3.73518682   3.75838397   3.81021322   3.84169704
   3.88906205   3.89426      3.93487284   3.94987123   3.99517917
   4.00625045]
E1 = -1568.7732130805691  E_coul = 634.2624961263112
cycle= 10 E= -464.105997015598  delta_E= -2.88e-10  |g|= 6.98e-06  |ddm|= 5.89e-05
    CPU time for cycle= 10      1.85 sec, wall time      0.09 sec
  HOMO = -0.380256117300959  LUMO = 0.222493694494059
  mo_energy =
[-26.2675689  -20.55454169 -15.52972431 -11.30104339 -11.27386477
 -11.23723976 -11.22078575 -11.21410907 -11.210742    -1.5911073
  -1.35023227  -1.1735678   -1.08785244  -1.02467633  -0.94765795
  -0.86226497  -0.82236292  -0.80545097  -0.7193089   -0.70192565
  -0.67046809  -0.66172612  -0.65348283  -0.63574931  -0.61546469
  -0.60377266  -0.57331267  -0.5556909   -0.53049791  -0.5150935
  -0.5105484   -0.48513863  -0.48251591  -0.47201669  -0.44821263
  -0.4341362   -0.38025612   0.22249369   0.22620403   0.23885245
   0.25904534   0.2644216    0.27959627   0.30573624   0.31191826
   0.32418532   0.34278556   0.3462215    0.34911989   0.36129928
   0.37131833   0.37376666   0.38446657   0.39980018   0.41067346
   0.43383319   0.46113014   0.50165916   0.52935836   0.69244111
   0.7337934    0.75684978   0.76016998   0.78324582   0.78766743
   0.82813262   0.83086389   0.85388752   0.89097902   0.90237491
   0.93521768   0.95098066   0.96141509   0.99105724   0.99781469
   1.01467688   1.04971019   1.06684443   1.08183285   1.09667094
   1.11502199   1.12418524   1.13182062   1.16116583   1.16990957
   1.18150981   1.19073451   1.19691231   1.20223417   1.21067462
   1.22814795   1.23345365   1.23620311   1.28537434   1.29645696
   1.31597061   1.37697295   1.46044901   1.50640663   1.52317115
   1.52885842   1.57540261   1.60401772   1.63259288   1.64577113
   1.6880864    1.70541051   1.71687183   1.75611347   1.79168511
   1.81983499   1.84326274   1.88045746   1.91335535   1.93310285
   1.97017076   1.98116036   1.98603307   2.02252322   2.0715788
   2.10785489   2.13112095   2.16255849   2.17285058   2.18743604
   2.20464344   2.22593187   2.26399939   2.2774411    2.28997646
   2.32587542   2.34055238   2.3884791    2.4103511    2.42580034
   2.43274639   2.43403741   2.43797985   2.46172      2.49400516
   2.52131966   2.54378501   2.56485417   2.57681516   2.59550974
   2.61709576   2.62896324   2.64213947   2.67064026   2.69092884
   2.70624215   2.72961242   2.74256263   2.75729203   2.77006788
   2.81191879   2.82192802   2.90390513   2.91994777   2.94626638
   2.99212544   3.00872977   3.02579067   3.03323217   3.05343342
   3.08782443   3.10168171   3.12380197   3.15700217   3.18197694
   3.21694849   3.22900942   3.24827306   3.26834668   3.27871217
   3.29178722   3.3150966    3.3332237    3.34965737   3.35907324
   3.38285802   3.5297912    3.65725419   3.68122811   3.69214298
   3.72244941   3.73518697   3.75838438   3.81021321   3.84169693
   3.88906203   3.89426024   3.93487313   3.94987167   3.99517913
   4.00624988]
E1 = -1568.7732095480847  E_coul = 634.2624925937979
Extra cycle  E= -464.105997015627  delta_E= -2.89e-11  |g|= 3.23e-06  |ddm|= 1.62e-05
    CPU time for scf_cycle     52.95 sec, wall time      3.98 sec
    CPU time for SCF     52.96 sec, wall time      3.98 sec
converged SCF energy = -464.105997015627
