 Entering Gaussian System, Link 0=g16
 Input=c8btot.gjf
 Output=c8btot.log
 Initial command:
 /home/soft/g16/l1.exe "/tmp/gaussian/Gau-57599.inp" -scrdir="/tmp/gaussian/"
 Entering Link 1 = /home/soft/g16/l1.exe PID=     57603.
  
 Copyright (c) 1988,1990,1992,1993,1995,1998,2003,2009,2016,
            Gaussian, Inc.  All Rights Reserved.
  
 This is part of the Gaussian(R) 16 program.  It is based on
 the Gaussian(R) 09 system (copyright 2009, Gaussian, Inc.),
 the Gaussian(R) 03 system (copyright 2003, Gaussian, Inc.),
 the Gaussian(R) 98 system (copyright 1998, Gaussian, Inc.),
 the Gaussian(R) 94 system (copyright 1995, Gaussian, Inc.),
 the Gaussian 92(TM) system (copyright 1992, Gaussian, Inc.),
 the Gaussian 90(TM) system (copyright 1990, Gaussian, Inc.),
 the Gaussian 88(TM) system (copyright 1988, Gaussian, Inc.),
 the Gaussian 86(TM) system (copyright 1986, Carnegie Mellon
 University), and the Gaussian 82(TM) system (copyright 1983,
 Carnegie Mellon University). Gaussian is a federally registered
 trademark of Gaussian, Inc.
  
 This software contains proprietary and confidential information,
 including trade secrets, belonging to Gaussian, Inc.
  
 This software is provided under written license and may be
 used, copied, transmitted, or stored only in accord with that
 written license.
  
 The following legend is applicable only to US Government
 contracts under FAR:
  
                    RESTRICTED RIGHTS LEGEND
  
 Use, reproduction and disclosure by the US Government is
 subject to restrictions as set forth in subparagraphs (a)
 and (c) of the Commercial Computer Software - Restricted
 Rights clause in FAR 52.227-19.
  
 Gaussian, Inc.
 340 Quinnipiac St., Bldg. 40, Wallingford CT 06492
  
  
 ---------------------------------------------------------------
 Warning -- This program may not be used in any manner that
 competes with the business of Gaussian, Inc. or will provide
 assistance to any competitor of Gaussian, Inc.  The licensee
 of this program is prohibited from giving any competitor of
 Gaussian, Inc. access to this program.  By using this program,
 the user acknowledges that Gaussian, Inc. is engaged in the
 business of creating and licensing software in the field of
 computational chemistry and represents and warrants to the
 licensee that it is not a competitor of Gaussian, Inc. and that
 it will not use this program in any manner prohibited above.
 ---------------------------------------------------------------
  

 Cite this work as:
 Gaussian 16, Revision A.03,
 M. J. Frisch, G. W. Trucks, H. B. Schlegel, G. E. Scuseria, 
 M. A. Robb, J. R. Cheeseman, G. Scalmani, V. Barone, 
 G. A. Petersson, H. Nakatsuji, X. Li, M. Caricato, A. V. Marenich, 
 J. Bloino, B. G. Janesko, R. Gomperts, B. Mennucci, H. P. Hratchian, 
 J. V. Ortiz, A. F. Izmaylov, J. L. Sonnenberg, D. Williams-Young, 
 F. Ding, F. Lipparini, F. Egidi, J. Goings, B. Peng, A. Petrone, 
 T. Henderson, D. Ranasinghe, V. G. Zakrzewski, J. Gao, N. Rega, 
 G. Zheng, W. Liang, M. Hada, M. Ehara, K. Toyota, R. Fukuda, 
 J. Hasegawa, M. Ishida, T. Nakajima, Y. Honda, O. Kitao, H. Nakai, 
 T. Vreven, K. Throssell, J. A. Montgomery, Jr., J. E. Peralta, 
 F. Ogliaro, M. J. Bearpark, J. J. Heyd, E. N. Brothers, K. N. Kudin, 
 V. N. Staroverov, T. A. Keith, R. Kobayashi, J. Normand, 
 K. Raghavachari, A. P. Rendell, J. C. Burant, S. S. Iyengar, 
 J. Tomasi, M. Cossi, J. M. Millam, M. Klene, C. Adamo, R. Cammi, 
 J. W. Ochterski, R. L. Martin, K. Morokuma, O. Farkas, 
 J. B. Foresman, and D. J. Fox, Gaussian, Inc., Wallingford CT, 2016.
 
 ******************************************
 Gaussian 16:  ES64L-G16RevA.03 25-Dec-2016
                16-Apr-2020 
 ******************************************
 %chk=c8b.chk
 %nprocs=12
 Will use up to   12 processors via shared memory.
 -------------
 #p hf/6-31g**
 -------------
 1/38=1,172=1/1;
 2/12=2,17=6,18=5,40=1/2;
 3/5=1,6=6,7=101,11=9,25=1,30=1/1,2,3;
 4//1;
 5/5=2,38=5/2;
 6/7=2,8=2,9=2,10=2,28=1/1;
 99/5=1,9=1/99;
 Leave Link    1 at Thu Apr 16 19:52:10 2020, MaxMem=           0 cpu:               5.3 elap:               0.5
 (Enter /home/soft/g16/l101.exe)
 ----------------------------------
 gebf{dis=3.0 frag=read charge=npa}
 ----------------------------------
 Symbolic Z-matrix:
 Charge =  0 Multiplicity = 1
 C                    -7.24124   0.10812  -0.5228 
 H                    -7.548     1.1326   -0.48747 
 H                    -7.63795  -0.35282  -1.40318 
 C                    -5.70334   0.0335   -0.55283 
 H                    -5.30664   0.49444   0.32755 
 C                    -5.17791   0.76996  -1.79908 
 H                    -5.48467   1.79444  -1.76374 
 H                    -5.57461   0.30903  -2.67945 
 C                    -3.11457   1.43181  -3.07535 
 H                    -3.42133   2.45628  -3.04002 
 H                    -3.51128   0.97087  -3.95573 
 C                    -1.57667   1.35719  -3.10538 
 H                    -1.26992   0.33271  -3.14071 
 H                    -1.17997   1.81813  -2.225 
 N                    -1.07512   2.06018  -4.29498 
 H                    -1.36181   3.01763  -4.26196 
 H                    -0.07649   2.01172  -4.31448 
 F                    -5.31631  -1.25906  -0.59741 
 O                    -7.72915  -0.57574   0.63443 
 H                    -8.68784  -0.52922   0.65315 
 C                    -3.64001   0.69535  -1.8291 
 H                    -3.33325  -0.32913  -1.86444 
 H                    -3.2433    1.15628  -0.94872 
 
 ITRead=  0  0  0  0  0  0  0  0  0  0  0  0  0  0  0  0  0  0  0  0
 ITRead=  0  0  0
 MicOpt= -1 -1 -1 -1 -1 -1 -1 -1 -1 -1 -1 -1 -1 -1 -1 -1 -1 -1 -1 -1
 MicOpt= -1 -1 -1
 NAtoms=     23 NQM=       23 NQMF=       0 NMMI=      0 NMMIF=      0
                NMic=       0 NMicF=      0.
                    Isotopes and Nuclear Properties:
 (Nuclear quadrupole moments (NQMom) in fm**2, nuclear magnetic moments (NMagM)
  in nuclear magnetons)

  Atom         1           2           3           4           5           6           7           8           9          10
 IAtWgt=          12           1           1          12           1          12           1           1          12           1
 AtmWgt=  12.0000000   1.0078250   1.0078250  12.0000000   1.0078250  12.0000000   1.0078250   1.0078250  12.0000000   1.0078250
 NucSpn=           0           1           1           0           1           0           1           1           0           1
 AtZEff=  -0.0000000  -0.0000000  -0.0000000  -0.0000000  -0.0000000  -0.0000000  -0.0000000  -0.0000000  -0.0000000  -0.0000000
 NQMom=    0.0000000   0.0000000   0.0000000   0.0000000   0.0000000   0.0000000   0.0000000   0.0000000   0.0000000   0.0000000
 NMagM=    0.0000000   2.7928460   2.7928460   0.0000000   2.7928460   0.0000000   2.7928460   2.7928460   0.0000000   2.7928460
 AtZNuc=   6.0000000   1.0000000   1.0000000   6.0000000   1.0000000   6.0000000   1.0000000   1.0000000   6.0000000   1.0000000

  Atom        11          12          13          14          15          16          17          18          19          20
 IAtWgt=           1          12           1           1          14           1           1          19          16           1
 AtmWgt=   1.0078250  12.0000000   1.0078250   1.0078250  14.0030740   1.0078250   1.0078250  18.9984033  15.9949146   1.0078250
 NucSpn=           1           0           1           1           2           1           1           1           0           1
 AtZEff=  -0.0000000  -0.0000000  -0.0000000  -0.0000000  -0.0000000  -0.0000000  -0.0000000  -0.0000000  -0.0000000  -0.0000000
 NQMom=    0.0000000   0.0000000   0.0000000   0.0000000   2.0440000   0.0000000   0.0000000   0.0000000   0.0000000   0.0000000
 NMagM=    2.7928460   0.0000000   2.7928460   2.7928460   0.4037610   2.7928460   2.7928460   2.6288670   0.0000000   2.7928460
 AtZNuc=   1.0000000   6.0000000   1.0000000   1.0000000   7.0000000   1.0000000   1.0000000   9.0000000   8.0000000   1.0000000

  Atom        21          22          23
 IAtWgt=          12           1           1
 AtmWgt=  12.0000000   1.0078250   1.0078250
 NucSpn=           0           1           1
 AtZEff=  -0.0000000  -0.0000000  -0.0000000
 NQMom=    0.0000000   0.0000000   0.0000000
 NMagM=    0.0000000   2.7928460   2.7928460
 AtZNuc=   6.0000000   1.0000000   1.0000000
 Leave Link  101 at Thu Apr 16 19:52:14 2020, MaxMem=   280000000 cpu:               4.0 elap:               0.8
 (Enter /home/soft/g16/l202.exe)
                          Input orientation:                          
 ---------------------------------------------------------------------
 Center     Atomic      Atomic             Coordinates (Angstroms)
 Number     Number       Type             X           Y           Z
 ---------------------------------------------------------------------
      1          6           0       -7.241243    0.108120   -0.522803
      2          1           0       -7.548001    1.132596   -0.487467
      3          1           0       -7.637948   -0.352816   -1.403180
      4          6           0       -5.703345    0.033503   -0.552826
      5          1           0       -5.306640    0.494438    0.327550
      6          6           0       -5.177908    0.769963   -1.799078
      7          1           0       -5.484666    1.794439   -1.763742
      8          1           0       -5.574613    0.309028   -2.679455
      9          6           0       -3.114573    1.431807   -3.075353
     10          1           0       -3.421331    2.456283   -3.040017
     11          1           0       -3.511278    0.970872   -3.955729
     12          6           0       -1.576674    1.357190   -3.105376
     13          1           0       -1.269916    0.332714   -3.140712
     14          1           0       -1.179969    1.818126   -2.224999
     15          7           0       -1.075121    2.060175   -4.294980
     16          1           0       -1.361811    3.017629   -4.261955
     17          1           0       -0.076486    2.011723   -4.314475
     18          9           0       -5.316314   -1.259060   -0.597409
     19          8           0       -7.729149   -0.575736    0.634430
     20          1           0       -8.687839   -0.529222    0.653146
     21          6           0       -3.640010    0.695347   -1.829101
     22          1           0       -3.333251   -0.329129   -1.864437
     23          1           0       -3.243304    1.156282   -0.948724
 ---------------------------------------------------------------------
                    Distance matrix (angstroms):
                    1          2          3          4          5
     1  C    0.000000
     2  H    1.070000   0.000000
     3  H    1.070000   1.747303   0.000000
     4  C    1.540000   2.148263   2.148263   0.000000
     5  H    2.148263   2.468846   3.024610   1.070000   0.000000
     6  C    2.514809   2.732978   2.732978   1.540000   2.148263
     7  H    2.732978   2.514809   3.062243   2.148263   2.468846
     8  H    2.732978   3.062243   2.514809   2.148263   3.024610
     9  C    5.029619   5.142175   5.142175   3.875582   4.154945
    10  H    5.142175   5.029619   5.324484   4.154945   4.329403
    11  H    5.142175   5.324484   5.029619   4.154945   4.668704
    12  C    6.349583   6.523851   6.523851   5.029619   5.142175
    13  H    6.523851   6.862497   6.636324   5.142175   5.324484
    14  H    6.523851   6.636324   6.862497   5.142175   5.029619
    15  N    7.487383   7.566752   7.566752   6.287413   6.459494
    16  H    7.550777   7.487928   7.676093   6.442947   6.556808
    17  H    8.326718   8.440521   8.440521   7.051588   7.155772
    18  F    2.362224   3.273001   2.619262   1.350000   1.982524
    19  O    1.430000   2.051796   2.051796   2.425826   2.666083
    20  H    1.970203   2.315570   2.315570   3.267757   3.547732
    21  C    3.875582   4.154945   4.154945   2.514809   2.732978
    22  H    4.154945   4.668704   4.329403   2.732978   3.062243
    23  H    4.154945   4.329403   4.668704   2.732978   2.514809
                    6          7          8          9         10
     6  C    0.000000
     7  H    1.070000   0.000000
     8  H    1.070000   1.747303   0.000000
     9  C    2.514809   2.732978   2.732978   0.000000
    10  H    2.732978   2.514809   3.062243   1.070000   0.000000
    11  H    2.732978   3.062243   2.514809   1.070000   1.747303
    12  C    3.875582   4.154945   4.154945   1.540000   2.148263
    13  H    4.154945   4.668704   4.329403   2.148263   3.024610
    14  H    4.154945   4.329403   4.668704   2.148263   2.468846
    15  N    4.972628   5.091352   5.091352   2.457987   2.690081
    16  H    5.067580   4.973450   5.252479   2.644813   2.459648
    17  H    5.821830   5.983466   5.983466   3.331921   3.606919
    18  F    2.362224   3.273001   2.619262   4.269500   4.833329
    19  O    3.773818   4.050514   4.050514   6.251962   6.422772
    20  H    4.474472   4.636924   4.636924   6.986318   7.091460
    21  C    1.540000   2.148263   2.148263   1.540000   2.148263
    22  H    2.148263   3.024610   2.468846   2.148263   3.024610
    23  H    2.148263   2.468846   3.024610   2.148263   2.468846
                   11         12         13         14         15
    11  H    0.000000
    12  C    2.148263   0.000000
    13  H    2.468846   1.070000   0.000000
    14  H    3.024610   1.070000   1.747303   0.000000
    15  N    2.690081   1.470000   2.086720   2.086720   0.000000
    16  H    2.983823   2.034920   2.911082   2.370879   1.000000
    17  H    3.606919   2.034920   2.370879   2.370879   1.000000
    18  F    4.416907   5.207645   5.037407   5.406243   6.532769
    19  O    6.422772   7.454884   7.536489   7.536489   8.690409
    20  H    7.091460   8.261580   8.376268   8.376268   9.441525
    21  C    2.148263   2.514809   2.732978   2.732978   3.810770
    22  H    2.468846   2.732978   2.514809   3.062243   4.088455
    23  H    3.024610   2.732978   3.062243   2.514809   4.088455
                   16         17         18         19         20
    16  H    0.000000
    17  H    1.632993   0.000000
    18  F    6.881647   7.209050   0.000000
    19  O    8.799424   9.473641   2.793946   0.000000
    20  H    9.508368  10.261046   3.669296   0.960000   0.000000
    21  C    4.062261   4.539673   2.854254   4.940213   5.756883
    22  H    4.564588   4.699872   2.530349   5.062516   5.920293
    23  H    4.240535   4.699872   3.202291   5.062516   5.920293
                   21         22         23
    21  C    0.000000
    22  H    1.070000   0.000000
    23  H    1.070000   1.747303   0.000000
 Stoichiometry    C6H14FNO
 Framework group  C1[X(C6H14FNO)]
 Deg. of freedom    63
 Full point group                 C1      NOp   1
 Largest Abelian subgroup         C1      NOp   1
 Largest concise Abelian subgroup C1      NOp   1
                         Standard orientation:                         
 ---------------------------------------------------------------------
 Center     Atomic      Atomic             Coordinates (Angstroms)
 Number     Number       Type             X           Y           Z
 ---------------------------------------------------------------------
      1          6           0        2.908029   -0.728403   -0.126211
      2          1           0        2.849218   -1.667307    0.383595
      3          1           0        2.907656   -0.895752   -1.183044
      4          6           0        1.695362    0.140307    0.256386
      5          1           0        1.695735    0.307656    1.313218
      6          6           0        0.397515   -0.583157   -0.148325
      7          1           0        0.338703   -1.522060    0.361481
      8          1           0        0.397142   -0.750506   -1.205158
      9          6           0       -2.113000   -0.437910   -0.170439
     10          1           0       -2.171811   -1.376814    0.339367
     11          1           0       -2.113372   -0.605259   -1.227271
     12          6           0       -3.325666    0.430801    0.212158
     13          1           0       -3.266855    1.369704   -0.297648
     14          1           0       -3.325293    0.598149    1.268990
     15          7           0       -4.564521   -0.259779   -0.174157
     16          1           0       -4.619484   -1.137259    0.302297
     17          1           0       -5.351966    0.304319    0.074283
     18          9           0        1.769563    1.324905   -0.386827
     19          8           0        4.113173   -0.056615    0.249592
     20          1           0        4.869121   -0.598149    0.011090
     21          6           0       -0.815152    0.285554    0.234272
     22          1           0       -0.756341    1.224457   -0.275534
     23          1           0       -0.814779    0.452903    1.291104
 ---------------------------------------------------------------------
 Rotational constants (GHZ):           6.1714960           0.4607731           0.4415079
 Leave Link  202 at Thu Apr 16 19:52:20 2020, MaxMem=   280000000 cpu:              23.4 elap:               2.3
 (Enter /home/soft/g16/l301.exe)
 Standard basis: 6-31G(d,p) (6D, 7F)
 Ernie: Thresh=  0.10000D-02 Tol=  0.10000D-05 Strict=F.
 There are   205 symmetry adapted cartesian basis functions of A   symmetry.
 There are   205 symmetry adapted basis functions of A   symmetry.
   205 basis functions,   350 primitive gaussians,   205 cartesian basis functions
    37 alpha electrons       37 beta electrons
       nuclear repulsion energy       470.4047199387 Hartrees.
 IExCor=    0 DFT=F Ex=HF Corr=None ExCW=0 ScaHFX=  1.000000
 ScaDFX=  1.000000  1.000000  1.000000  1.000000 ScalE2=  1.000000  1.000000
 IRadAn=      5 IRanWt=     -1 IRanGd=            0 ICorTp=0 IEmpDi=  4
 NAtoms=   23 NActive=   23 NUniq=   23 SFac= 1.00D+00 NAtFMM=   60 NAOKFM=F Big=F
 Integral buffers will be    131072 words long.
 Raffenetti 1 integral format.
 Two-electron integral symmetry is turned on.
 Leave Link  301 at Thu Apr 16 19:52:24 2020, MaxMem=   280000000 cpu:               2.8 elap:               0.7
 (Enter /home/soft/g16/l302.exe)
 NPDir=0 NMtPBC=     1 NCelOv=     1 NCel=       1 NClECP=     1 NCelD=      1
         NCelK=      1 NCelE2=     1 NClLst=     1 CellRange=     0.0.
 One-electron integrals computed using PRISM.
 One-electron integral symmetry used in STVInt
 NBasis=   205 RedAO= T EigKep=  2.25D-03  NBF=   205
 NBsUse=   205 1.00D-06 EigRej= -1.00D+00 NBFU=   205
 Leave Link  302 at Thu Apr 16 19:52:27 2020, MaxMem=   280000000 cpu:              10.0 elap:               1.1
 (Enter /home/soft/g16/l303.exe)
 DipDrv:  MaxL=1.
 Leave Link  303 at Thu Apr 16 19:52:30 2020, MaxMem=   280000000 cpu:               0.5 elap:               0.1
 (Enter /home/soft/g16/l401.exe)
 ExpMin= 1.61D-01 ExpMax= 7.00D+03 ExpMxC= 1.05D+03 IAcc=3 IRadAn=         5 AccDes= 0.00D+00
 Harris functional with IExCor=  205 and IRadAn=       5 diagonalized for initial guess.
 HarFok:  IExCor=  205 AccDes= 0.00D+00 IRadAn=         5 IDoV= 1 UseB2=F ITyADJ=14
 ICtDFT=  3500011 ScaDFX=  1.000000  1.000000  1.000000  1.000000
 FoFCou: FMM=F IPFlag=           0 FMFlag=      100000 FMFlg1=           0
         NFxFlg=           0 DoJE=T BraDBF=F KetDBF=T FulRan=T
         wScrn=  0.000000 ICntrl=       500 IOpCl=  0 I1Cent=   200000004 NGrid=           0
         NMat0=    1 NMatS0=      1 NMatT0=    0 NMatD0=    1 NMtDS0=    0 NMtDT0=    0
 Petite list used in FoFCou.
 Harris En= -464.762551504624    
 JPrj=0 DoOrth=F DoCkMO=F.
 Leave Link  401 at Thu Apr 16 19:52:36 2020, MaxMem=   280000000 cpu:              45.7 elap:               4.5
 (Enter /home/soft/g16/l502.exe)
 Integral symmetry usage will be decided dynamically.
 Closed shell SCF:
 Using DIIS extrapolation, IDIIS=  1040.
 NGot=   280000000 LenX=   279911092 LenY=   279868626
 Requested convergence on RMS density matrix=1.00D-08 within 128 cycles.
 Requested convergence on MAX density matrix=1.00D-06.
 Requested convergence on             energy=1.00D-06.
 No special actions if energy rises.
 Fock matrices will be formed incrementally for  20 cycles.
 Integral accuracy reduced to 1.0D-05 until final iterations.

 Cycle   1  Pass 0  IDiag  1:
 FoFJK:  IHMeth= 1 ICntrl=       0 DoSepK=F KAlg= 0 I1Cent=           0 FoldK=F
 IRaf= 850000000 NMat=       1 IRICut=       1 DoRegI=T DoRafI=F ISym2E= 0 IDoP0=0 IntGTp=1.
 FoFCou: FMM=F IPFlag=           0 FMFlag=      100000 FMFlg1=           0
         NFxFlg=           0 DoJE=F BraDBF=F KetDBF=F FulRan=T
         wScrn=  0.000000 ICntrl=         0 IOpCl=  0 I1Cent=           0 NGrid=           0
         NMat0=    1 NMatS0=      1 NMatT0=    0 NMatD0=    1 NMtDS0=    0 NMtDT0=    0
 Symmetry not used in FoFCou.
 E= -463.680986329976    
 DIIS: error= 5.45D-02 at cycle   1 NSaved=   1.
 NSaved= 1 IEnMin= 1 EnMin= -463.680986329976     IErMin= 1 ErrMin= 5.45D-02
 ErrMax= 5.45D-02  0.00D+00 EMaxC= 1.00D-01 BMatC= 6.66D-01 BMatP= 6.66D-01
 IDIUse=3 WtCom= 4.55D-01 WtEn= 5.45D-01
 Coeff-Com:  0.100D+01
 Coeff-En:   0.100D+01
 Coeff:      0.100D+01
 Gap=     0.618 Goal=   None    Shift=    0.000
 GapD=    0.618 DampG=2.000 DampE=0.500 DampFc=1.0000 IDamp=-1.
 RMSDP=3.92D-03 MaxDP=1.14D-01              OVMax= 1.22D-01

 Cycle   2  Pass 0  IDiag  1:
 RMSU=  3.84D-03    CP:  9.63D-01
 E= -464.044110708302     Delta-E=       -0.363124378326 Rises=F Damp=F
 DIIS: error= 1.24D-02 at cycle   2 NSaved=   2.
 NSaved= 2 IEnMin= 2 EnMin= -464.044110708302     IErMin= 2 ErrMin= 1.24D-02
 ErrMax= 1.24D-02  0.00D+00 EMaxC= 1.00D-01 BMatC= 7.76D-02 BMatP= 6.66D-01
 IDIUse=3 WtCom= 8.76D-01 WtEn= 1.24D-01
 Coeff-Com:  0.186D+00 0.814D+00
 Coeff-En:   0.000D+00 0.100D+01
 Coeff:      0.163D+00 0.837D+00
 Gap=     0.647 Goal=   None    Shift=    0.000
 RMSDP=1.35D-03 MaxDP=4.55D-02 DE=-3.63D-01 OVMax= 4.36D-02

 Cycle   3  Pass 0  IDiag  1:
 RMSU=  8.95D-04    CP:  9.73D-01  7.41D-01
 E= -464.104013490212     Delta-E=       -0.059902781910 Rises=F Damp=F
 DIIS: error= 3.54D-03 at cycle   3 NSaved=   3.
 NSaved= 3 IEnMin= 3 EnMin= -464.104013490212     IErMin= 3 ErrMin= 3.54D-03
 ErrMax= 3.54D-03  0.00D+00 EMaxC= 1.00D-01 BMatC= 4.50D-03 BMatP= 7.76D-02
 IDIUse=3 WtCom= 9.65D-01 WtEn= 3.54D-02
 Coeff-Com: -0.229D-01 0.151D+00 0.872D+00
 Coeff-En:   0.000D+00 0.000D+00 0.100D+01
 Coeff:     -0.221D-01 0.146D+00 0.876D+00
 Gap=     0.600 Goal=   None    Shift=    0.000
 RMSDP=2.66D-04 MaxDP=1.09D-02 DE=-5.99D-02 OVMax= 9.45D-03

 Cycle   4  Pass 0  IDiag  1:
 RMSU=  1.52D-04    CP:  9.71D-01  7.96D-01  9.45D-01
 E= -464.107894335977     Delta-E=       -0.003880845765 Rises=F Damp=F
 DIIS: error= 6.83D-04 at cycle   4 NSaved=   4.
 NSaved= 4 IEnMin= 4 EnMin= -464.107894335977     IErMin= 4 ErrMin= 6.83D-04
 ErrMax= 6.83D-04  0.00D+00 EMaxC= 1.00D-01 BMatC= 1.52D-04 BMatP= 4.50D-03
 IDIUse=3 WtCom= 9.93D-01 WtEn= 6.83D-03
 Coeff-Com: -0.689D-02 0.149D-01 0.183D+00 0.809D+00
 Coeff-En:   0.000D+00 0.000D+00 0.000D+00 0.100D+01
 Coeff:     -0.685D-02 0.148D-01 0.182D+00 0.810D+00
 Gap=     0.601 Goal=   None    Shift=    0.000
 RMSDP=6.15D-05 MaxDP=2.52D-03 DE=-3.88D-03 OVMax= 2.02D-03

 Cycle   5  Pass 0  IDiag  1:
 RMSU=  4.97D-05    CP:  9.71D-01  7.98D-01  9.83D-01  9.32D-01
 E= -464.108034732108     Delta-E=       -0.000140396131 Rises=F Damp=F
 DIIS: error= 1.53D-04 at cycle   5 NSaved=   5.
 NSaved= 5 IEnMin= 5 EnMin= -464.108034732108     IErMin= 5 ErrMin= 1.53D-04
 ErrMax= 1.53D-04  0.00D+00 EMaxC= 1.00D-01 BMatC= 1.23D-05 BMatP= 1.52D-04
 IDIUse=3 WtCom= 9.98D-01 WtEn= 1.53D-03
 Coeff-Com:  0.211D-02-0.169D-01-0.875D-01 0.484D-01 0.105D+01
 Coeff-En:   0.000D+00 0.000D+00 0.000D+00 0.000D+00 0.100D+01
 Coeff:      0.210D-02-0.169D-01-0.874D-01 0.484D-01 0.105D+01
 Gap=     0.602 Goal=   None    Shift=    0.000
 RMSDP=2.65D-05 MaxDP=6.21D-04 DE=-1.40D-04 OVMax= 7.82D-04

 Cycle   6  Pass 0  IDiag  1:
 RMSU=  1.11D-05    CP:  9.71D-01  7.98D-01  9.95D-01  1.06D+00  1.18D+00
 E= -464.108051781246     Delta-E=       -0.000017049138 Rises=F Damp=F
 DIIS: error= 4.55D-05 at cycle   6 NSaved=   6.
 NSaved= 6 IEnMin= 6 EnMin= -464.108051781246     IErMin= 6 ErrMin= 4.55D-05
 ErrMax= 4.55D-05  0.00D+00 EMaxC= 1.00D-01 BMatC= 4.04D-07 BMatP= 1.23D-05
 IDIUse=1 WtCom= 1.00D+00 WtEn= 0.00D+00
 Coeff-Com:  0.561D-03-0.327D-02-0.191D-01-0.238D-01 0.142D+00 0.903D+00
 Coeff:      0.561D-03-0.327D-02-0.191D-01-0.238D-01 0.142D+00 0.903D+00
 Gap=     0.602 Goal=   None    Shift=    0.000
 RMSDP=5.07D-06 MaxDP=1.47D-04 DE=-1.70D-05 OVMax= 1.41D-04

 Initial convergence to 1.0D-05 achieved.  Increase integral accuracy.
 Cycle   7  Pass 1  IDiag  1:
 E= -464.108053769197     Delta-E=       -0.000001987951 Rises=F Damp=F
 DIIS: error= 1.16D-05 at cycle   1 NSaved=   1.
 NSaved= 1 IEnMin= 1 EnMin= -464.108053769197     IErMin= 1 ErrMin= 1.16D-05
 ErrMax= 1.16D-05  0.00D+00 EMaxC= 1.00D-01 BMatC= 5.18D-08 BMatP= 5.18D-08
 IDIUse=1 WtCom= 1.00D+00 WtEn= 0.00D+00
 Coeff-Com:  0.100D+01
 Coeff:      0.100D+01
 Gap=     0.602 Goal=   None    Shift=    0.000
 RMSDP=5.07D-06 MaxDP=1.47D-04 DE=-1.99D-06 OVMax= 6.61D-05

 Cycle   8  Pass 1  IDiag  1:
 RMSU=  2.09D-06    CP:  1.00D+00
 E= -464.108053820667     Delta-E=       -0.000000051469 Rises=F Damp=F
 DIIS: error= 6.07D-06 at cycle   2 NSaved=   2.
 NSaved= 2 IEnMin= 2 EnMin= -464.108053820667     IErMin= 2 ErrMin= 6.07D-06
 ErrMax= 6.07D-06  0.00D+00 EMaxC= 1.00D-01 BMatC= 8.63D-09 BMatP= 5.18D-08
 IDIUse=1 WtCom= 1.00D+00 WtEn= 0.00D+00
 Coeff-Com:  0.197D+00 0.803D+00
 Coeff:      0.197D+00 0.803D+00
 Gap=     0.602 Goal=   None    Shift=    0.000
 RMSDP=5.43D-07 MaxDP=1.74D-05 DE=-5.15D-08 OVMax= 2.49D-05

 Cycle   9  Pass 1  IDiag  1:
 RMSU=  5.05D-07    CP:  1.00D+00  1.09D+00
 E= -464.108053829950     Delta-E=       -0.000000009283 Rises=F Damp=F
 DIIS: error= 1.81D-06 at cycle   3 NSaved=   3.
 NSaved= 3 IEnMin= 3 EnMin= -464.108053829950     IErMin= 3 ErrMin= 1.81D-06
 ErrMax= 1.81D-06  0.00D+00 EMaxC= 1.00D-01 BMatC= 1.12D-09 BMatP= 8.63D-09
 IDIUse=1 WtCom= 1.00D+00 WtEn= 0.00D+00
 Coeff-Com: -0.105D+00 0.467D-01 0.106D+01
 Coeff:     -0.105D+00 0.467D-01 0.106D+01
 Gap=     0.602 Goal=   None    Shift=    0.000
 RMSDP=3.70D-07 MaxDP=1.46D-05 DE=-9.28D-09 OVMax= 1.84D-05

 Cycle  10  Pass 1  IDiag  1:
 RMSU=  2.00D-07    CP:  1.00D+00  1.22D+00  1.31D+00
 E= -464.108053832245     Delta-E=       -0.000000002295 Rises=F Damp=F
 DIIS: error= 6.03D-07 at cycle   4 NSaved=   4.
 NSaved= 4 IEnMin= 4 EnMin= -464.108053832245     IErMin= 4 ErrMin= 6.03D-07
 ErrMax= 6.03D-07  0.00D+00 EMaxC= 1.00D-01 BMatC= 8.70D-11 BMatP= 1.12D-09
 IDIUse=1 WtCom= 1.00D+00 WtEn= 0.00D+00
 Coeff-Com: -0.680D-02-0.816D-01-0.126D+00 0.121D+01
 Coeff:     -0.680D-02-0.816D-01-0.126D+00 0.121D+01
 Gap=     0.602 Goal=   None    Shift=    0.000
 RMSDP=1.49D-07 MaxDP=6.30D-06 DE=-2.29D-09 OVMax= 8.48D-06

 Cycle  11  Pass 1  IDiag  1:
 RMSU=  4.36D-08    CP:  1.00D+00  1.26D+00  1.49D+00  1.37D+00
 E= -464.108053832471     Delta-E=       -0.000000000226 Rises=F Damp=F
 DIIS: error= 1.46D-07 at cycle   5 NSaved=   5.
 NSaved= 5 IEnMin= 5 EnMin= -464.108053832471     IErMin= 5 ErrMin= 1.46D-07
 ErrMax= 1.46D-07  0.00D+00 EMaxC= 1.00D-01 BMatC= 9.23D-12 BMatP= 8.70D-11
 IDIUse=1 WtCom= 1.00D+00 WtEn= 0.00D+00
 Coeff-Com:  0.559D-02-0.234D-01-0.108D+00 0.336D+00 0.790D+00
 Coeff:      0.559D-02-0.234D-01-0.108D+00 0.336D+00 0.790D+00
 Gap=     0.602 Goal=   None    Shift=    0.000
 RMSDP=2.54D-08 MaxDP=9.39D-07 DE=-2.26D-10 OVMax= 1.58D-06

 Cycle  12  Pass 1  IDiag  1:
 RMSU=  1.47D-08    CP:  1.00D+00  1.26D+00  1.51D+00  1.44D+00  1.03D+00
 E= -464.108053832487     Delta-E=       -0.000000000016 Rises=F Damp=F
 DIIS: error= 4.45D-08 at cycle   6 NSaved=   6.
 NSaved= 6 IEnMin= 6 EnMin= -464.108053832487     IErMin= 6 ErrMin= 4.45D-08
 ErrMax= 4.45D-08  0.00D+00 EMaxC= 1.00D-01 BMatC= 5.32D-13 BMatP= 9.23D-12
 IDIUse=1 WtCom= 1.00D+00 WtEn= 0.00D+00
 Coeff-Com: -0.945D-03 0.129D-01 0.364D-01-0.184D+00-0.209D+00 0.134D+01
 Coeff:     -0.945D-03 0.129D-01 0.364D-01-0.184D+00-0.209D+00 0.134D+01
 Gap=     0.602 Goal=   None    Shift=    0.000
 RMSDP=1.23D-08 MaxDP=4.66D-07 DE=-1.57D-11 OVMax= 8.24D-07

 Cycle  13  Pass 1  IDiag  1:
 RMSU=  2.70D-09    CP:  1.00D+00  1.27D+00  1.52D+00  1.46D+00  1.19D+00
                    CP:  1.51D+00
 E= -464.108053832499     Delta-E=       -0.000000000013 Rises=F Damp=F
 DIIS: error= 1.41D-08 at cycle   7 NSaved=   7.
 NSaved= 7 IEnMin= 7 EnMin= -464.108053832499     IErMin= 7 ErrMin= 1.41D-08
 ErrMax= 1.41D-08  0.00D+00 EMaxC= 1.00D-01 BMatC= 4.35D-14 BMatP= 5.32D-13
 IDIUse=1 WtCom= 1.00D+00 WtEn= 0.00D+00
 Coeff-Com: -0.589D-03 0.456D-02 0.157D-01-0.634D-01-0.977D-01 0.287D+00
 Coeff-Com:  0.855D+00
 Coeff:     -0.589D-03 0.456D-02 0.157D-01-0.634D-01-0.977D-01 0.287D+00
 Coeff:      0.855D+00
 Gap=     0.602 Goal=   None    Shift=    0.000
 RMSDP=2.19D-09 MaxDP=1.02D-07 DE=-1.27D-11 OVMax= 1.55D-07

 SCF Done:  E(RHF) =  -464.108053832     A.U. after   13 cycles
            NFock= 13  Conv=0.22D-08     -V/T= 2.0009
 KE= 4.637033349091D+02 PE=-2.032449910216D+03 EE= 6.342338015353D+02
 Leave Link  502 at Thu Apr 16 19:52:44 2020, MaxMem=   280000000 cpu:              61.2 elap:               5.5
 (Enter /home/soft/g16/l601.exe)
 Copying SCF densities to generalized density rwf, IOpCl= 0 IROHF=0.

 **********************************************************************

            Population analysis using the SCF density.

 **********************************************************************

 Orbital symmetries:
       Occupied  (A) (A) (A) (A) (A) (A) (A) (A) (A) (A) (A) (A)
                 (A) (A) (A) (A) (A) (A) (A) (A) (A) (A) (A) (A)
                 (A) (A) (A) (A) (A) (A) (A) (A) (A) (A) (A) (A)
                 (A)
       Virtual   (A) (A) (A) (A) (A) (A) (A) (A) (A) (A) (A) (A)
                 (A) (A) (A) (A) (A) (A) (A) (A) (A) (A) (A) (A)
                 (A) (A) (A) (A) (A) (A) (A) (A) (A) (A) (A) (A)
                 (A) (A) (A) (A) (A) (A) (A) (A) (A) (A) (A) (A)
                 (A) (A) (A) (A) (A) (A) (A) (A) (A) (A) (A) (A)
                 (A) (A) (A) (A) (A) (A) (A) (A) (A) (A) (A) (A)
                 (A) (A) (A) (A) (A) (A) (A) (A) (A) (A) (A) (A)
                 (A) (A) (A) (A) (A) (A) (A) (A) (A) (A) (A) (A)
                 (A) (A) (A) (A) (A) (A) (A) (A) (A) (A) (A) (A)
                 (A) (A) (A) (A) (A) (A) (A) (A) (A) (A) (A) (A)
                 (A) (A) (A) (A) (A) (A) (A) (A) (A) (A) (A) (A)
                 (A) (A) (A) (A) (A) (A) (A) (A) (A) (A) (A) (A)
                 (A) (A) (A) (A) (A) (A) (A) (A) (A) (A) (A) (A)
                 (A) (A) (A) (A) (A) (A) (A) (A) (A) (A) (A) (A)
 The electronic state is 1-A.
 Alpha  occ. eigenvalues --  -26.27222 -20.55745 -15.53085 -11.30202 -11.27493
 Alpha  occ. eigenvalues --  -11.23825 -11.22193 -11.21517 -11.21183  -1.59129
 Alpha  occ. eigenvalues --   -1.35043  -1.17361  -1.08779  -1.02461  -0.94764
 Alpha  occ. eigenvalues --   -0.86226  -0.82228  -0.80545  -0.71920  -0.70198
 Alpha  occ. eigenvalues --   -0.67047  -0.66178  -0.65336  -0.63576  -0.61551
 Alpha  occ. eigenvalues --   -0.60377  -0.57331  -0.55570  -0.53052  -0.51508
 Alpha  occ. eigenvalues --   -0.51056  -0.48514  -0.48253  -0.47201  -0.44841
 Alpha  occ. eigenvalues --   -0.43414  -0.38028
 Alpha virt. eigenvalues --    0.22168   0.22529   0.23801   0.25852   0.26430
 Alpha virt. eigenvalues --    0.27950   0.30569   0.31159   0.32405   0.34268
 Alpha virt. eigenvalues --    0.34606   0.34906   0.36114   0.37120   0.37374
 Alpha virt. eigenvalues --    0.38410   0.39955   0.41041   0.43281   0.46089
 Alpha virt. eigenvalues --    0.50161   0.52908   0.69044   0.73288   0.75575
 Alpha virt. eigenvalues --    0.75979   0.78098   0.78664   0.82805   0.82870
 Alpha virt. eigenvalues --    0.85262   0.89027   0.89956   0.93294   0.94914
 Alpha virt. eigenvalues --    0.95629   0.98849   0.99562   1.00468   1.04586
 Alpha virt. eigenvalues --    1.06594   1.08129   1.09285   1.10756   1.12282
 Alpha virt. eigenvalues --    1.12404   1.16050   1.16650   1.17888   1.18483
 Alpha virt. eigenvalues --    1.19560   1.19830   1.20965   1.22609   1.23226
 Alpha virt. eigenvalues --    1.23252   1.24242   1.29286   1.30973   1.33286
 Alpha virt. eigenvalues --    1.44489   1.45741   1.50575   1.51397   1.56661
 Alpha virt. eigenvalues --    1.59041   1.60180   1.64088   1.67021   1.70424
 Alpha virt. eigenvalues --    1.71214   1.74837   1.76606   1.81905   1.83018
 Alpha virt. eigenvalues --    1.88009   1.91307   1.93295   1.94881   1.97021
 Alpha virt. eigenvalues --    1.98479   2.01819   2.06585   2.10448   2.12192
 Alpha virt. eigenvalues --    2.15800   2.16541   2.18526   2.19882   2.22226
 Alpha virt. eigenvalues --    2.25734   2.27008   2.28734   2.31754   2.33860
 Alpha virt. eigenvalues --    2.35607   2.40799   2.42519   2.42714   2.43332
 Alpha virt. eigenvalues --    2.43592   2.45937   2.49322   2.52105   2.54346
 Alpha virt. eigenvalues --    2.56486   2.57598   2.59552   2.61442   2.62469
 Alpha virt. eigenvalues --    2.63488   2.66952   2.68760   2.70376   2.72345
 Alpha virt. eigenvalues --    2.74132   2.75408   2.76526   2.80822   2.81995
 Alpha virt. eigenvalues --    2.90158   2.91922   2.94236   2.99146   3.00818
 Alpha virt. eigenvalues --    3.02358   3.03187   3.05102   3.08666   3.10056
 Alpha virt. eigenvalues --    3.12223   3.15529   3.18118   3.21576   3.22803
 Alpha virt. eigenvalues --    3.24655   3.26781   3.27836   3.29075   3.31382
 Alpha virt. eigenvalues --    3.33125   3.34868   3.35797   3.38172   3.51418
 Alpha virt. eigenvalues --    3.65698   3.67962   3.68933   3.71475   3.73092
 Alpha virt. eigenvalues --    3.74594   3.80063   3.83600   3.85783   3.89117
 Alpha virt. eigenvalues --    3.93050   3.94848   3.99453   4.00609   4.38293
 Alpha virt. eigenvalues --    4.43523   4.65082   4.76629   4.89628   4.97404
 Alpha virt. eigenvalues --    5.05490   5.08735   5.22180
          Condensed to atoms (all electrons):
               1          2          3          4          5          6
     1  C    4.691018   0.394712   0.401277   0.376631  -0.050166  -0.064949
     2  H    0.394712   0.635479  -0.044521  -0.044446  -0.001178   0.002199
     3  H    0.401277  -0.044521   0.610734  -0.037519   0.005389  -0.004326
     4  C    0.376631  -0.044446  -0.037519   4.601097   0.407566   0.347584
     5  H   -0.050166  -0.001178   0.005389   0.407566   0.603017  -0.053253
     6  C   -0.064949   0.002199  -0.004326   0.347584  -0.053253   5.086330
     7  H   -0.001702   0.000288   0.000500  -0.035294   0.001487   0.390534
     8  H   -0.006842   0.000568   0.002795  -0.033301   0.004811   0.402621
     9  C   -0.000073   0.000001   0.000000   0.004213  -0.000130  -0.055950
    10  H   -0.000006  -0.000001   0.000001  -0.000062   0.000019  -0.004274
    11  H    0.000003   0.000000  -0.000003  -0.000040  -0.000006  -0.004756
    12  C    0.000001  -0.000000  -0.000000  -0.000094  -0.000004   0.004754
    13  H   -0.000000   0.000000   0.000000   0.000001   0.000000  -0.000087
    14  H    0.000000   0.000000  -0.000000   0.000005  -0.000003  -0.000139
    15  N   -0.000000  -0.000000  -0.000000   0.000000   0.000000  -0.000081
    16  H   -0.000000  -0.000000  -0.000000  -0.000000   0.000000  -0.000003
    17  H    0.000000  -0.000000  -0.000000  -0.000000  -0.000000   0.000003
    18  F   -0.031244   0.002188  -0.000193   0.199888  -0.029281  -0.035299
    19  O    0.211017  -0.038161  -0.038857  -0.045424   0.001541   0.002265
    20  H   -0.023564  -0.004297  -0.003718   0.005401  -0.000212  -0.000196
    21  C    0.005226  -0.000286  -0.000200  -0.047270  -0.007339   0.339093
    22  H    0.000106  -0.000014   0.000019  -0.005568   0.000711  -0.039853
    23  H   -0.000050   0.000020  -0.000004  -0.003506   0.002123  -0.043283
               7          8          9         10         11         12
     1  C   -0.001702  -0.006842  -0.000073  -0.000006   0.000003   0.000001
     2  H    0.000288   0.000568   0.000001  -0.000001   0.000000  -0.000000
     3  H    0.000500   0.002795   0.000000   0.000001  -0.000003  -0.000000
     4  C   -0.035294  -0.033301   0.004213  -0.000062  -0.000040  -0.000094
     5  H    0.001487   0.004811  -0.000130   0.000019  -0.000006  -0.000004
     6  C    0.390534   0.402621  -0.055950  -0.004274  -0.004756   0.004754
     7  H    0.592379  -0.026603  -0.004331   0.001582   0.000310  -0.000039
     8  H   -0.026603   0.566869  -0.004072   0.000347   0.001660  -0.000057
     9  C   -0.004331  -0.004072   4.994593   0.406874   0.407561   0.361990
    10  H    0.001582   0.000347   0.406874   0.605325  -0.030746  -0.040931
    11  H    0.000310   0.001660   0.407561  -0.030746   0.564725  -0.036818
    12  C   -0.000039  -0.000057   0.361990  -0.040931  -0.036818   4.777362
    13  H   -0.000006   0.000020  -0.035334   0.004627  -0.004319   0.413814
    14  H    0.000022  -0.000008  -0.054221  -0.004632   0.005185   0.418263
    15  N   -0.000000  -0.000002  -0.063394  -0.002296   0.002418   0.268007
    16  H   -0.000002   0.000001  -0.006103   0.003186  -0.000099  -0.037070
    17  H    0.000000   0.000000   0.005998  -0.000059  -0.000112  -0.037932
    18  F    0.002126   0.000656   0.000085  -0.000002   0.000003   0.000001
    19  O   -0.000044  -0.000033   0.000000   0.000000   0.000000  -0.000000
    20  H   -0.000001  -0.000003  -0.000000  -0.000000   0.000000   0.000000
    21  C   -0.038116  -0.040124   0.340272  -0.041437  -0.038240  -0.055945
    22  H    0.004446  -0.002041  -0.039602   0.004283  -0.002751  -0.003901
    23  H   -0.002549   0.004345  -0.040666  -0.002775   0.004392  -0.003588
              13         14         15         16         17         18
     1  C   -0.000000   0.000000  -0.000000  -0.000000   0.000000  -0.031244
     2  H    0.000000   0.000000  -0.000000  -0.000000  -0.000000   0.002188
     3  H    0.000000  -0.000000  -0.000000  -0.000000  -0.000000  -0.000193
     4  C    0.000001   0.000005   0.000000  -0.000000  -0.000000   0.199888
     5  H    0.000000  -0.000003   0.000000   0.000000  -0.000000  -0.029281
     6  C   -0.000087  -0.000139  -0.000081  -0.000003   0.000003  -0.035299
     7  H   -0.000006   0.000022  -0.000000  -0.000002   0.000000   0.002126
     8  H    0.000020  -0.000008  -0.000002   0.000001   0.000000   0.000656
     9  C   -0.035334  -0.054221  -0.063394  -0.006103   0.005998   0.000085
    10  H    0.004627  -0.004632  -0.002296   0.003186  -0.000059  -0.000002
    11  H   -0.004319   0.005185   0.002418  -0.000099  -0.000112   0.000003
    12  C    0.413814   0.418263   0.268007  -0.037070  -0.037932   0.000001
    13  H    0.583227  -0.041844  -0.039628   0.005269  -0.003296  -0.000001
    14  H   -0.041844   0.647316  -0.057222  -0.003203  -0.002796   0.000000
    15  N   -0.039628  -0.057222   6.878431   0.359908   0.362769   0.000000
    16  H    0.005269  -0.003203   0.359908   0.446836  -0.027903   0.000000
    17  H   -0.003296  -0.002796   0.362769  -0.027903   0.440517   0.000000
    18  F   -0.000001   0.000000   0.000000   0.000000   0.000000   9.289230
    19  O    0.000000   0.000000   0.000000  -0.000000  -0.000000   0.002506
    20  H   -0.000000  -0.000000  -0.000000   0.000000   0.000000  -0.000079
    21  C   -0.003975  -0.000269   0.003731  -0.000160  -0.000188   0.000590
    22  H    0.001865   0.000179  -0.000017   0.000001   0.000001   0.005584
    23  H    0.000206   0.002077  -0.000045   0.000010  -0.000001  -0.000084
              19         20         21         22         23
     1  C    0.211017  -0.023564   0.005226   0.000106  -0.000050
     2  H   -0.038161  -0.004297  -0.000286  -0.000014   0.000020
     3  H   -0.038857  -0.003718  -0.000200   0.000019  -0.000004
     4  C   -0.045424   0.005401  -0.047270  -0.005568  -0.003506
     5  H    0.001541  -0.000212  -0.007339   0.000711   0.002123
     6  C    0.002265  -0.000196   0.339093  -0.039853  -0.043283
     7  H   -0.000044  -0.000001  -0.038116   0.004446  -0.002549
     8  H   -0.000033  -0.000003  -0.040124  -0.002041   0.004345
     9  C    0.000000  -0.000000   0.340272  -0.039602  -0.040666
    10  H    0.000000  -0.000000  -0.041437   0.004283  -0.002775
    11  H    0.000000   0.000000  -0.038240  -0.002751   0.004392
    12  C   -0.000000   0.000000  -0.055945  -0.003901  -0.003588
    13  H    0.000000  -0.000000  -0.003975   0.001865   0.000206
    14  H    0.000000  -0.000000  -0.000269   0.000179   0.002077
    15  N    0.000000  -0.000000   0.003731  -0.000017  -0.000045
    16  H   -0.000000   0.000000  -0.000160   0.000001   0.000010
    17  H   -0.000000   0.000000  -0.000188   0.000001  -0.000001
    18  F    0.002506  -0.000079   0.000590   0.005584  -0.000084
    19  O    8.259100   0.308094  -0.000042  -0.000001  -0.000000
    20  H    0.308094   0.378773   0.000003   0.000000   0.000000
    21  C   -0.000042   0.000003   4.996973   0.413869   0.408857
    22  H   -0.000001   0.000000   0.413869   0.550235  -0.028005
    23  H   -0.000000   0.000000   0.408857  -0.028005   0.590900
 Mulliken charges:
               1
     1  C    0.098605
     2  H    0.097447
     3  H    0.108626
     4  C    0.310137
     5  H    0.114906
     6  C   -0.268934
     7  H    0.115011
     8  H    0.128391
     9  C   -0.217710
    10  H    0.100980
    11  H    0.131632
    12  C   -0.027812
    13  H    0.119461
    14  H    0.091289
    15  N   -0.712582
    16  H    0.259330
    17  H    0.263000
    18  F   -0.406675
    19  O   -0.661960
    20  H    0.339799
    21  C   -0.235022
    22  H    0.140454
    23  H    0.111628
 Sum of Mulliken charges =  -0.00000
 Mulliken charges with hydrogens summed into heavy atoms:
               1
     1  C    0.304679
     4  C    0.425043
     6  C   -0.025532
     9  C    0.014901
    12  C    0.182937
    15  N   -0.190252
    18  F   -0.406675
    19  O   -0.322161
    21  C    0.017060
 Electronic spatial extent (au):  <R**2>=           2456.6694
 Charge=              0.0000 electrons
 Dipole moment (field-independent basis, Debye):
    X=             -0.3728    Y=             -2.8211    Z=              1.3049  Tot=              3.1306
 Quadrupole moment (field-independent basis, Debye-Ang):
   XX=            -53.4198   YY=            -55.8574   ZZ=            -56.7964
   XY=            -11.3167   XZ=             -9.1433   YZ=             -0.4634
 Traceless Quadrupole moment (field-independent basis, Debye-Ang):
   XX=              1.9380   YY=             -0.4995   ZZ=             -1.4385
   XY=            -11.3167   XZ=             -9.1433   YZ=             -0.4634
 Octapole moment (field-independent basis, Debye-Ang**2):
  XXX=             39.4937  YYY=              3.9376  ZZZ=             -1.4234  XYY=              2.1037
  XXY=            -27.0848  XXZ=             20.4914  XZZ=             12.9252  YZZ=              2.8690
  YYZ=              1.3379  XYZ=              6.9678
 Hexadecapole moment (field-independent basis, Debye-Ang**3):
 XXXX=          -2303.1017 YYYY=           -209.0048 ZZZZ=           -108.9474 XXXY=           -185.3554
 XXXZ=           -224.6450 YYYX=             12.5433 YYYZ=             -8.8871 ZZZX=            -10.9701
 ZZZY=             -3.4105 XXYY=           -447.7957 XXZZ=           -507.0768 YYZZ=            -53.7765
 XXYZ=            -18.7786 YYXZ=             -1.9943 ZZXY=              2.8584
 N-N= 4.704047199387D+02 E-N=-2.032449908227D+03  KE= 4.637033349091D+02
 No NMR shielding tensors so no spin-rotation constants.
 Leave Link  601 at Thu Apr 16 19:52:47 2020, MaxMem=   280000000 cpu:               2.0 elap:               0.4
 (Enter /home/soft/g16/l9999.exe)
 1\1\GINC-MASTER\SP\RHF\6-31G(d,p)\C6H14F1N1O1\LIWEI01\16-Apr-2020\0\\#
 p hf/6-31g**\\gebf{dis=3.0 frag=read charge=npa}\\0,1\C,0,-7.24124298,
 0.10811971,-0.52280285\H,0,-7.54800104,1.13259561,-0.48746708\H,0,-7.6
 3794822,-0.35281555,-1.40317983\C,0,-5.70334476,0.03350295,-0.55282649
 \H,0,-5.30663952,0.49443822,0.32755049\C,0,-5.17790776,0.76996336,-1.7
 9907768\H,0,-5.48466583,1.79443926,-1.76374191\H,0,-5.57461301,0.30902
 809,-2.67945466\C,0,-3.11457255,1.43180701,-3.07535251\H,0,-3.42133061
 ,2.45628291,-3.04001674\H,0,-3.51127779,0.97087174,-3.95572949\C,0,-1.
 57667433,1.35719024,-3.10537615\H,0,-1.26991626,0.33271434,-3.14071191
 \H,0,-1.17996909,1.81812551,-2.22499917\N,0,-1.07512083,2.06017518,-4.
 29497955\H,0,-1.36181061,3.01762929,-4.26195547\H,0,-0.07648562,2.0117
 2274,-4.31447543\F,0,-5.31631356,-1.2590601,-0.597409\O,0,-7.72914876,
 -0.57573638,0.6344304\H,0,-8.68783856,-0.52922204,0.65314644\C,0,-3.64
 000955,0.6953466,-1.82910132\H,0,-3.33325148,-0.32912931,-1.86443708\H
 ,0,-3.2433043,1.15628186,-0.94872434\\Version=ES64L-G16RevA.03\State=1
 -A\HF=-464.1080538\RMSD=2.192e-09\Dipole=-0.3273924,1.1854154,-0.06787
 53\Quadrupole=10.8795123,-1.7894036,-9.0901087,0.2162137,2.0741754,3.5
 144828\PG=C01 [X(C6H14F1N1O1)]\\@


 DESK:  A WASTEBASKET WITH DRAWERS.
 Job cpu time:       0 days  0 hours  2 minutes 39.0 seconds.
 Elapsed time:       0 days  0 hours  0 minutes 16.3 seconds.
 File lengths (MBytes):  RWF=     88 Int=      0 D2E=      0 Chk=      8 Scr=      8
 Normal termination of Gaussian 16 at Thu Apr 16 19:52:48 2020.
