#INFO: **** input file is /home/wsr/dftpart/test/test_c12h26.py ****
from pyscf import gto,dft
import numpy as np
#import gen_grid_sep
#import numint_sep
import xceda
import os
import time

name = 'C12H26'

#baslist = ['6-31+gss','6-31++gss','def2dzvp','def2tzvp','cc-pvdz','cc-pvtz','aug-cc-pvtz']
#xclist = [] 

mol = gto.Mole()
with open('c12h26.xyz','r') as f:
    mol.atom = f.readlines()
mol.basis = '6-31gss'
mol.output = name+'-pyscf.log'
mol.verbose = 9
mol.max_memory = 20000
mol.build()

t1 = time.time()
ks = dft.RKS(mol)
ks.xc = 'b3lyp'
#ks.grids = gen_grid_sep.Grids(ks.mol)
ks.kernel()

t2 = time.time()
#dm = ks.make_rdm1()
os.system("echo '' > %s" % (name+'-xceda.log'))

atom_exc, dexc = xceda.analysis(ks)
#os.system("echo \"E_xc of C: %.10f\n\" >> %s" % (np.mean(atom_exc[0:38:4]), name+'-xceda.log'))
#os.system("echo \"E_xc of H: %.10f\n\" >> %s" % (np.mean(atom_exc[6:18]), name+'-xceda.log'))
t3 = time.time()
print(t2-t1, t3-t2)

#INFO: ******************** input file end ********************


System: uname_result(system='Linux', node='lw06', release='3.10.0-957.el7.x86_64', version='#1 SMP Thu Nov 8 23:39:32 UTC 2018', machine='x86_64', processor='x86_64')  Threads 48
Python 3.7.3 (default, Mar 27 2019, 22:11:17) 
[GCC 7.3.0]
numpy 1.16.2  scipy 1.2.1
Date: Sun Jun 30 15:05:50 2019
PySCF version 1.6.2
PySCF path  /home/wsr/pyscf

[CONFIG] DEBUG = False
[CONFIG] MAX_MEMORY = 4000
[CONFIG] TMPDIR = .
[CONFIG] UNIT = angstrom
[CONFIG] VERBOSE = 3
[CONFIG] conf_file = None
[INPUT] verbose = 9
[INPUT] max_memory = 20000 
[INPUT] num. atoms = 38
[INPUT] num. electrons = 98
[INPUT] charge = 0
[INPUT] spin (= nelec alpha-beta = 2S) = 0
[INPUT] symmetry False subgroup None
[INPUT] Mole.unit = angstrom
[INPUT]  1 C     -7.760571710000  -0.690679840000   0.714187300000 AA  -14.665355101948  -1.305195737358   1.349618398643 Bohr
[INPUT]  2 H     -7.403917290000  -1.699489840000   0.714187300000 AA  -13.991375927032  -3.211570349081   1.349618398643 Bohr
[INPUT]  3 H     -7.403898870000  -0.186281650000   1.587838800000 AA  -13.991341118277  -0.352021300532   3.000580461958 Bohr
[INPUT]  4 H     -8.830571710000  -0.690666660000   0.714187300000 AA  -16.687362055232  -1.305170830768   1.349618398643 Bohr
[INPUT]  5 C     -7.247229490000   0.035276430000  -0.543217670000 AA  -13.695278897971   0.066662791352  -1.026532622324 Bohr
[INPUT]  6 H     -7.605480420000   1.043520110000  -0.544196420000 AA  -14.372275039542   1.971967213376  -1.028382191769 Bohr
[INPUT]  7 H     -7.602304130000  -0.470250360000  -1.416867870000 AA  -14.366272721350  -0.888644390378  -2.677492228996 Bohr
[INPUT]  8 C     -5.707232040000   0.037695900000  -0.541810400000 AA  -10.785105484943   0.071234927019  -1.023873267441 Bohr
[INPUT]  9 H     -5.348982300000  -0.970547770000  -0.540454700000 AA  -10.108111592146  -1.834069476107  -1.021311365734 Bohr
[INPUT] 10 H     -5.352157510000   0.543548610000   0.331651170000 AA  -10.114111869434   1.027158008288   0.626729880192 Bohr
[INPUT] 11 C     -5.193888830000   0.763182740000  -1.799485870000 AA   -9.815027410138   1.442206361595  -3.400535459325 Bohr
[INPUT] 12 H     -5.552206560000   1.771402190000  -1.800882260000 AA  -10.492149785414   3.347464995555  -3.403174253988 Bohr
[INPUT] 13 H     -5.548895830000   0.257282680000  -2.672947470000 AA  -10.485893412441   0.486193801794  -5.051138663649 Bohr
[INPUT] 14 C     -3.653891600000   0.765704890000  -1.798019450000 AA   -6.904854412849   1.446972534340  -3.397764327141 Bohr
[INPUT] 15 H     -3.295574730000  -0.242514850000  -1.796613100000 AA   -6.227733662737  -0.458286647640  -3.395106710806 Bohr
[INPUT] 16 H     -3.298884380000   1.271613210000  -0.924562730000 AA   -6.233987994806   2.403000703279  -1.747170344680 Bohr
[INPUT] 17 C     -3.140548370000   1.491179950000  -3.055701710000 AA   -5.934776300249   2.817921707943  -5.774439350265 Bohr
[INPUT] 18 H     -3.498867520000   2.499398880000  -3.057108420000 AA   -6.611901358936   4.723179359245  -5.777097646902 Bohr
[INPUT] 19 H     -3.495553930000   0.985270700000  -3.929158570000 AA   -6.605639581347   1.861891781559  -7.425033597288 Bohr
[INPUT] 20 C     -1.600551140000   1.493704280000  -3.054234050000 AA   -3.024603302960   2.822692000291  -5.771665874821 Bohr
[INPUT] 21 H     -1.242232840000   0.485485050000  -3.052828560000 AA   -2.347479850541   0.917433782071  -5.769009883650 Bohr
[INPUT] 22 H     -1.245545350000   1.999612100000  -2.180776450000 AA   -2.353739587226   3.778719224366  -4.121070229401 Bohr
[INPUT] 23 C     -1.087207910000   2.219181520000  -4.311915050000 AA   -2.054525190361   4.193645293496  -8.148338516890 Bohr
[INPUT] 24 H     -1.445525630000   3.227400960000  -4.313319140000 AA   -2.731647546739   6.098903908558  -8.150991862445 Bohr
[INPUT] 25 H     -1.442214910000   1.713274800000  -5.185372790000 AA   -2.725391192664   3.237620148119  -9.798934426872 Bohr
[INPUT] 26 C      0.452789330000   2.221703650000  -4.310448640000 AA    0.855647825825   4.198411428447  -8.145567403604 Bohr
[INPUT] 27 H      0.811106190000   1.213483910000  -4.309045810000 AA    1.532768557039   2.293152246466  -8.142916439105 Bohr
[INPUT] 28 H      0.807796550000   2.727608920000  -3.436990150000 AA    1.526514243869   5.154433833721  -6.494970076328 Bohr
[INPUT] 29 C      0.966132550000   2.947183100000  -5.568128370000 AA    1.825725919528   5.569368897947 -10.522237645721 Bohr
[INPUT] 30 H      0.607816270000   3.955403060000  -5.569529800000 AA    1.148606284355   7.474628495667 -10.524885964604 Bohr
[INPUT] 31 H      0.611124120000   2.441278930000  -6.441587000000 AA    1.154857214916   4.613348571371 -12.172835237559 Bohr
[INPUT] 32 C      2.506129790000   2.949703030000  -5.566663230000 AA    4.735898935714   5.574130875500 -10.519468932387 Bohr
[INPUT] 33 H      2.864445220000   1.941482770000  -5.565263040000 AA    5.413016964620   3.668870710862 -10.516822956764 Bohr
[INPUT] 34 H      2.861138460000   3.455605760000  -4.693203850000 AA    5.406768093860   6.530148480870  -8.868869923254 Bohr
[INPUT] 35 C      3.019473010000   3.675184680000  -6.824341690000 AA    5.705977029416   6.945092502397 -12.896136774551 Bohr
[INPUT] 36 H      2.661158170000   4.683405150000  -6.825740480000 AA    5.028860115449   8.850353063878 -12.898780104557 Bohr
[INPUT] 37 H      4.089471100000   3.676934010000  -6.823324570000 AA    7.727980373324   6.948398256999 -12.894214696316 Bohr
[INPUT] 38 H      2.664463140000   3.169283040000  -7.697801200000 AA    5.035105603599   5.989076956829 -14.546736029348 Bohr
[INPUT] ---------------- BASIS SET ---------------- 
[INPUT] l, kappa, [nprim/nctr], expnt,             c_1 c_2 ...
[INPUT] C
[INPUT] 0    0    [6    /1   ]  3047.5249         0.0018347
                                457.36951         0.0140373
                                103.94869         0.0688426
                                29.210155         0.2321844
                                9.286663          0.4679413
                                3.163927          0.362312
[INPUT] 0    0    [3    /1   ]  7.8682724         -0.1193324
                                1.8812885         -0.1608542
                                0.5442493         1.1434564
[INPUT] 0    0    [1    /1   ]  0.1687144            1
[INPUT] 1    0    [3    /1   ]  7.8682724         0.0689991
                                1.8812885         0.316424
                                0.5442493         0.7443083
[INPUT] 1    0    [1    /1   ]  0.1687144            1
[INPUT] 2    0    [1    /1   ]  0.8                  1
[INPUT] H
[INPUT] 0    0    [3    /1   ]  18.731137         0.0334946
                                2.8253937         0.23472695
                                0.6401217         0.81375733
[INPUT] 0    0    [1    /1   ]  0.1612778            1
[INPUT] 1    0    [1    /1   ]  1.1                  1

nuclear repulsion = 678.876069185797
number of shells = 150
number of NR pGTOs = 506
number of NR cGTOs = 298
basis = 6-31gss
ecp = {}
bas 0, expnt(s) = [3047.5249    457.36951   103.94869    29.210155    9.286663    3.163927]
bas 1, expnt(s) = [7.8682724 1.8812885 0.5442493]
bas 2, expnt(s) = [0.1687144]
bas 3, expnt(s) = [7.8682724 1.8812885 0.5442493]
bas 4, expnt(s) = [0.1687144]
bas 5, expnt(s) = [0.8]
bas 6, expnt(s) = [18.731137   2.8253937  0.6401217]
bas 7, expnt(s) = [0.1612778]
bas 8, expnt(s) = [1.1]
bas 9, expnt(s) = [18.731137   2.8253937  0.6401217]
bas 10, expnt(s) = [0.1612778]
bas 11, expnt(s) = [1.1]
bas 12, expnt(s) = [18.731137   2.8253937  0.6401217]
bas 13, expnt(s) = [0.1612778]
bas 14, expnt(s) = [1.1]
bas 15, expnt(s) = [3047.5249    457.36951   103.94869    29.210155    9.286663    3.163927]
bas 16, expnt(s) = [7.8682724 1.8812885 0.5442493]
bas 17, expnt(s) = [0.1687144]
bas 18, expnt(s) = [7.8682724 1.8812885 0.5442493]
bas 19, expnt(s) = [0.1687144]
bas 20, expnt(s) = [0.8]
bas 21, expnt(s) = [18.731137   2.8253937  0.6401217]
bas 22, expnt(s) = [0.1612778]
bas 23, expnt(s) = [1.1]
bas 24, expnt(s) = [18.731137   2.8253937  0.6401217]
bas 25, expnt(s) = [0.1612778]
bas 26, expnt(s) = [1.1]
bas 27, expnt(s) = [3047.5249    457.36951   103.94869    29.210155    9.286663    3.163927]
bas 28, expnt(s) = [7.8682724 1.8812885 0.5442493]
bas 29, expnt(s) = [0.1687144]
bas 30, expnt(s) = [7.8682724 1.8812885 0.5442493]
bas 31, expnt(s) = [0.1687144]
bas 32, expnt(s) = [0.8]
bas 33, expnt(s) = [18.731137   2.8253937  0.6401217]
bas 34, expnt(s) = [0.1612778]
bas 35, expnt(s) = [1.1]
bas 36, expnt(s) = [18.731137   2.8253937  0.6401217]
bas 37, expnt(s) = [0.1612778]
bas 38, expnt(s) = [1.1]
bas 39, expnt(s) = [3047.5249    457.36951   103.94869    29.210155    9.286663    3.163927]
bas 40, expnt(s) = [7.8682724 1.8812885 0.5442493]
bas 41, expnt(s) = [0.1687144]
bas 42, expnt(s) = [7.8682724 1.8812885 0.5442493]
bas 43, expnt(s) = [0.1687144]
bas 44, expnt(s) = [0.8]
bas 45, expnt(s) = [18.731137   2.8253937  0.6401217]
bas 46, expnt(s) = [0.1612778]
bas 47, expnt(s) = [1.1]
bas 48, expnt(s) = [18.731137   2.8253937  0.6401217]
bas 49, expnt(s) = [0.1612778]
bas 50, expnt(s) = [1.1]
bas 51, expnt(s) = [3047.5249    457.36951   103.94869    29.210155    9.286663    3.163927]
bas 52, expnt(s) = [7.8682724 1.8812885 0.5442493]
bas 53, expnt(s) = [0.1687144]
bas 54, expnt(s) = [7.8682724 1.8812885 0.5442493]
bas 55, expnt(s) = [0.1687144]
bas 56, expnt(s) = [0.8]
bas 57, expnt(s) = [18.731137   2.8253937  0.6401217]
bas 58, expnt(s) = [0.1612778]
bas 59, expnt(s) = [1.1]
bas 60, expnt(s) = [18.731137   2.8253937  0.6401217]
bas 61, expnt(s) = [0.1612778]
bas 62, expnt(s) = [1.1]
bas 63, expnt(s) = [3047.5249    457.36951   103.94869    29.210155    9.286663    3.163927]
bas 64, expnt(s) = [7.8682724 1.8812885 0.5442493]
bas 65, expnt(s) = [0.1687144]
bas 66, expnt(s) = [7.8682724 1.8812885 0.5442493]
bas 67, expnt(s) = [0.1687144]
bas 68, expnt(s) = [0.8]
bas 69, expnt(s) = [18.731137   2.8253937  0.6401217]
bas 70, expnt(s) = [0.1612778]
bas 71, expnt(s) = [1.1]
bas 72, expnt(s) = [18.731137   2.8253937  0.6401217]
bas 73, expnt(s) = [0.1612778]
bas 74, expnt(s) = [1.1]
bas 75, expnt(s) = [3047.5249    457.36951   103.94869    29.210155    9.286663    3.163927]
bas 76, expnt(s) = [7.8682724 1.8812885 0.5442493]
bas 77, expnt(s) = [0.1687144]
bas 78, expnt(s) = [7.8682724 1.8812885 0.5442493]
bas 79, expnt(s) = [0.1687144]
bas 80, expnt(s) = [0.8]
bas 81, expnt(s) = [18.731137   2.8253937  0.6401217]
bas 82, expnt(s) = [0.1612778]
bas 83, expnt(s) = [1.1]
bas 84, expnt(s) = [18.731137   2.8253937  0.6401217]
bas 85, expnt(s) = [0.1612778]
bas 86, expnt(s) = [1.1]
bas 87, expnt(s) = [3047.5249    457.36951   103.94869    29.210155    9.286663    3.163927]
bas 88, expnt(s) = [7.8682724 1.8812885 0.5442493]
bas 89, expnt(s) = [0.1687144]
bas 90, expnt(s) = [7.8682724 1.8812885 0.5442493]
bas 91, expnt(s) = [0.1687144]
bas 92, expnt(s) = [0.8]
bas 93, expnt(s) = [18.731137   2.8253937  0.6401217]
bas 94, expnt(s) = [0.1612778]
bas 95, expnt(s) = [1.1]
bas 96, expnt(s) = [18.731137   2.8253937  0.6401217]
bas 97, expnt(s) = [0.1612778]
bas 98, expnt(s) = [1.1]
bas 99, expnt(s) = [3047.5249    457.36951   103.94869    29.210155    9.286663    3.163927]
bas 100, expnt(s) = [7.8682724 1.8812885 0.5442493]
bas 101, expnt(s) = [0.1687144]
bas 102, expnt(s) = [7.8682724 1.8812885 0.5442493]
bas 103, expnt(s) = [0.1687144]
bas 104, expnt(s) = [0.8]
bas 105, expnt(s) = [18.731137   2.8253937  0.6401217]
bas 106, expnt(s) = [0.1612778]
bas 107, expnt(s) = [1.1]
bas 108, expnt(s) = [18.731137   2.8253937  0.6401217]
bas 109, expnt(s) = [0.1612778]
bas 110, expnt(s) = [1.1]
bas 111, expnt(s) = [3047.5249    457.36951   103.94869    29.210155    9.286663    3.163927]
bas 112, expnt(s) = [7.8682724 1.8812885 0.5442493]
bas 113, expnt(s) = [0.1687144]
bas 114, expnt(s) = [7.8682724 1.8812885 0.5442493]
bas 115, expnt(s) = [0.1687144]
bas 116, expnt(s) = [0.8]
bas 117, expnt(s) = [18.731137   2.8253937  0.6401217]
bas 118, expnt(s) = [0.1612778]
bas 119, expnt(s) = [1.1]
bas 120, expnt(s) = [18.731137   2.8253937  0.6401217]
bas 121, expnt(s) = [0.1612778]
bas 122, expnt(s) = [1.1]
bas 123, expnt(s) = [3047.5249    457.36951   103.94869    29.210155    9.286663    3.163927]
bas 124, expnt(s) = [7.8682724 1.8812885 0.5442493]
bas 125, expnt(s) = [0.1687144]
bas 126, expnt(s) = [7.8682724 1.8812885 0.5442493]
bas 127, expnt(s) = [0.1687144]
bas 128, expnt(s) = [0.8]
bas 129, expnt(s) = [18.731137   2.8253937  0.6401217]
bas 130, expnt(s) = [0.1612778]
bas 131, expnt(s) = [1.1]
bas 132, expnt(s) = [18.731137   2.8253937  0.6401217]
bas 133, expnt(s) = [0.1612778]
bas 134, expnt(s) = [1.1]
bas 135, expnt(s) = [3047.5249    457.36951   103.94869    29.210155    9.286663    3.163927]
bas 136, expnt(s) = [7.8682724 1.8812885 0.5442493]
bas 137, expnt(s) = [0.1687144]
bas 138, expnt(s) = [7.8682724 1.8812885 0.5442493]
bas 139, expnt(s) = [0.1687144]
bas 140, expnt(s) = [0.8]
bas 141, expnt(s) = [18.731137   2.8253937  0.6401217]
bas 142, expnt(s) = [0.1612778]
bas 143, expnt(s) = [1.1]
bas 144, expnt(s) = [18.731137   2.8253937  0.6401217]
bas 145, expnt(s) = [0.1612778]
bas 146, expnt(s) = [1.1]
bas 147, expnt(s) = [18.731137   2.8253937  0.6401217]
bas 148, expnt(s) = [0.1612778]
bas 149, expnt(s) = [1.1]
CPU time:         0.45
arg.atm = [[  6  20   1  23   0   0]
 [  1  24   1  27   0   0]
 [  1  28   1  31   0   0]
 [  1  32   1  35   0   0]
 [  6  36   1  39   0   0]
 [  1  40   1  43   0   0]
 [  1  44   1  47   0   0]
 [  6  48   1  51   0   0]
 [  1  52   1  55   0   0]
 [  1  56   1  59   0   0]
 [  6  60   1  63   0   0]
 [  1  64   1  67   0   0]
 [  1  68   1  71   0   0]
 [  6  72   1  75   0   0]
 [  1  76   1  79   0   0]
 [  1  80   1  83   0   0]
 [  6  84   1  87   0   0]
 [  1  88   1  91   0   0]
 [  1  92   1  95   0   0]
 [  6  96   1  99   0   0]
 [  1 100   1 103   0   0]
 [  1 104   1 107   0   0]
 [  6 108   1 111   0   0]
 [  1 112   1 115   0   0]
 [  1 116   1 119   0   0]
 [  6 120   1 123   0   0]
 [  1 124   1 127   0   0]
 [  1 128   1 131   0   0]
 [  6 132   1 135   0   0]
 [  1 136   1 139   0   0]
 [  1 140   1 143   0   0]
 [  6 144   1 147   0   0]
 [  1 148   1 151   0   0]
 [  1 152   1 155   0   0]
 [  6 156   1 159   0   0]
 [  1 160   1 163   0   0]
 [  1 164   1 167   0   0]
 [  1 168   1 171   0   0]]
arg.bas = [[  0   0   6 ... 172 178   0]
 [  0   0   3 ... 184 187   0]
 [  0   0   1 ... 190 191   0]
 ...
 [ 37   0   3 ... 202 205   0]
 [ 37   0   1 ... 208 209   0]
 [ 37   1   1 ... 210 211   0]]
arg.env = [ 1.37036000e+02  0.00000000e+00  0.00000000e+00  0.00000000e+00
  0.00000000e+00  0.00000000e+00  0.00000000e+00  0.00000000e+00
  0.00000000e+00  0.00000000e+00  0.00000000e+00  0.00000000e+00
  0.00000000e+00  0.00000000e+00  0.00000000e+00  0.00000000e+00
  0.00000000e+00  0.00000000e+00  0.00000000e+00  0.00000000e+00
 -1.46653551e+01 -1.30519574e+00  1.34961840e+00  0.00000000e+00
 -1.39913759e+01 -3.21157035e+00  1.34961840e+00  0.00000000e+00
 -1.39913411e+01 -3.52021301e-01  3.00058046e+00  0.00000000e+00
 -1.66873621e+01 -1.30517083e+00  1.34961840e+00  0.00000000e+00
 -1.36952789e+01  6.66627914e-02 -1.02653262e+00  0.00000000e+00
 -1.43722750e+01  1.97196721e+00 -1.02838219e+00  0.00000000e+00
 -1.43662727e+01 -8.88644390e-01 -2.67749223e+00  0.00000000e+00
 -1.07851055e+01  7.12349270e-02 -1.02387327e+00  0.00000000e+00
 -1.01081116e+01 -1.83406948e+00 -1.02131137e+00  0.00000000e+00
 -1.01141119e+01  1.02715801e+00  6.26729880e-01  0.00000000e+00
 -9.81502741e+00  1.44220636e+00 -3.40053546e+00  0.00000000e+00
 -1.04921498e+01  3.34746500e+00 -3.40317425e+00  0.00000000e+00
 -1.04858934e+01  4.86193802e-01 -5.05113866e+00  0.00000000e+00
 -6.90485441e+00  1.44697253e+00 -3.39776433e+00  0.00000000e+00
 -6.22773366e+00 -4.58286648e-01 -3.39510671e+00  0.00000000e+00
 -6.23398799e+00  2.40300070e+00 -1.74717034e+00  0.00000000e+00
 -5.93477630e+00  2.81792171e+00 -5.77443935e+00  0.00000000e+00
 -6.61190136e+00  4.72317936e+00 -5.77709765e+00  0.00000000e+00
 -6.60563958e+00  1.86189178e+00 -7.42503360e+00  0.00000000e+00
 -3.02460330e+00  2.82269200e+00 -5.77166587e+00  0.00000000e+00
 -2.34747985e+00  9.17433782e-01 -5.76900988e+00  0.00000000e+00
 -2.35373959e+00  3.77871922e+00 -4.12107023e+00  0.00000000e+00
 -2.05452519e+00  4.19364529e+00 -8.14833852e+00  0.00000000e+00
 -2.73164755e+00  6.09890391e+00 -8.15099186e+00  0.00000000e+00
 -2.72539119e+00  3.23762015e+00 -9.79893443e+00  0.00000000e+00
  8.55647826e-01  4.19841143e+00 -8.14556740e+00  0.00000000e+00
  1.53276856e+00  2.29315225e+00 -8.14291644e+00  0.00000000e+00
  1.52651424e+00  5.15443383e+00 -6.49497008e+00  0.00000000e+00
  1.82572592e+00  5.56936890e+00 -1.05222376e+01  0.00000000e+00
  1.14860628e+00  7.47462850e+00 -1.05248860e+01  0.00000000e+00
  1.15485721e+00  4.61334857e+00 -1.21728352e+01  0.00000000e+00
  4.73589894e+00  5.57413088e+00 -1.05194689e+01  0.00000000e+00
  5.41301696e+00  3.66887071e+00 -1.05168230e+01  0.00000000e+00
  5.40676809e+00  6.53014848e+00 -8.86886992e+00  0.00000000e+00
  5.70597703e+00  6.94509250e+00 -1.28961368e+01  0.00000000e+00
  5.02886012e+00  8.85035306e+00 -1.28987801e+01  0.00000000e+00
  7.72798037e+00  6.94839826e+00 -1.28942147e+01  0.00000000e+00
  5.03510560e+00  5.98907696e+00 -1.45467360e+01  0.00000000e+00
  3.04752490e+03  4.57369510e+02  1.03948690e+02  2.92101550e+01
  9.28666300e+00  3.16392700e+00  1.90125588e+00  3.50751108e+00
  5.66221808e+00  7.37052623e+00  6.28928397e+00  2.17153894e+00
  7.86827240e+00  1.88128850e+00  5.44249300e-01 -1.41639039e+00
 -6.52813326e-01  1.83055623e+00  1.68714400e-01  6.65088040e-01
  7.86827240e+00  1.88128850e+00  5.44249300e-01  2.65263212e+00
  2.03386926e+00  1.01504332e+00  1.68714400e-01  3.15445679e-01
  8.00000000e-01  1.76578110e+00  1.87311370e+01  2.82539370e+00
  6.40121700e-01  7.61926220e-01  1.29237100e+00  1.47131900e+00
  1.61277800e-01  6.42977783e-01  1.10000000e+00  3.28643653e+00]
ecpbas  = []


******** <class 'pyscf.dft.rks.RKS'> ********
method = RKS-RHF
initial guess = minao
damping factor = 0
level shift factor = 0
DIIS = <class 'pyscf.scf.diis.CDIIS'>
DIIS start cycle = 1
DIIS space = 8
SCF tol = 1e-09
SCF gradient tol = None
max. SCF cycles = 50
direct_scf = True
direct_scf_tol = 1e-13
chkfile to save SCF result = /home/wsr/dftpart/test/tmpjmsljn1a
max_memory 20000 MB (current use 56 MB)
XC functionals = b3lyp
small_rho_cutoff = 1e-07
radial grids: 
    Treutler-Ahlrichs (JCP 102, 346 (M4)) radial grids
    
becke partition: Becke, JCP, 88, 2547 (1988)
pruning grids: <function nwchem_prune at 0x2b28c65772f0>
grids dens level: 3
symmetrized grids: False
atomic radii adjust function: <function treutler_atomic_radii_adjust at 0x2b28c6577268>
atomic_radii : [0.         0.66140414 2.64561657 2.74010288 1.98421243 1.60626721
 1.32280829 1.22832198 1.13383567 0.94486306 2.83458919 3.40150702
 2.83458919 2.36215766 2.07869874 1.88972612 1.88972612 1.88972612
 3.40150702 4.15739747 3.40150702 3.0235618  2.64561657 2.55113027
 2.64561657 2.64561657 2.64561657 2.55113027 2.55113027 2.55113027
 2.55113027 2.45664396 2.36215766 2.17318504 2.17318504 2.17318504
 3.59047964 4.44085639 3.77945225 3.40150702 2.92907549 2.74010288
 2.74010288 2.55113027 2.45664396 2.55113027 2.64561657 3.0235618
 2.92907549 2.92907549 2.74010288 2.74010288 2.64561657 2.64561657
 3.96842486 4.91328792 4.06291117 3.68496594 3.49599333 3.49599333
 3.49599333 3.49599333 3.49599333 3.49599333 3.40150702 3.30702072
 3.30702072 3.30702072 3.30702072 3.30702072 3.30702072 3.30702072
 2.92907549 2.74010288 2.55113027 2.55113027 2.45664396 2.55113027
 2.55113027 2.55113027 2.83458919 3.59047964 3.40150702 3.0235618
 3.59047964 2.74010288 3.96842486 3.40150702 4.06291117 3.68496594
 3.40150702 3.40150702 3.30702072 3.30702072 3.30702072 3.30702072
 3.30702072 3.30702072 3.30702072 3.30702072 3.30702072 3.30702072
 3.30702072 3.30702072 3.30702072 3.30702072 3.30702072 3.30702072
 3.30702072 3.30702072 3.30702072 3.30702072 3.30702072 3.30702072
 3.30702072 3.30702072 3.30702072 3.30702072 3.30702072 3.30702072
 3.30702072 3.30702072 3.30702072 3.30702072 3.30702072 3.30702072
 3.30702072 3.30702072 3.30702072 3.30702072 3.30702072]
Set gradient conv threshold to 3.16228e-05
Nelec from initial guess = 97.94980769053807
cond(S) = 2513.122177206652
atom C rad-grids = 75, ang-grids = [ 50  50  50  50  50  50  50  50  50  50  50  50  50  50  50  50  50  50
  50  50  50  50  50  86  86  86  86  86  86  86  86  86  86 266 266 266
 266 266 266 266 302 302 302 302 302 302 302 302 302 302 302 302 302 302
 302 302 302 302 302 302 266 266 266 266 266 266 266 266 266 266 266 266
 266 266 266]
atom H rad-grids = 50, ang-grids = [ 50  50  50  50  50  50  50  50  50  50  50  50  50  50  86  86  86  86
 266 266 266 266 302 302 302 302 302 302 302 302 302 302 302 302 302 266
 266 266 266 266 266 266 266 266 266 266 266 266 266 266]
tot grids = 427448
Drop grids 85300
    CPU time for setting up grids    107.46 sec, wall time      2.29 sec
nelec by numeric integration = 97.9493287608995
    CPU time for vxc    170.64 sec, wall time      3.66 sec
 Exc = -59.14309036197607
 Exc = -73.7334966802794
E1 = -1966.376727399784  Ecoul = 887.3523549671607  Exc = -73.7334966802794
init E= -473.881799927105
    CPU time for initialize scf    364.69 sec, wall time      7.81 sec
  HOMO = -0.399726279295455  LUMO = 0.0123935672753043
  mo_energy =
[-10.41199363 -10.41199341 -10.40904277 -10.40883168 -10.40862254
 -10.40841424 -10.4082156  -10.40806482 -10.40796069 -10.40795411
 -10.40777418 -10.40777303  -1.06755366  -1.0484678   -1.018102
  -0.97795041  -0.92998868  -0.87657314  -0.82090252  -0.76864738
  -0.73114544  -0.72794556  -0.7200927   -0.71684519  -0.60997163
  -0.59691178  -0.57655949  -0.55396892  -0.55153365  -0.55047084
  -0.52996343  -0.5274901   -0.52087365  -0.50144941  -0.49052159
  -0.48436265  -0.47143946  -0.46253117  -0.45450595  -0.43992617
  -0.43904319  -0.43502014  -0.42929839  -0.42903065  -0.42465396
  -0.41662961  -0.41388033  -0.41382755  -0.39972628   0.01239357
   0.01736907   0.01947277   0.02310516   0.03684702   0.04183053
   0.04280292   0.05700883   0.05989208   0.06967185   0.07211314
   0.07909294   0.08214003   0.08987793   0.09077788   0.09578741
   0.10173908   0.10509075   0.11053532   0.11531451   0.11654849
   0.12106743   0.12303502   0.12608303   0.12821536   0.12828463
   0.12931275   0.13268378   0.13291035   0.14229844   0.14604647
   0.14765571   0.14866048   0.16959647   0.17294606   0.1851237
   0.1853891    0.35435655   0.38068896   0.38770524   0.38861104
   0.41647202   0.43378431   0.43750726   0.4452051    0.44930214
   0.45321437   0.45833392   0.46199994   0.46593417   0.47871886
   0.49174354   0.49726762   0.51392806   0.52188582   0.53358211
   0.5427121    0.57544328   0.57800793   0.58649766   0.58882472
   0.62973104   0.6310449    0.63755633   0.6743519    0.67852393
   0.67922688   0.6852141    0.68981216   0.72590374   0.73978259
   0.73999677   0.74125638   0.76304976   0.76434772   0.78509233
   0.79234198   0.79559049   0.81873341   0.81897717   0.83353211
   0.83496968   0.83539681   0.83903684   0.84336596   0.84699526
   0.85364929   0.85973353   0.86934553   0.86981277   0.8701736
   0.8763294    0.87640359   0.88717731   0.89280445   0.90458288
   0.90878682   0.94642721   1.0022792    1.09616736   1.10837791
   1.12713046   1.13327684   1.16551657   1.20048877   1.22900054
   1.26797746   1.29685348   1.31910079   1.35489954   1.3656081
   1.3767422    1.39838752   1.40523827   1.4303588    1.46445242
   1.47493046   1.51232617   1.53571287   1.54076585   1.54594707
   1.55446288   1.56530562   1.57609631   1.58091495   1.59122163
   1.59218794   1.59829737   1.64754684   1.6708071    1.67584587
   1.68772041   1.71967998   1.72989565   1.74585272   1.75877257
   1.7673347    1.78124615   1.80175844   1.81511766   1.83138746
   1.83709585   1.93232854   1.9424194    1.96169608   1.96169842
   1.96614184   1.96884409   1.9726304    1.97790865   1.98162189
   1.98290282   2.00605243   2.00629028   2.01562886   2.01950623
   2.05214028   2.06341102   2.0703222    2.09706994   2.10048658
   2.15154955   2.15559213   2.16381548   2.17085974   2.17636181
   2.18826191   2.19142304   2.20508333   2.20620345   2.2204857
   2.23376189   2.24287199   2.25313558   2.25774043   2.26384773
   2.26458282   2.30812209   2.31423614   2.34832487   2.35362529
   2.35885275   2.37247665   2.37428814   2.37878081   2.37932481
   2.43442124   2.45334084   2.50718758   2.53091961   2.53420935
   2.53711208   2.56744791   2.56824183   2.58572852   2.59240397
   2.60787499   2.61158306   2.6267703    2.64530826   2.66172266
   2.69956124   2.70246885   2.72468819   2.75148165   2.76883758
   2.77918775   2.79536744   2.80797457   2.82358911   2.82841222
   2.83203233   2.83206777   2.83776454   2.84471457   2.85017807
   2.85578547   2.85765491   2.87255636   2.87315702   2.91173053
   2.91845983   2.92721616   3.14019865   3.1501635    3.16907462
   3.1807027    3.1942194    3.19663676   3.21215554   3.22306697
   3.22995622   3.24740565   3.26136521   3.26860494   3.29881779
   3.30873667   3.34334181   3.36223982   3.38698847   3.41208734
   3.41570899   3.43238029   3.45963696   3.48310237   3.48796455
   3.49056445   3.49982458   3.50052061]
nelec by numeric integration = 97.99978644097821
    CPU time for vxc    151.24 sec, wall time      3.16 sec
 Exc = -61.5377372055864
 Exc = -76.13084553750917
E1 = -1995.8034428231979  Ecoul = 920.8513820385141  Exc = -76.13084553750917
cycle= 1 E= -472.206837136396  delta_E= 1.67  |g|= 1.21  |ddm|= 5.16
    CPU time for cycle= 1    170.13 sec, wall time      3.57 sec
diis-norm(errvec)=2.55782
diis-c [-6.5424606  1.       ]
  HOMO = -0.0856649594752727  LUMO = 0.146211649090055
  mo_energy =
[-9.89332337 -9.8933232  -9.89133163 -9.89120245 -9.8909833  -9.89097359
 -9.89010161 -9.89009964 -9.88695212 -9.88695166 -9.86019528 -9.86019509
 -0.66740765 -0.65600878 -0.63867191 -0.6147139  -0.58447793 -0.54971525
 -0.51375736 -0.48331225 -0.47566353 -0.47058658 -0.46169978 -0.4610848
 -0.38512487 -0.3744104  -0.35809013 -0.33636452 -0.31228627 -0.31087353
 -0.31086643 -0.28489668 -0.26524399 -0.26264202 -0.25616055 -0.24733675
 -0.24162219 -0.23990045 -0.23724472 -0.23622673 -0.23551438 -0.2313363
 -0.21266424 -0.20216629 -0.1977214  -0.19755033 -0.18804969 -0.13238304
 -0.08566496  0.14621165  0.15170735  0.16057427  0.17416945  0.18116494
  0.18313207  0.19289233  0.19619512  0.2016653   0.21777014  0.21976941
  0.23060565  0.24149546  0.2464135   0.25056007  0.25234175  0.25883037
  0.26555035  0.27007556  0.27299851  0.28174737  0.28464677  0.28645826
  0.28660679  0.30446872  0.30689026  0.30691833  0.31109405  0.32480929
  0.33446356  0.34876526  0.36169718  0.38767801  0.38940893  0.41983896
  0.46610282  0.46733704  0.54208487  0.59398945  0.61611682  0.61988159
  0.62335109  0.62522306  0.64132855  0.64143396  0.64768233  0.64931317
  0.67290448  0.6813269   0.68499833  0.7000717   0.72727489  0.74720681
  0.75085638  0.7597459   0.79788855  0.81340731  0.82927248  0.84528106
  0.85244494  0.85490792  0.87336687  0.87505468  0.87850678  0.908006
  0.9098031   0.91580065  0.92679163  0.93117574  0.94512078  0.94829411
  0.95587665  0.95650946  0.96585439  0.97412244  0.98768603  0.99327564
  0.99558294  1.01411397  1.02474118  1.0248307   1.03496317  1.03952082
  1.04174954  1.04190343  1.04413467  1.05415447  1.05480151  1.05552433
  1.05839532  1.06751334  1.074529    1.07727333  1.080399    1.08921238
  1.11126435  1.12306702  1.16866612  1.23007805  1.32381206  1.35150144
  1.40202873  1.40594488  1.4221655   1.44119121  1.46199445  1.50347827
  1.50941568  1.54564634  1.56926364  1.57247794  1.59234228  1.60341297
  1.62853967  1.63077736  1.6833001   1.74080019  1.74749476  1.76917321
  1.77270732  1.77503371  1.78524431  1.79227147  1.8091584   1.80924013
  1.82292518  1.82363546  1.85492957  1.9297098   1.98141518  1.99254348
  1.99759234  2.00103378  2.00922446  2.02373163  2.02461011  2.02963326
  2.03861059  2.07276697  2.10065212  2.11170788  2.11176832  2.11379285
  2.131112    2.1505525   2.18953971  2.19006744  2.20407045  2.20572089
  2.20909017  2.2103961   2.21909917  2.22344451  2.22987774  2.24230202
  2.24828885  2.27665993  2.29005881  2.32504272  2.3254165   2.32610256
  2.32843708  2.33069845  2.34073784  2.35199319  2.35534782  2.37049726
  2.38331994  2.39680215  2.40926227  2.41931513  2.42234202  2.43012978
  2.43875475  2.47239732  2.48171436  2.49435991  2.50712319  2.53830365
  2.54042728  2.55890526  2.56864524  2.59584931  2.6010127   2.60152146
  2.60480209  2.61702016  2.66519551  2.72405599  2.74198912  2.78940609
  2.79381317  2.80631191  2.80947132  2.82246868  2.82277061  2.83246019
  2.83848686  2.85120183  2.88194998  2.89830868  2.89912046  2.94522312
  2.96295205  2.9726026   2.97876717  3.00921097  3.01328837  3.02496861
  3.02536448  3.03937879  3.05168111  3.05741884  3.06731843  3.0707805
  3.07429053  3.08442934  3.08801836  3.10272571  3.1047497   3.10660402
  3.1148136   3.14455769  3.36091104  3.37368423  3.40477129  3.41691061
  3.42581871  3.43481698  3.44057696  3.45689979  3.46235848  3.47516746
  3.50020024  3.50218816  3.53617654  3.55195016  3.58470198  3.60784444
  3.63019046  3.65851652  3.66265306  3.68185617  3.70709596  3.73200659
  3.73744418  3.74133241  3.75116141  3.75116705]
nelec by numeric integration = 97.99963488960236
    CPU time for vxc    137.34 sec, wall time      2.87 sec
 Exc = -59.553982209151165
 Exc = -73.70067712680094
E1 = -1964.468276360959  Ecoul = 887.1762715077066  Exc = -73.70067712680094
cycle= 2 E= -472.116612794256  delta_E= 0.0902  |g|= 1.35  |ddm|= 2.74
    CPU time for cycle= 2    156.17 sec, wall time      3.27 sec
diis-norm(errvec)=2.95862
diis-c [-0.06391714  0.53663718  0.46336282]
  HOMO = -0.256081813831776  LUMO = 0.0921651167995382
  mo_energy =
[-10.15603143 -10.15603125 -10.1531308  -10.15313033 -10.14824183
 -10.14824029 -10.14668532 -10.14667336 -10.1458604  -10.14571787
 -10.14178838 -10.14178821  -0.80583529  -0.79557992  -0.77555651
  -0.748388    -0.71522614  -0.67725366  -0.63637126  -0.5975934
  -0.57515031  -0.57373442  -0.56690713  -0.56391906  -0.48541322
  -0.47574414  -0.45789119  -0.43479492  -0.42085422  -0.41886209
  -0.40868115  -0.40267519  -0.38839066  -0.38209005  -0.3786266
  -0.35755491  -0.35429649  -0.34270358  -0.33832362  -0.33505824
  -0.32728751  -0.32430503  -0.3235368   -0.32219485  -0.32129711
  -0.31789491  -0.31448198  -0.29530514  -0.25608181   0.09216512
   0.09891228   0.10886675   0.1202458    0.12349856   0.13500828
   0.13780951   0.13851242   0.14975232   0.16222903   0.16486229
   0.17526207   0.18628567   0.19086427   0.19272919   0.19768162
   0.2036558    0.20578396   0.21020849   0.21039874   0.21705609
   0.22032779   0.22163021   0.22194948   0.22324673   0.22969091
   0.23448264   0.23856451   0.24076005   0.25180025   0.25883075
   0.25937377   0.27883754   0.28495002   0.29042918   0.34611788
   0.3484666    0.45896079   0.49599038   0.50791494   0.51610769
   0.53962227   0.54819428   0.55144522   0.55917305   0.56303863
   0.56508245   0.5720625    0.57265948   0.58647708   0.58825806
   0.63240992   0.63498941   0.63635633   0.64787505   0.68810503
   0.69297486   0.69800655   0.70302707   0.72470501   0.72718494
   0.75287971   0.76391481   0.76471587   0.79640815   0.80459429
   0.8081427    0.81826514   0.82145248   0.84488816   0.8548362
   0.85684094   0.86347445   0.87879054   0.887356     0.90159823
   0.9061135    0.91072937   0.93016438   0.93865684   0.94362995
   0.95195728   0.95434326   0.9583086    0.95938985   0.96124557
   0.9640178    0.97430627   0.97603334   0.97613244   0.98638313
   0.99174797   0.99207691   0.99848589   1.0052386    1.02062763
   1.02537034   1.06704296   1.13163676   1.2258392    1.23874026
   1.28126163   1.28986143   1.31153166   1.31830721   1.37573359
   1.38257712   1.42590328   1.44860335   1.46197821   1.48658679
   1.50633075   1.51458688   1.51795999   1.54326274   1.58808793
   1.62120072   1.64209555   1.66970379   1.67363904   1.67837389
   1.68582028   1.69755606   1.70813058   1.71276742   1.7245102
   1.72528409   1.7349592    1.8044112    1.84354921   1.84443787
   1.85612542   1.88006732   1.88236021   1.89655031   1.90833115
   1.91579343   1.91724356   1.94264884   1.97286734   1.9869565
   1.99918485   2.05894265   2.06263893   2.06284886   2.09520306
   2.10075036   2.10184108   2.10714742   2.11198716   2.11392139
   2.11736538   2.13721818   2.14079915   2.14764375   2.15352251
   2.18396237   2.19446489   2.22570518   2.23015479   2.23304424
   2.25603121   2.25793952   2.26529641   2.27758859   2.29278632
   2.3075413    2.31407486   2.32096771   2.32624262   2.33509465
   2.34635681   2.35555379   2.35623022   2.36466545   2.3936036
   2.40542938   2.42346505   2.45847657   2.45950536   2.47171261
   2.47743361   2.49758922   2.50559821   2.5058117    2.51065763
   2.55416047   2.56582125   2.64117746   2.64957169   2.68196359
   2.68598567   2.70350047   2.70865318   2.72121628   2.72565626
   2.73920538   2.74002975   2.75814203   2.77082473   2.7978173
   2.81589548   2.84628501   2.86120099   2.87343539   2.89874139
   2.90655301   2.93556788   2.93824945   2.9450295    2.94913086
   2.95206748   2.96409071   2.96416581   2.96423903   2.98122414
   2.98329413   2.99341714   3.0028321    3.00408339   3.02911965
   3.03486164   3.03726143   3.2721764    3.28287136   3.3069082
   3.31773291   3.32895737   3.33445804   3.34540819   3.36037615
   3.36338713   3.38138256   3.40046563   3.4037338    3.43641382
   3.44946517   3.48345427   3.50373439   3.52926756   3.55447527
   3.55743939   3.57493228   3.60181831   3.62592866   3.63156387
   3.63282015   3.64398568   3.644865  ]
nelec by numeric integration = 97.99971899556317
    CPU time for vxc     74.41 sec, wall time      1.55 sec
 Exc = -60.536415608114616
 Exc = -74.90457153931281
E1 = -1981.1320368823433  Ecoul = 904.5456418893284  Exc = -74.90457153931281
cycle= 3 E= -472.61489734653  delta_E= -0.498  |g|= 0.0376  |ddm|= 1.51
    CPU time for cycle= 3     93.69 sec, wall time      1.96 sec
diis-norm(errvec)=0.0821087
diis-c [-0.00379451  0.08434827  0.06301649  0.85263524]
  HOMO = -0.257656163937336  LUMO = 0.0921450649607183
  mo_energy =
[-10.15698093 -10.15684289 -10.15625451 -10.15624823 -10.15505294
 -10.15505126 -10.15277187 -10.15277148 -10.15254755 -10.15254753
 -10.15068976 -10.15068939  -0.80684562  -0.79394988  -0.7748933
  -0.74898326  -0.71634785  -0.67834624  -0.63761287  -0.59923561
  -0.57698045  -0.57366257  -0.56898154  -0.56527803  -0.48643813
  -0.47480659  -0.45774379  -0.43558891  -0.42201153  -0.4199478
  -0.40974878  -0.40404126  -0.3900909   -0.38282485  -0.37982926
  -0.35835769  -0.35582994  -0.34391275  -0.33945396  -0.33640427
  -0.32762846  -0.32455739  -0.32380709  -0.32261741  -0.3224221
  -0.31768626  -0.31648813  -0.29478631  -0.25765616   0.09214506
   0.0996372    0.10868855   0.11978295   0.12357926   0.13469702
   0.13794506   0.13899813   0.15040733   0.16268497   0.16426427
   0.17480169   0.18536363   0.19043902   0.19257259   0.19728241
   0.20397767   0.20703546   0.20968102   0.21061196   0.2169569
   0.22125234   0.22161213   0.22293746   0.22317773   0.22920986
   0.23407387   0.23863534   0.24106642   0.25263388   0.25876376
   0.25910989   0.27859817   0.28579038   0.28876032   0.34506504
   0.34803322   0.45813128   0.49574755   0.50749952   0.516088
   0.53864636   0.54809129   0.55156311   0.55925637   0.56412435
   0.56497423   0.57217289   0.57280486   0.5866599    0.58685902
   0.63221244   0.63497581   0.63560949   0.64664101   0.68882502
   0.69163481   0.69803222   0.70229704   0.72453055   0.72657815
   0.75274864   0.76355704   0.7652818    0.79547243   0.80569283
   0.80763965   0.81614132   0.82145958   0.84429018   0.8534693
   0.85791107   0.86403286   0.87880033   0.88723979   0.89924877
   0.90524673   0.90862352   0.92988789   0.93688031   0.94427059
   0.95231142   0.9531216    0.95794204   0.95826511   0.96184817
   0.9631327    0.9739445    0.97579596   0.97648891   0.98618962
   0.99070195   0.99090321   0.99804482   1.00389058   1.02061455
   1.02574491   1.06627864   1.13150148   1.2252449    1.23961865
   1.280643     1.28983121   1.31169709   1.31875002   1.37562272
   1.38139636   1.4263633    1.44709907   1.46275555   1.4867318
   1.50624023   1.51361439   1.51797828   1.54353684   1.58810773
   1.6206307    1.6416462    1.66989152   1.67286901   1.67769671
   1.68726523   1.6972996    1.70951325   1.7132174    1.72397916
   1.72446617   1.73484142   1.80480934   1.84235489   1.84454617
   1.85552368   1.87914489   1.88198994   1.89738145   1.9085271
   1.91677382   1.91682919   1.94268484   1.9728099    1.98588267
   1.99832762   2.05851623   2.06117294   2.06135977   2.09498406
   2.09921252   2.10041088   2.10661964   2.11047773   2.11564422
   2.11651193   2.13742608   2.13806328   2.14504544   2.15394103
   2.18364966   2.19645461   2.22560845   2.22913535   2.23267687
   2.25554989   2.25886463   2.26612499   2.27803316   2.29296058
   2.30779559   2.31471394   2.32149491   2.32774735   2.33571795
   2.34681449   2.35546836   2.35594      2.36434447   2.3932052
   2.40498313   2.42334051   2.45775247   2.4595597    2.47213929
   2.47744713   2.49554461   2.50500042   2.50559273   2.50995445
   2.55461052   2.56587489   2.6410591    2.65036283   2.68144649
   2.68469856   2.70416291   2.70853962   2.72095768   2.72546239
   2.73757272   2.73855984   2.75863427   2.77049875   2.79759868
   2.81656557   2.84622652   2.86120604   2.87410277   2.89885825
   2.9065332    2.93503327   2.93844097   2.94458532   2.94868177
   2.95016245   2.96413047   2.96418267   2.96546713   2.98054934
   2.98410843   2.99396454   3.00239286   3.00333566   3.02828673
   3.0337598    3.0373639    3.27118239   3.28180133   3.30468219
   3.31650339   3.3284257    3.33341542   3.34548603   3.36101211
   3.36295159   3.38054824   3.39994787   3.40307465   3.43557469
   3.44812735   3.48165841   3.50258716   3.52647788   3.55339193
   3.55680694   3.57367522   3.60128589   3.62591119   3.63058781
   3.63449685   3.6432206    3.64346647]
nelec by numeric integration = 97.99972020901762
    CPU time for vxc    153.76 sec, wall time      3.35 sec
 Exc = -60.55378191747542
 Exc = -74.92596086390462
E1 = -1981.2866133128116  Ecoul = 904.721385854005  Exc = -74.92596086390462
cycle= 4 E= -472.615119136914  delta_E= -0.000222  |g|= 0.0221  |ddm|= 0.0556
    CPU time for cycle= 4    179.02 sec, wall time      3.91 sec
diis-norm(errvec)=0.0487063
diis-c [-3.23805094e-04  9.11083715e-03  2.21331237e-03  3.85829607e-01
  6.02846244e-01]
  HOMO = -0.257479050874483  LUMO = 0.0922987783063673
  mo_energy =
[-10.15912525 -10.15912507 -10.15655179 -10.15655126 -10.15447788
 -10.15447617 -10.15378839 -10.15377813 -10.15342609 -10.15328343
 -10.15034562 -10.15034545  -0.80631705  -0.79519904  -0.77565132
  -0.74901097  -0.71619754  -0.67835142  -0.63767342  -0.59930477
  -0.57672792  -0.57496214  -0.56865102  -0.56559379  -0.48609643
  -0.47579551  -0.45836892  -0.43567247  -0.42219528  -0.42013541
  -0.40967228  -0.40397374  -0.38970611  -0.382923    -0.38006126
  -0.35847699  -0.35586709  -0.34404413  -0.33952024  -0.33656109
  -0.32815449  -0.32471273  -0.32449835  -0.32293332  -0.32272426
  -0.31871052  -0.31611076  -0.29606828  -0.25747905   0.09229878
   0.09917475   0.10863665   0.11989694   0.12379839   0.13486899
   0.13808226   0.13845494   0.14990857   0.16248388   0.16437544
   0.17478848   0.18547893   0.19065022   0.1922847    0.19719653
   0.20358698   0.20625806   0.21033223   0.21062424   0.21679424
   0.2208831    0.2215924    0.22259682   0.22297001   0.22937339
   0.23413762   0.23888491   0.24118209   0.25161333   0.25841963
   0.25908808   0.27849475   0.28498217   0.28895555   0.34550335
   0.34809109   0.45826535   0.49535297   0.50742419   0.51592976
   0.53856371   0.54808977   0.55133344   0.55946777   0.56377871
   0.56446046   0.57230233   0.57242526   0.58644978   0.58702647
   0.63177709   0.63480017   0.63537932   0.64689175   0.68776622
   0.69158536   0.6977577    0.70225989   0.72432221   0.72623849
   0.75234793   0.7632271    0.76457517   0.7955678    0.80464739
   0.80751533   0.81721094   0.82117777   0.84458915   0.85372464
   0.8570451    0.86327696   0.87849749   0.88692793   0.89976037
   0.90546752   0.90910457   0.92975639   0.93749198   0.94366805
   0.95160811   0.95346852   0.95765987   0.95848325   0.96135731
   0.96309415   0.97423872   0.97594536   0.97613299   0.98574361
   0.99081633   0.99100087   0.99803953   1.00410367   1.02042397
   1.02562629   1.06656575   1.13159515   1.22531179   1.23885524
   1.2804927    1.28962582   1.31142441   1.31791182   1.37562028
   1.38161423   1.42612735   1.44747786   1.46228435   1.48662978
   1.50635698   1.51372042   1.51805407   1.54338035   1.58804088
   1.62056528   1.64178683   1.66967714   1.67320833   1.67783165
   1.68624758   1.69707071   1.70856188   1.71262964   1.72424536
   1.7248357    1.73457512   1.80416532   1.84310639   1.84323079
   1.85517219   1.87953526   1.88172186   1.89654616   1.90807315
   1.91616858   1.9166104    1.94218233   1.97232504   1.98619083
   1.99858397   2.05907004   2.06156154   2.06175572   2.09467781
   2.09959234   2.10073264   2.10669414   2.11114057   2.11414515
   2.11670599   2.13686213   2.13872348   2.1456482    2.15353414
   2.18366347   2.19511637   2.22529894   2.22974478   2.23286676
   2.25604813   2.25847903   2.26568697   2.27779075   2.29288779
   2.30773832   2.31400417   2.32129586   2.32649532   2.33538434
   2.34654069   2.35570001   2.35582545   2.36475703   2.39330887
   2.40508004   2.42324136   2.45789792   2.45962544   2.4718915
   2.47739029   2.49659582   2.50462905   2.50555835   2.50959218
   2.55442303   2.56571834   2.640924     2.64993751   2.68149527
   2.68514982   2.70348039   2.70805605   2.72083684   2.72540826
   2.73847231   2.73868226   2.75832389   2.77003155   2.79743052
   2.81617831   2.84592902   2.86093981   2.87339235   2.89844733
   2.90632935   2.93518538   2.93829561   2.94492229   2.9490163
   2.95123943   2.96357621   2.96366418   2.96468203   2.98071925
   2.98355241   2.99325587   3.00246327   3.00358235   3.02891201
   3.03423013   3.03738688   3.27108327   3.28166656   3.30557989
   3.31683495   3.32830896   3.33372125   3.34486138   3.3601542
   3.36241352   3.38028232   3.3997068    3.40288419   3.4355135
   3.44840259   3.48207076   3.50279762   3.52722862   3.55307817
   3.5567174    3.57387744   3.60103707   3.62546246   3.63066212
   3.63299864   3.64322398   3.64386306]
nelec by numeric integration = 97.99972027367583
    CPU time for vxc    149.21 sec, wall time      3.12 sec
 Exc = -60.55496769658269
 Exc = -74.92741168510986
E1 = -1981.3222541326882  Ecoul = 904.7583616666228  Exc = -74.92741168510986
cycle= 5 E= -472.615234965378  delta_E= -0.000116  |g|= 0.00593  |ddm|= 0.0261
    CPU time for cycle= 5    167.88 sec, wall time      3.51 sec
diis-norm(errvec)=0.012852
diis-c [-6.40572839e-06 -3.24824689e-03 -4.34262592e-03  8.73396353e-02
  2.63936348e-01  6.56314890e-01]
  HOMO = -0.257767958792154  LUMO = 0.0921914510119442
  mo_energy =
[-10.15777561 -10.15777544 -10.15521826 -10.15521743 -10.15469405
 -10.1546879  -10.15456861 -10.15454635 -10.15444336 -10.15432846
 -10.15074471 -10.15074454  -0.80659314  -0.7950641   -0.77567114
  -0.74915433  -0.71632488  -0.67844162  -0.63774203  -0.59930153
  -0.57681373  -0.57465637  -0.56879199  -0.56560129  -0.48631988
  -0.47571109  -0.45838263  -0.43577583  -0.42220334  -0.4201456
  -0.40979574  -0.40409074  -0.38988943  -0.38304599  -0.38012455
  -0.35858515  -0.35594475  -0.34415369  -0.33957712  -0.33661491
  -0.328084    -0.32465089  -0.32442758  -0.32296583  -0.32295857
  -0.31862039  -0.31639029  -0.29595042  -0.25776796   0.09219145
   0.09921699   0.10860341   0.11983988   0.12365356   0.13476987
   0.13803051   0.13848178   0.14996054   0.16243328   0.16433167
   0.17477815   0.18546496   0.19052798   0.19234311   0.19720789
   0.20363889   0.2063825    0.21009336   0.2105214    0.21678838
   0.22086773   0.2215335    0.22262255   0.22286315   0.22926091
   0.23408136   0.23872226   0.24103119   0.25179048   0.25845152
   0.25901644   0.27841545   0.28509273   0.28885089   0.34528985
   0.34795551   0.45819463   0.4953966    0.50736007   0.51584876
   0.53854646   0.54803001   0.55134133   0.55931068   0.56375241
   0.56449759   0.57224021   0.57231553   0.58638925   0.58694266
   0.63177407   0.6347344    0.63538087   0.64675416   0.68789115
   0.6915275    0.697709     0.70218013   0.7242448    0.72624259
   0.75232702   0.76322519   0.76461395   0.79547011   0.8047838
   0.80747911   0.81681925   0.82112451   0.84440243   0.85362098
   0.85713618   0.86342924   0.87845657   0.88701341   0.89971516
   0.90533475   0.90905555   0.92970455   0.93731179   0.94374538
   0.95173848   0.95335781   0.95780063   0.95833311   0.96144316
   0.9630884    0.97408731   0.97593999   0.97600485   0.9858346
   0.99083378   0.99090219   0.99796468   1.00407736   1.02037173
   1.02555731   1.06638842   1.13146338   1.22520472   1.23892579
   1.28044918   1.28952753   1.3113939    1.31803552   1.3755059
   1.38150405   1.42606919   1.44734122   1.4622805    1.48656818
   1.50624895   1.51364247   1.51793547   1.54333307   1.58794647
   1.62048685   1.64165844   1.66963229   1.6730437    1.67774017
   1.68636521   1.69706076   1.70863235   1.71269894   1.72404204
   1.72465246   1.73455205   1.80422738   1.84284564   1.84343638
   1.85513594   1.87931118   1.88168939   1.89660158   1.90806375
   1.91616077   1.91656038   1.9421956    1.97235483   1.98600744
   1.99838806   2.05882472   2.06153012   2.06172505   2.0946741
   2.09948069   2.10063043   2.10662113   2.11092826   2.11440233
   2.11655671   2.13694638   2.13867907   2.14562009   2.153533
   2.18359467   2.19530619   2.2253145    2.22950874   2.23270714
   2.25587856   2.25850231   2.2657144    2.27780382   2.29288224
   2.30770534   2.31406616   2.32127543   2.32665881   2.33540941
   2.34656473   2.35554186   2.35578963   2.36457858   2.39322201
   2.4049548    2.42325477   2.45775503   2.4595377    2.4718697
   2.47738127   2.49623361   2.50481021   2.50547849   2.50975392
   2.55441726   2.56566624   2.64087901   2.6499735    2.68139135
   2.68496429   2.70357269   2.70814769   2.72080429   2.72537271
   2.73816949   2.73868287   2.7583263    2.77009619   2.79740735
   2.81619811   2.84590187   2.86091799   2.8735138    2.89850901
   2.90629014   2.93506186   2.9382698    2.94480117   2.94886996
   2.9508722    2.96367484   2.96374892   2.96473081   2.98063288
   2.98359283   2.99336524   3.00236599   3.00343017   3.02868897
   3.03406445   3.0373144    3.2711168    3.28171519   3.30532352
   3.31670497   3.32826439   3.33356626   3.34494127   3.36027464
   3.3625661    3.38037967   3.39968546   3.40288638   3.43548745
   3.44827941   3.48197733   3.50267445   3.52710297   3.55317706
   3.55663294   3.57376357   3.60102572   3.62552532   3.63055982
   3.63325727   3.64309116   3.64366448]
nelec by numeric integration = 97.99972031788721
    CPU time for vxc    150.99 sec, wall time      3.15 sec
 Exc = -60.55469294366221
 Exc = -74.92707726452825
E1 = -1981.32186926319  Ecoul = 904.7576335333835  Exc = -74.92707726452825
cycle= 6 E= -472.615243808537  delta_E= -8.84e-06  |g|= 0.000593  |ddm|= 0.00608
    CPU time for cycle= 6    169.55 sec, wall time      3.54 sec
diis-norm(errvec)=0.00133669
diis-c [-3.77072706e-07 -1.22751079e-03 -1.37756316e-03  2.04028872e-02
  7.11782600e-02  2.08322458e-01  7.02701469e-01]
  HOMO = -0.257771993314802  LUMO = 0.0921848970836574
  mo_energy =
[-10.15771954 -10.15771936 -10.15527269 -10.15527184 -10.15472592
 -10.15472345 -10.15443798 -10.15443286 -10.15428608 -10.15415767
 -10.15077754 -10.15077737  -0.80659082  -0.79510003  -0.77567253
  -0.74916209  -0.71634966  -0.6784571   -0.63775265  -0.59932387
  -0.57681361  -0.57468122  -0.56879912  -0.56559543  -0.48632154
  -0.47574071  -0.45838782  -0.43578594  -0.42222888  -0.42017801
  -0.40981492  -0.40409897  -0.38990934  -0.38304826  -0.38013488
  -0.35858864  -0.35596167  -0.34416737  -0.33959773  -0.33662517
  -0.32809756  -0.32467107  -0.32443585  -0.32298694  -0.32294522
  -0.31864841  -0.31638267  -0.29599015  -0.25777199   0.0921849
   0.09919896   0.10859549   0.11982824   0.12364779   0.13476587
   0.13801663   0.13846119   0.14994597   0.16242797   0.16432109
   0.17476376   0.18544558   0.19052127   0.19232269   0.19719001
   0.20362072   0.20636151   0.21009978   0.21051182   0.21677363
   0.22084673   0.2215322    0.22260001   0.22285425   0.22925789
   0.23406537   0.23871385   0.24102687   0.25176724   0.25843262
   0.25900947   0.2784111    0.28506614   0.28884553   0.345286
   0.34795376   0.45819085   0.49538171   0.50734532   0.51583716
   0.53852855   0.54800903   0.55131816   0.55929906   0.56372532
   0.56448645   0.57222844   0.5722973    0.58637172   0.58693367
   0.63177345   0.63471767   0.63536036   0.64673781   0.68788372
   0.691511     0.69769207   0.70217567   0.72424603   0.72623371
   0.75232404   0.76321513   0.7646023    0.79545952   0.80475668
   0.80747205   0.81685006   0.82110748   0.84440323   0.85361041
   0.85711237   0.86340719   0.87845606   0.88699138   0.89968702
   0.90532899   0.90903078   0.92969503   0.93732317   0.94372471
   0.95172309   0.95334817   0.95778058   0.95832399   0.96140795
   0.96307347   0.97408418   0.97594668   0.97599014   0.98580974
   0.99081455   0.99090266   0.99797093   1.0040574    1.02035369
   1.02553828   1.06638244   1.13144953   1.22519781   1.23889237
   1.28043728   1.28950841   1.31138276   1.31800525   1.37549898
   1.38149527   1.4260543    1.44732102   1.46226827   1.48655007
   1.50622842   1.51361625   1.51792082   1.54331209   1.58793137
   1.62047608   1.64163899   1.66961296   1.67303767   1.67771062
   1.68634571   1.69704995   1.70860984   1.71266374   1.72404224
   1.72463728   1.73453329   1.8042019    1.84284988   1.84340682
   1.85513299   1.87931079   1.88166998   1.89658276   1.90804941
   1.91614195   1.91654655   1.94217284   1.97232856   1.98599774
   1.99838882   2.05881834   2.06150917   2.06170375   2.09465027
   2.09945922   2.10060834   2.10661982   2.11092519   2.11437099
   2.11654995   2.13692527   2.1386402    2.14558303   2.1535275
   2.18356936   2.19527732   2.22528177   2.22950257   2.23270563
   2.2558712    2.25847518   2.26569618   2.27778342   2.29285528
   2.30768613   2.31405308   2.32126081   2.32664091   2.33538645
   2.34653964   2.35553749   2.35577138   2.36456975   2.39320821
   2.40494553   2.42322341   2.45774183   2.45952192   2.47184675
   2.47736234   2.49624979   2.50476387   2.50545992   2.50971041
   2.55440034   2.56564714   2.64085917   2.64994653   2.6813853
   2.68496435   2.7035468    2.70811769   2.72078139   2.72536063
   2.73817881   2.73866426   2.75831428   2.77007984   2.79738564
   2.81617783   2.84588666   2.86090262   2.87348864   2.89848883
   2.90626903   2.93503727   2.93824878   2.94477612   2.94886947
   2.95088198   2.96364159   2.96371688   2.96472043   2.98062589
   2.98355578   2.99333389   3.00235382   3.00343008   3.02869334
   3.03405921   3.0372978    3.27109468   3.28169116   3.30533441
   3.31669419   3.32825479   3.33356581   3.34493333   3.3602495
   3.36253471   3.38034982   3.3996827    3.40288081   3.43547043
   3.44826904   3.48194871   3.5026604    3.5270835    3.55313968
   3.55663178   3.57375505   3.60101326   3.62552336   3.63054054
   3.6332238    3.64309289   3.64366952]
nelec by numeric integration = 97.9997203150594
    CPU time for vxc    149.52 sec, wall time      3.12 sec
 Exc = -60.554608267162685
 Exc = -74.92697531703541
E1 = -1981.320297817331  Ecoul = 904.7559600621125  Exc = -74.92697531703541
cycle= 7 E= -472.615243886456  delta_E= -7.79e-08  |g|= 0.00022  |ddm|= 0.000806
    CPU time for cycle= 7    168.26 sec, wall time      3.51 sec
diis-norm(errvec)=0.000464365
diis-c [-3.43697255e-08 -3.60467666e-04 -3.52102577e-04  3.98636557e-03
  1.56904419e-02  5.28258672e-02  3.06087515e-01  6.22122381e-01]
  HOMO = -0.257781461912697  LUMO = 0.0921792717769137
  mo_energy =
[-10.15774718 -10.15774701 -10.15525263 -10.15525182 -10.15466412
 -10.15466046 -10.1544618  -10.15445109 -10.15432089 -10.15419692
 -10.1507392  -10.15073903  -0.80660038  -0.79509787  -0.77568446
  -0.74916765  -0.71634963  -0.67846084  -0.63775669  -0.59932737
  -0.57682001  -0.57468712  -0.56880145  -0.56560757  -0.48632972
  -0.47574004  -0.45839778  -0.43579147  -0.42223169  -0.42017925
  -0.40981481  -0.40410475  -0.38991382  -0.38305169  -0.38013899
  -0.35859201  -0.35596429  -0.34417639  -0.33959946  -0.33663137
  -0.32810528  -0.32467275  -0.32444494  -0.3229869   -0.32296039
  -0.31864739  -0.31639275  -0.29598982  -0.25778146   0.09217927
   0.09919753   0.10859017   0.11982498   0.1236419    0.13476026
   0.13801361   0.13846064   0.14994368   0.16242191   0.16431614
   0.17476033   0.18544447   0.19051954   0.19231978   0.19718711
   0.20361841   0.20635622   0.21009072   0.21050894   0.21676902
   0.22084584   0.22152259   0.2225995    0.22284768   0.22925152
   0.23406346   0.23870737   0.24102049   0.25176452   0.25842945
   0.25900306   0.27840481   0.28506392   0.28883958   0.34528086
   0.34794415   0.45818359   0.49537819   0.50733915   0.51583166
   0.53852679   0.5480059    0.55131544   0.55929122   0.56372317
   0.56447921   0.57222076   0.57229527   0.58636694   0.58692862
   0.63176346   0.63471321   0.6353568    0.64673936   0.68787602
   0.6915096    0.69768765   0.70217094   0.72423536   0.72622676
   0.75231859   0.76320909   0.76459534   0.79545745   0.80476001
   0.80746514   0.81683296   0.82110945   0.84439692   0.85360767
   0.85711354   0.86340291   0.87844833   0.88698644   0.89968887
   0.90532799   0.90903125   0.92969602   0.93731364   0.94372312
   0.95172154   0.95334541   0.95777459   0.95831869   0.9614065
   0.96306844   0.97407737   0.97593725   0.97598928   0.98580394
   0.99081192   0.99089586   0.99796419   1.00405724   1.02034891
   1.02553242   1.06637348   1.13144068   1.22519085   1.23888916
   1.28042984   1.28950157   1.31137564   1.31800276   1.37549265
   1.38148498   1.42605124   1.44731738   1.46226232   1.48654382
   1.50622166   1.51361416   1.51791316   1.54330498   1.5879242
   1.62046821   1.64163507   1.66960554   1.67302699   1.67771011
   1.68633794   1.69703691   1.70860637   1.71266135   1.72403091
   1.72463003   1.7345268    1.80419651   1.84284047   1.84340674
   1.85512146   1.87930095   1.88166668   1.89657834   1.90803961
   1.91613834   1.91653867   1.94217125   1.97232593   1.98599028
   1.9983764    2.05880846   2.06150698   2.06170158   2.09464408
   2.09946004   2.10061066   2.10660782   2.1109191    2.11436638
   2.11654264   2.136916     2.13864121   2.14558235   2.15351557
   2.18356719   2.19527568   2.22528028   2.22949523   2.23269469
   2.2558611    2.25847199   2.26568773   2.27777457   2.29284847
   2.30767859   2.31404704   2.32125326   2.32663788   2.3353819
   2.3465348    2.35552883   2.35576401   2.36455996   2.39320054
   2.40493975   2.42321816   2.45773867   2.45951457   2.47184163
   2.47735357   2.49623495   2.50475954   2.50545382   2.50970601
   2.55439187   2.5656414    2.64085299   2.64994294   2.68137792
   2.68495497   2.70354429   2.70811877   2.72077528   2.72535142
   2.73816622   2.73866174   2.75830445   2.77007539   2.79737937
   2.81617195   2.84588512   2.86089504   2.87348228   2.89848197
   2.90626467   2.93503634   2.93824606   2.94477357   2.94885741
   2.95086817   2.9636399    2.96371487   2.96471652   2.98061501
   2.98355924   2.99333095   3.00234791   3.00341804   3.02868023
   3.03404968   3.0372917    3.27109367   3.28169095   3.30532319
   3.31669254   3.32825239   3.33355809   3.34492688   3.36024954
   3.36252901   3.38034324   3.39967385   3.40287103   3.43546694
   3.44826654   3.48195077   3.50266125   3.52707858   3.55314047
   3.55662733   3.57374916   3.60100826   3.62551116   3.63053981
   3.63322607   3.64308379   3.64365956]
nelec by numeric integration = 97.9997203160156
    CPU time for vxc    154.86 sec, wall time      3.23 sec
 Exc = -60.554593187092756
 Exc = -74.9269573647275
E1 = -1981.3201014221765  Ecoul = 904.7557457035481  Exc = -74.9269573647275
cycle= 8 E= -472.615243897559  delta_E= -1.11e-08  |g|= 5.9e-05  |ddm|= 0.000237
    CPU time for cycle= 8    173.54 sec, wall time      3.62 sec
diis-norm(errvec)=0.000128398
diis-c [-7.71406526e-10 -4.71789812e-05 -3.14379813e-05 -5.67545798e-05
  4.62633993e-04  4.00044001e-03  6.47263745e-02  2.68625207e-01
  6.62320716e-01]
  HOMO = -0.257782175431616  LUMO = 0.0921785084839209
  mo_energy =
[-10.15773937 -10.15773919 -10.15525393 -10.15525312 -10.15467714
 -10.1546738  -10.15445737 -10.1544489  -10.15431239 -10.15418651
 -10.15073867 -10.15073851  -0.80660089  -0.79510032  -0.7756835
  -0.74916856  -0.71635103  -0.67846186  -0.63775808  -0.59932805
  -0.57682167  -0.57468744  -0.56880408  -0.56560741  -0.48633019
  -0.47574198  -0.45839714  -0.43579207  -0.42223256  -0.42018014
  -0.40981636  -0.40410587  -0.38991454  -0.38305344  -0.38014051
  -0.3585937   -0.35596557  -0.3441758   -0.3396004   -0.33663213
  -0.32810513  -0.32467447  -0.32444477  -0.32298921  -0.32295921
  -0.31864982  -0.31639324  -0.29599157  -0.25778218   0.09217851
   0.09919617   0.10858967   0.11982386   0.12364134   0.1347596
   0.13801249   0.13845924   0.14994257   0.16242174   0.16431571
   0.17475974   0.1854435    0.19051806   0.19231922   0.1971863
   0.20361798   0.20635667   0.21009084   0.21050755   0.21676805
   0.22084429   0.22152183   0.22259801   0.2228476    0.22925047
   0.23406227   0.23870677   0.2410196    0.25176291   0.25842858
   0.25900249   0.27840346   0.28506257   0.2888384    0.34527934
   0.3479443    0.45818219   0.49537663   0.50733804   0.5158301
   0.53852528   0.54800481   0.5513146    0.5592907    0.56372116
   0.56447896   0.57221965   0.57229333   0.58636616   0.58692788
   0.63176371   0.63471257   0.63535614   0.64673652   0.68787593
   0.69150855   0.69768717   0.70216918   0.72423548   0.72622632
   0.75231716   0.76320829   0.7645954    0.79545577   0.80475798
   0.80746431   0.81683499   0.8211073    0.84439666   0.85360633
   0.85711214   0.86340187   0.87844904   0.88698558   0.89968834
   0.90532672   0.90903033   0.92969408   0.93731322   0.94372205
   0.95171981   0.95334363   0.95777439   0.95831809   0.9614061
   0.96306781   0.97407695   0.97593652   0.97598695   0.98580405
   0.99081112   0.99089469   0.99796271   1.00405583   1.02034798
   1.02553119   1.06637242   1.13144009   1.22518968   1.23888758
   1.28042831   1.28950037   1.31137447   1.31800087   1.37549095
   1.38148481   1.42604897   1.44731538   1.46226052   1.48654256
   1.5062208    1.51361215   1.51791202   1.54330413   1.58792317
   1.62046691   1.64163324   1.66960484   1.6730259    1.67770787
   1.68633655   1.6970376    1.7086038    1.71265952   1.72402982
   1.72462881   1.73452575   1.80419551   1.84283973   1.84340453
   1.85512197   1.8793003    1.8816652    1.89657661   1.9080399
   1.91613648   1.91653763   1.94216923   1.97232456   1.9859897
   1.99837654   2.05880776   2.06150438   2.06169898   2.09464358
   2.09945764   2.10060793   2.10660798   2.11091717   2.11436539
   2.11654127   2.13691635   2.13863978   2.14558115   2.15351571
   2.18356512   2.1952734    2.22527819   2.22949366   2.23269431
   2.25585995   2.2584696    2.26568672   2.27777376   2.29284759
   2.30767734   2.31404577   2.3212516    2.326636     2.33538001
   2.34653316   2.35552795   2.35576266   2.36455882   2.39319944
   2.40493796   2.42321724   2.45773635   2.45951332   2.47184025
   2.47735258   2.49623518   2.50475979   2.50545268   2.50970608
   2.55439069   2.56564031   2.64085219   2.64994078   2.68137655
   2.68495393   2.70354226   2.70811587   2.72077475   2.7253504
   2.73816588   2.73865976   2.75830371   2.77007395   2.79737878
   2.81617037   2.84588239   2.86089436   2.87348153   2.89848154
   2.90626341   2.93503392   2.93824376   2.94477146   2.94885668
   2.95086834   2.96363881   2.96371379   2.96471369   2.98061518
   2.98355574   2.99332983   3.00234634   3.00341803   3.02867982
   3.03404876   3.03728994   3.27109203   3.28168932   3.30532292
   3.31669003   3.3282503    3.33355724   3.34492569   3.36024748
   3.36252936   3.38034385   3.39967393   3.4028709    3.43546588
   3.44826496   3.48194859   3.50265903   3.52707876   3.55313957
   3.55662572   3.57374851   3.60100769   3.62551224   3.63053779
   3.63322356   3.64308354   3.64365901]
nelec by numeric integration = 97.99972031572318
    CPU time for vxc    153.47 sec, wall time      3.22 sec
 Exc = -60.5545912938834
 Exc = -74.92695520942071
E1 = -1981.3200671126617  Ecoul = 904.7557092378581  Exc = -74.92695520942071
cycle= 9 E= -472.615243898427  delta_E= -8.68e-10  |g|= 7.95e-06  |ddm|= 6.23e-05
    CPU time for cycle= 9    172.37 sec, wall time      3.61 sec
  HOMO = -0.25778226047115  LUMO = 0.0921787570974859
  mo_energy =
[-10.15774072 -10.15774055 -10.15525441 -10.1552536  -10.15467637
 -10.15467304 -10.15445683 -10.15444729 -10.15431402 -10.15418921
 -10.15074357 -10.1507434   -0.80660068  -0.79510019  -0.77568417
  -0.74916871  -0.71635154  -0.67846214  -0.63775828  -0.59932842
  -0.57682126  -0.57468766  -0.56880337  -0.56560754  -0.48632983
  -0.47574168  -0.45839743  -0.43579199  -0.42223297  -0.42018072
  -0.40981661  -0.40410597  -0.38991482  -0.38305341  -0.38014067
  -0.35859368  -0.35596599  -0.34417654  -0.33960062  -0.33663225
  -0.3281051   -0.32467406  -0.3244452   -0.32298859  -0.3229592
  -0.31864959  -0.31639299  -0.29599192  -0.25778226   0.09217876
   0.09919628   0.10858959   0.11982389   0.12364161   0.13475986
   0.13801245   0.1384594    0.14994271   0.16242155   0.16431547
   0.17475959   0.18544306   0.19051796   0.19231895   0.19718622
   0.20361758   0.20635643   0.21009108   0.21050793   0.21676813
   0.22084445   0.22152203   0.2225981    0.22284725   0.22925071
   0.23406235   0.23870702   0.24101988   0.25176288   0.25842826
   0.2590025    0.2784036    0.28506262   0.28883832   0.34527965
   0.34794408   0.4581823    0.4953765    0.50733792   0.51582995
   0.53852495   0.5480045    0.55131399   0.55929072   0.5637215
   0.5644785    0.57222003   0.57229318   0.58636613   0.58692753
   0.63176314   0.63471244   0.63535565   0.64673656   0.68787557
   0.69150805   0.69768701   0.70216958   0.72423527   0.72622622
   0.75231732   0.7632082    0.7645954    0.79545564   0.80475823
   0.8074643    0.81683489   0.82110783   0.84439688   0.85360622
   0.85711222   0.86340179   0.87844855   0.88698561   0.89968734
   0.90532646   0.90902962   0.92969363   0.93731348   0.94372192
   0.95171995   0.95334393   0.95777431   0.95831803   0.96140601
   0.96306785   0.9740772    0.97593696   0.97598713   0.9858039
   0.99081104   0.99089459   0.997963     1.00405564   1.02034785
   1.02553132   1.06637259   1.13144002   1.22518974   1.23888741
   1.28042836   1.28950035   1.3113744    1.3180006    1.37549089
   1.38148442   1.42604886   1.4473154    1.46226063   1.48654265
   1.50622089   1.51361187   1.51791225   1.54330423   1.58792315
   1.62046692   1.64163326   1.66960476   1.67302629   1.67770765
   1.68633679   1.69703705   1.7086042    1.71265959   1.72403025
   1.72462896   1.73452552   1.80419529   1.84283982   1.84340439
   1.85512134   1.87930065   1.88166506   1.89657693   1.90803962
   1.91613657   1.91653791   1.94216911   1.97232435   1.98598972
   1.99837669   2.0588081    2.061504     2.0616986    2.0946432
   2.09945718   2.1006073    2.10660785   2.11091759   2.11436546
   2.11654166   2.13691614   2.13863886   2.1455803    2.15351561
   2.18356558   2.19527365   2.22527835   2.22949431   2.23269442
   2.25586037   2.25847006   2.26568686   2.27777402   2.29284769
   2.30767755   2.31404549   2.3212519    2.32663559   2.33538008
   2.34653323   2.35552789   2.35576287   2.36455922   2.39319962
   2.40493824   2.42321722   2.45773691   2.45951355   2.47184033
   2.47735285   2.49623539   2.50475901   2.50545274   2.5097054
   2.55439087   2.56564031   2.64085219   2.64994111   2.68137672
   2.68495418   2.70354229   2.70811575   2.72077471   2.72535075
   2.73816585   2.73865919   2.75830376   2.77007351   2.79737878
   2.81617057   2.84588254   2.86089448   2.87348145   2.89848119
   2.9062634    2.93503435   2.93824395   2.94477188   2.94885714
   2.95086849   2.96363818   2.9637132    2.96471407   2.98061484
   2.98355622   2.99332956   3.00234658   3.00341796   3.02868008
   3.03404897   3.03729033   3.27109163   3.28168874   3.305323
   3.31669055   3.32825033   3.33355754   3.34492584   3.36024761
   3.36252913   3.38034366   3.39967353   3.40287112   3.43546573
   3.44826491   3.48194869   3.50265869   3.52707808   3.55313897
   3.55662566   3.57374854   3.60100742   3.62551191   3.63053828
   3.63322384   3.6430835    3.6436596 ]
nelec by numeric integration = 97.999720315906
    CPU time for vxc    150.98 sec, wall time      3.15 sec
 Exc = -60.55459572475064
 Exc = -74.92696064723998
E1 = -1981.320129352812  Ecoul = 904.755776915833  Exc = -74.92696064723998
Extra cycle  E= -472.615243898421  delta_E= 5.46e-12  |g|= 9.46e-06  |ddm|= 1.54e-05
    CPU time for scf_cycle   1984.55 sec, wall time     41.85 sec
    CPU time for SCF   1984.56 sec, wall time     41.85 sec
converged SCF energy = -472.615243898421
atom C rad-grids = 75, ang-grids = [ 50  50  50  50  50  50  50  50  50  50  50  50  50  50  50  50  50  50
  50  50  50  50  50  86  86  86  86  86  86  86  86  86  86 266 266 266
 266 266 266 266 302 302 302 302 302 302 302 302 302 302 302 302 302 302
 302 302 302 302 302 302 266 266 266 266 266 266 266 266 266 266 266 266
 266 266 266]
atom H rad-grids = 50, ang-grids = [ 50  50  50  50  50  50  50  50  50  50  50  50  50  50  86  86  86  86
 266 266 266 266 302 302 302 302 302 302 302 302 302 302 302 302 302 266
 266 266 266 266 266 266 266 266 266 266 266 266 266 266]
tot grids = 427448
