#INFO: **** input file is /home/wsr/dftpart/test_c2h6_631++gss.py ****
from pyscf import gto,dft
import numpy as np
#import gen_grid_sep
#import numint_sep
import xceda
import os

name = 'C2H6-631++gss'

#baslist = ['6-31+gss','6-31++gss','def2dzvp','def2tzvp','cc-pvdz','cc-pvtz','aug-cc-pvtz']
#xclist = [] 

mol = gto.Mole()
mol.atom = '''C1      0.0000  0.0000  0.7614
C2      0.0000  0.0000  -0.7614
H3      0.0000  1.0155  1.1574
H4      -0.8794 -0.5077 1.1574
H5      0.8794  -0.5077 1.1574
H6      0.0000  -1.0155 -1.1574
H7      -0.8794 0.5077  -1.1574
H8      0.8794  0.5077  -1.1574'''
mol.basis = '6-31++gss'
mol.output = name+'-pyscf.log'
mol.symmetry = True
mol.groupname = 'D3d'
mol.cart = True
mol.verbose = 9
mol.build()

ks = dft.RKS(mol)
ks.xc = 'b3lyp'
#ks.grids = gen_grid_sep.Grids(ks.mol)
ks.kernel()

#dm = ks.make_rdm1()
os.system("echo '' > %s" % (name+'-xceda.log'))

xceda.analysis(ks)



#INFO: ******************** input file end ********************


System: uname_result(system='Linux', node='lw06', release='3.10.0-957.el7.x86_64', version='#1 SMP Thu Nov 8 23:39:32 UTC 2018', machine='x86_64', processor='x86_64')  Threads 48
Python 3.7.3 (default, Mar 27 2019, 22:11:17) 
[GCC 7.3.0]
numpy 1.16.2  scipy 1.2.1
Date: Fri Jun 28 15:43:32 2019
PySCF version 1.6.2
PySCF path  /home/wsr/pyscf

[CONFIG] DEBUG = False
[CONFIG] MAX_MEMORY = 4000
[CONFIG] TMPDIR = .
[CONFIG] UNIT = angstrom
[CONFIG] VERBOSE = 3
[CONFIG] conf_file = None
[INPUT] verbose = 9
[INPUT] max_memory = 4000 
[INPUT] num. atoms = 8
[INPUT] num. electrons = 18
[INPUT] charge = 0
[INPUT] spin (= nelec alpha-beta = 2S) = 0
[INPUT] symmetry True subgroup None
[INPUT] Mole.unit = angstrom
[INPUT] Cartesian GTO integrals (6d 10f)
[INPUT]  1 C1     0.000000000000   0.000000000000   0.761400000000 AA    0.000000000000   0.000000000000   1.438837471244 Bohr
[INPUT]  2 C2     0.000000000000   0.000000000000  -0.761400000000 AA    0.000000000000   0.000000000000  -1.438837471244 Bohr
[INPUT]  3 H3     0.000000000000   1.015500000000   1.157400000000 AA    0.000000000000   1.919016879496   2.187169016572 Bohr
[INPUT]  4 H4    -0.879400000000  -0.507700000000   1.157400000000 AA   -1.661825153943  -0.959413953442   2.187169016572 Bohr
[INPUT]  5 H5     0.879400000000  -0.507700000000   1.157400000000 AA    1.661825153943  -0.959413953442   2.187169016572 Bohr
[INPUT]  6 H6     0.000000000000  -1.015500000000  -1.157400000000 AA    0.000000000000  -1.919016879496  -2.187169016572 Bohr
[INPUT]  7 H7    -0.879400000000   0.507700000000  -1.157400000000 AA   -1.661825153943   0.959413953442  -2.187169016572 Bohr
[INPUT]  8 H8     0.879400000000   0.507700000000  -1.157400000000 AA    1.661825153943   0.959413953442  -2.187169016572 Bohr
[INPUT] ---------------- BASIS SET ---------------- 
[INPUT] l, kappa, [nprim/nctr], expnt,             c_1 c_2 ...
[INPUT] H8
[INPUT] 0    0    [3    /1   ]  18.731137         0.0334946
                                2.8253937         0.23472695
                                0.6401217         0.81375733
[INPUT] 0    0    [1    /1   ]  0.1612778            1
[INPUT] 0    0    [1    /1   ]  0.036                1
[INPUT] 1    0    [1    /1   ]  1.1                  1
[INPUT] C1
[INPUT] 0    0    [6    /1   ]  3047.5249         0.0018347
                                457.36951         0.0140373
                                103.94869         0.0688426
                                29.210155         0.2321844
                                9.286663          0.4679413
                                3.163927          0.362312
[INPUT] 0    0    [3    /1   ]  7.8682724         -0.1193324
                                1.8812885         -0.1608542
                                0.5442493         1.1434564
[INPUT] 0    0    [1    /1   ]  0.1687144            1
[INPUT] 0    0    [1    /1   ]  0.0438               1
[INPUT] 1    0    [3    /1   ]  7.8682724         0.0689991
                                1.8812885         0.316424
                                0.5442493         0.7443083
[INPUT] 1    0    [1    /1   ]  0.1687144            1
[INPUT] 1    0    [1    /1   ]  0.0438               1
[INPUT] 2    0    [1    /1   ]  0.8                  1
[INPUT] C2
[INPUT] 0    0    [6    /1   ]  3047.5249         0.0018347
                                457.36951         0.0140373
                                103.94869         0.0688426
                                29.210155         0.2321844
                                9.286663          0.4679413
                                3.163927          0.362312
[INPUT] 0    0    [3    /1   ]  7.8682724         -0.1193324
                                1.8812885         -0.1608542
                                0.5442493         1.1434564
[INPUT] 0    0    [1    /1   ]  0.1687144            1
[INPUT] 0    0    [1    /1   ]  0.0438               1
[INPUT] 1    0    [3    /1   ]  7.8682724         0.0689991
                                1.8812885         0.316424
                                0.5442493         0.7443083
[INPUT] 1    0    [1    /1   ]  0.1687144            1
[INPUT] 1    0    [1    /1   ]  0.0438               1
[INPUT] 2    0    [1    /1   ]  0.8                  1
[INPUT] H4
[INPUT] 0    0    [3    /1   ]  18.731137         0.0334946
                                2.8253937         0.23472695
                                0.6401217         0.81375733
[INPUT] 0    0    [1    /1   ]  0.1612778            1
[INPUT] 0    0    [1    /1   ]  0.036                1
[INPUT] 1    0    [1    /1   ]  1.1                  1
[INPUT] H7
[INPUT] 0    0    [3    /1   ]  18.731137         0.0334946
                                2.8253937         0.23472695
                                0.6401217         0.81375733
[INPUT] 0    0    [1    /1   ]  0.1612778            1
[INPUT] 0    0    [1    /1   ]  0.036                1
[INPUT] 1    0    [1    /1   ]  1.1                  1
[INPUT] H6
[INPUT] 0    0    [3    /1   ]  18.731137         0.0334946
                                2.8253937         0.23472695
                                0.6401217         0.81375733
[INPUT] 0    0    [1    /1   ]  0.1612778            1
[INPUT] 0    0    [1    /1   ]  0.036                1
[INPUT] 1    0    [1    /1   ]  1.1                  1
[INPUT] H5
[INPUT] 0    0    [3    /1   ]  18.731137         0.0334946
                                2.8253937         0.23472695
                                0.6401217         0.81375733
[INPUT] 0    0    [1    /1   ]  0.1612778            1
[INPUT] 0    0    [1    /1   ]  0.036                1
[INPUT] 1    0    [1    /1   ]  1.1                  1
[INPUT] H3
[INPUT] 0    0    [3    /1   ]  18.731137         0.0334946
                                2.8253937         0.23472695
                                0.6401217         0.81375733
[INPUT] 0    0    [1    /1   ]  0.1612778            1
[INPUT] 0    0    [1    /1   ]  0.036                1
[INPUT] 1    0    [1    /1   ]  1.1                  1

nuclear repulsion = 42.3405555495694
point group symmetry = C1
num. orbitals of irrep A = 74
number of shells = 40
number of NR pGTOs = 112
number of NR cGTOs = 74
basis = 6-31++gss
ecp = {}
bas 0, expnt(s) = [3047.5249    457.36951   103.94869    29.210155    9.286663    3.163927]
bas 1, expnt(s) = [7.8682724 1.8812885 0.5442493]
bas 2, expnt(s) = [0.1687144]
bas 3, expnt(s) = [0.0438]
bas 4, expnt(s) = [7.8682724 1.8812885 0.5442493]
bas 5, expnt(s) = [0.1687144]
bas 6, expnt(s) = [0.0438]
bas 7, expnt(s) = [0.8]
bas 8, expnt(s) = [3047.5249    457.36951   103.94869    29.210155    9.286663    3.163927]
bas 9, expnt(s) = [7.8682724 1.8812885 0.5442493]
bas 10, expnt(s) = [0.1687144]
bas 11, expnt(s) = [0.0438]
bas 12, expnt(s) = [7.8682724 1.8812885 0.5442493]
bas 13, expnt(s) = [0.1687144]
bas 14, expnt(s) = [0.0438]
bas 15, expnt(s) = [0.8]
bas 16, expnt(s) = [18.731137   2.8253937  0.6401217]
bas 17, expnt(s) = [0.1612778]
bas 18, expnt(s) = [0.036]
bas 19, expnt(s) = [1.1]
bas 20, expnt(s) = [18.731137   2.8253937  0.6401217]
bas 21, expnt(s) = [0.1612778]
bas 22, expnt(s) = [0.036]
bas 23, expnt(s) = [1.1]
bas 24, expnt(s) = [18.731137   2.8253937  0.6401217]
bas 25, expnt(s) = [0.1612778]
bas 26, expnt(s) = [0.036]
bas 27, expnt(s) = [1.1]
bas 28, expnt(s) = [18.731137   2.8253937  0.6401217]
bas 29, expnt(s) = [0.1612778]
bas 30, expnt(s) = [0.036]
bas 31, expnt(s) = [1.1]
bas 32, expnt(s) = [18.731137   2.8253937  0.6401217]
bas 33, expnt(s) = [0.1612778]
bas 34, expnt(s) = [0.036]
bas 35, expnt(s) = [1.1]
bas 36, expnt(s) = [18.731137   2.8253937  0.6401217]
bas 37, expnt(s) = [0.1612778]
bas 38, expnt(s) = [0.036]
bas 39, expnt(s) = [1.1]
CPU time:         0.48
arg.atm = [[ 6 20  1 23  0  0]
 [ 6 24  1 27  0  0]
 [ 1 28  1 31  0  0]
 [ 1 32  1 35  0  0]
 [ 1 36  1 39  0  0]
 [ 1 40  1 43  0  0]
 [ 1 44  1 47  0  0]
 [ 1 48  1 51  0  0]]
arg.bas = [[  0   0   6   1   0  64  70   0]
 [  0   0   3   1   0  76  79   0]
 [  0   0   1   1   0  82  83   0]
 [  0   0   1   1   0  84  85   0]
 [  0   1   3   1   0  86  89   0]
 [  0   1   1   1   0  92  93   0]
 [  0   1   1   1   0  94  95   0]
 [  0   2   1   1   0  96  97   0]
 [  1   0   6   1   0  98 104   0]
 [  1   0   3   1   0 110 113   0]
 [  1   0   1   1   0 116 117   0]
 [  1   0   1   1   0 118 119   0]
 [  1   1   3   1   0 120 123   0]
 [  1   1   1   1   0 126 127   0]
 [  1   1   1   1   0 128 129   0]
 [  1   2   1   1   0 130 131   0]
 [  2   0   3   1   0 180 183   0]
 [  2   0   1   1   0 186 187   0]
 [  2   0   1   1   0 188 189   0]
 [  2   1   1   1   0 190 191   0]
 [  3   0   3   1   0 132 135   0]
 [  3   0   1   1   0 138 139   0]
 [  3   0   1   1   0 140 141   0]
 [  3   1   1   1   0 142 143   0]
 [  4   0   3   1   0 168 171   0]
 [  4   0   1   1   0 174 175   0]
 [  4   0   1   1   0 176 177   0]
 [  4   1   1   1   0 178 179   0]
 [  5   0   3   1   0 156 159   0]
 [  5   0   1   1   0 162 163   0]
 [  5   0   1   1   0 164 165   0]
 [  5   1   1   1   0 166 167   0]
 [  6   0   3   1   0 144 147   0]
 [  6   0   1   1   0 150 151   0]
 [  6   0   1   1   0 152 153   0]
 [  6   1   1   1   0 154 155   0]
 [  7   0   3   1   0  52  55   0]
 [  7   0   1   1   0  58  59   0]
 [  7   0   1   1   0  60  61   0]
 [  7   1   1   1   0  62  63   0]]
arg.env = [ 1.37036000e+02  0.00000000e+00  0.00000000e+00  0.00000000e+00
  0.00000000e+00  0.00000000e+00  0.00000000e+00  0.00000000e+00
  0.00000000e+00  0.00000000e+00  0.00000000e+00  0.00000000e+00
  0.00000000e+00  0.00000000e+00  0.00000000e+00  0.00000000e+00
  0.00000000e+00  0.00000000e+00  0.00000000e+00  0.00000000e+00
  0.00000000e+00  0.00000000e+00  1.43883747e+00  0.00000000e+00
  0.00000000e+00  0.00000000e+00 -1.43883747e+00  0.00000000e+00
  0.00000000e+00  1.91901688e+00  2.18716902e+00  0.00000000e+00
 -1.66182515e+00 -9.59413953e-01  2.18716902e+00  0.00000000e+00
  1.66182515e+00 -9.59413953e-01  2.18716902e+00  0.00000000e+00
  0.00000000e+00 -1.91901688e+00 -2.18716902e+00  0.00000000e+00
 -1.66182515e+00  9.59413953e-01 -2.18716902e+00  0.00000000e+00
  1.66182515e+00  9.59413953e-01 -2.18716902e+00  0.00000000e+00
  1.87311370e+01  2.82539370e+00  6.40121700e-01  7.61926220e-01
  1.29237100e+00  1.47131900e+00  1.61277800e-01  6.42977783e-01
  3.60000000e-02  2.08805484e-01  1.10000000e+00  3.28643653e+00
  3.04752490e+03  4.57369510e+02  1.03948690e+02  2.92101550e+01
  9.28666300e+00  3.16392700e+00  1.90125588e+00  3.50751108e+00
  5.66221808e+00  7.37052623e+00  6.28928397e+00  2.17153894e+00
  7.86827240e+00  1.88128850e+00  5.44249300e-01 -1.41639039e+00
 -6.52813326e-01  1.83055623e+00  1.68714400e-01  6.65088040e-01
  4.38000000e-02  2.41891500e-01  7.86827240e+00  1.88128850e+00
  5.44249300e-01  2.65263212e+00  2.03386926e+00  1.01504332e+00
  1.68714400e-01  3.15445679e-01  4.38000000e-02  5.84557222e-02
  8.00000000e-01  1.76578110e+00  3.04752490e+03  4.57369510e+02
  1.03948690e+02  2.92101550e+01  9.28666300e+00  3.16392700e+00
  1.90125588e+00  3.50751108e+00  5.66221808e+00  7.37052623e+00
  6.28928397e+00  2.17153894e+00  7.86827240e+00  1.88128850e+00
  5.44249300e-01 -1.41639039e+00 -6.52813326e-01  1.83055623e+00
  1.68714400e-01  6.65088040e-01  4.38000000e-02  2.41891500e-01
  7.86827240e+00  1.88128850e+00  5.44249300e-01  2.65263212e+00
  2.03386926e+00  1.01504332e+00  1.68714400e-01  3.15445679e-01
  4.38000000e-02  5.84557222e-02  8.00000000e-01  1.76578110e+00
  1.87311370e+01  2.82539370e+00  6.40121700e-01  7.61926220e-01
  1.29237100e+00  1.47131900e+00  1.61277800e-01  6.42977783e-01
  3.60000000e-02  2.08805484e-01  1.10000000e+00  3.28643653e+00
  1.87311370e+01  2.82539370e+00  6.40121700e-01  7.61926220e-01
  1.29237100e+00  1.47131900e+00  1.61277800e-01  6.42977783e-01
  3.60000000e-02  2.08805484e-01  1.10000000e+00  3.28643653e+00
  1.87311370e+01  2.82539370e+00  6.40121700e-01  7.61926220e-01
  1.29237100e+00  1.47131900e+00  1.61277800e-01  6.42977783e-01
  3.60000000e-02  2.08805484e-01  1.10000000e+00  3.28643653e+00
  1.87311370e+01  2.82539370e+00  6.40121700e-01  7.61926220e-01
  1.29237100e+00  1.47131900e+00  1.61277800e-01  6.42977783e-01
  3.60000000e-02  2.08805484e-01  1.10000000e+00  3.28643653e+00
  1.87311370e+01  2.82539370e+00  6.40121700e-01  7.61926220e-01
  1.29237100e+00  1.47131900e+00  1.61277800e-01  6.42977783e-01
  3.60000000e-02  2.08805484e-01  1.10000000e+00  3.28643653e+00]
ecpbas  = []


******** <class 'pyscf.dft.rks.RKS'> ********
method = RKS-RHF
initial guess = minao
damping factor = 0
level shift factor = 0
DIIS = <class 'pyscf.scf.diis.CDIIS'>
DIIS start cycle = 1
DIIS space = 8
SCF tol = 1e-09
SCF gradient tol = None
max. SCF cycles = 50
direct_scf = True
direct_scf_tol = 1e-13
chkfile to save SCF result = /home/wsr/dftpart/tmpl7cpr4s1
max_memory 4000 MB (current use 59 MB)
XC functionals = b3lyp
small_rho_cutoff = 1e-07
radial grids: 
    Treutler-Ahlrichs (JCP 102, 346 (M4)) radial grids
    
becke partition: Becke, JCP, 88, 2547 (1988)
pruning grids: <function nwchem_prune at 0x2b965ee3d2f0>
grids dens level: 3
symmetrized grids: True
atomic radii adjust function: <function treutler_atomic_radii_adjust at 0x2b965ee3d268>
atomic_radii : [0.         0.66140414 2.64561657 2.74010288 1.98421243 1.60626721
 1.32280829 1.22832198 1.13383567 0.94486306 2.83458919 3.40150702
 2.83458919 2.36215766 2.07869874 1.88972612 1.88972612 1.88972612
 3.40150702 4.15739747 3.40150702 3.0235618  2.64561657 2.55113027
 2.64561657 2.64561657 2.64561657 2.55113027 2.55113027 2.55113027
 2.55113027 2.45664396 2.36215766 2.17318504 2.17318504 2.17318504
 3.59047964 4.44085639 3.77945225 3.40150702 2.92907549 2.74010288
 2.74010288 2.55113027 2.45664396 2.55113027 2.64561657 3.0235618
 2.92907549 2.92907549 2.74010288 2.74010288 2.64561657 2.64561657
 3.96842486 4.91328792 4.06291117 3.68496594 3.49599333 3.49599333
 3.49599333 3.49599333 3.49599333 3.49599333 3.40150702 3.30702072
 3.30702072 3.30702072 3.30702072 3.30702072 3.30702072 3.30702072
 2.92907549 2.74010288 2.55113027 2.55113027 2.45664396 2.55113027
 2.55113027 2.55113027 2.83458919 3.59047964 3.40150702 3.0235618
 3.59047964 2.74010288 3.96842486 3.40150702 4.06291117 3.68496594
 3.40150702 3.40150702 3.30702072 3.30702072 3.30702072 3.30702072
 3.30702072 3.30702072 3.30702072 3.30702072 3.30702072 3.30702072
 3.30702072 3.30702072 3.30702072 3.30702072 3.30702072 3.30702072
 3.30702072 3.30702072 3.30702072 3.30702072 3.30702072 3.30702072
 3.30702072 3.30702072 3.30702072 3.30702072 3.30702072 3.30702072
 3.30702072 3.30702072 3.30702072 3.30702072 3.30702072 3.30702072
 3.30702072 3.30702072 3.30702072 3.30702072 3.30702072]
Set gradient conv threshold to 3.16228e-05
Nelec from initial guess = 17.997661991067304
cond(S) = 39101.93729660667
atom C1 rad-grids = 75, ang-grids = [ 50  50  50  50  50  50  50  50  50  50  50  50  50  50  50  50  50  50
  50  50  50  50  50  86  86  86  86  86  86  86  86  86  86 266 266 266
 266 266 266 266 302 302 302 302 302 302 302 302 302 302 302 302 302 302
 302 302 302 302 302 302 266 266 266 266 266 266 266 266 266 266 266 266
 266 266 266]
atom C2 rad-grids = 75, ang-grids = [ 50  50  50  50  50  50  50  50  50  50  50  50  50  50  50  50  50  50
  50  50  50  50  50  86  86  86  86  86  86  86  86  86  86 266 266 266
 266 266 266 266 302 302 302 302 302 302 302 302 302 302 302 302 302 302
 302 302 302 302 302 302 266 266 266 266 266 266 266 266 266 266 266 266
 266 266 266]
atom H3 rad-grids = 50, ang-grids = [ 50  50  50  50  50  50  50  50  50  50  50  50  50  50  86  86  86  86
 266 266 266 266 302 302 302 302 302 302 302 302 302 302 302 302 302 266
 266 266 266 266 266 266 266 266 266 266 266 266 266 266]
atom H4 rad-grids = 50, ang-grids = [ 50  50  50  50  50  50  50  50  50  50  50  50  50  50  86  86  86  86
 266 266 266 266 302 302 302 302 302 302 302 302 302 302 302 302 302 266
 266 266 266 266 266 266 266 266 266 266 266 266 266 266]
atom H5 rad-grids = 50, ang-grids = [ 50  50  50  50  50  50  50  50  50  50  50  50  50  50  86  86  86  86
 266 266 266 266 302 302 302 302 302 302 302 302 302 302 302 302 302 266
 266 266 266 266 266 266 266 266 266 266 266 266 266 266]
atom H6 rad-grids = 50, ang-grids = [ 50  50  50  50  50  50  50  50  50  50  50  50  50  50  86  86  86  86
 266 266 266 266 302 302 302 302 302 302 302 302 302 302 302 302 302 266
 266 266 266 266 266 266 266 266 266 266 266 266 266 266]
atom H7 rad-grids = 50, ang-grids = [ 50  50  50  50  50  50  50  50  50  50  50  50  50  50  86  86  86  86
 266 266 266 266 302 302 302 302 302 302 302 302 302 302 302 302 302 266
 266 266 266 266 266 266 266 266 266 266 266 266 266 266]
atom H8 rad-grids = 50, ang-grids = [ 50  50  50  50  50  50  50  50  50  50  50  50  50  50  86  86  86  86
 266 266 266 266 302 302 302 302 302 302 302 302 302 302 302 302 302 266
 266 266 266 266 266 266 266 266 266 266 266 266 266 266]
tot grids = 87948
Drop grids 9662
    CPU time for setting up grids      5.52 sec, wall time      0.13 sec
nelec by numeric integration = 17.997665756213518
    CPU time for vxc     14.70 sec, wall time      0.31 sec
 Exc = -10.240076690610554
 Exc = -12.720213709667902
E1 = -186.81696256858442  Ecoul = 77.49588834336824  Exc = -12.720213709667902
init E= -79.7007323853147
    CPU time for initialize scf     22.89 sec, wall time      0.54 sec
  HOMO = -0.421897181719186  LUMO = -0.0291479507676776
  mo_energy =
[-1.04267683e+01 -1.04261347e+01 -9.59587078e-01 -7.61813016e-01
 -5.30346760e-01 -5.30329982e-01 -4.78735093e-01 -4.21916631e-01
 -4.21897182e-01 -2.91479508e-02 -2.36020027e-03  1.19173109e-02
  1.19194034e-02  4.26503561e-02  4.26548854e-02  6.30345609e-02
  8.70920123e-02  8.70920295e-02  8.84415319e-02  1.10104935e-01
  1.25423483e-01  1.28932293e-01  1.28940458e-01  1.38093471e-01
  1.38104987e-01  1.76253261e-01  1.78686964e-01  1.78699468e-01
  3.03955216e-01  3.32905371e-01  5.36945447e-01  6.26732243e-01
  6.26740759e-01  6.39315323e-01  6.39325237e-01  6.48934678e-01
  8.32296024e-01  8.32311266e-01  8.88245908e-01  8.88253266e-01
  1.02417347e+00  1.02938310e+00  1.04363401e+00  1.19965302e+00
  1.19966067e+00  1.39348045e+00  1.56910384e+00  1.56912176e+00
  1.77347530e+00  1.97527567e+00  1.97581120e+00  2.01700561e+00
  2.01706072e+00  2.01712238e+00  2.01718600e+00  2.18684526e+00
  2.18686438e+00  2.31402218e+00  2.39598728e+00  2.39602186e+00
  2.61620343e+00  2.68196516e+00  2.70693969e+00  2.70696954e+00
  2.80668015e+00  2.80669088e+00  3.14623493e+00  3.16330419e+00
  3.29610325e+00  3.29618224e+00  3.41962691e+00  3.41968640e+00
  4.17878968e+00  4.42179362e+00]
nelec by numeric integration = 18.000002380219232
    CPU time for vxc     15.41 sec, wall time      0.32 sec
 Exc = -10.751370342933836
 Exc = -13.297665084217758
E1 = -191.9914012883268  Ecoul = 83.26526740645396  Exc = -13.297665084217758
cycle= 1 E= -79.6832434165212  delta_E= 0.0175  |g|= 0.595  |ddm|= 2.09
    CPU time for cycle= 1     16.07 sec, wall time      0.34 sec
diis-norm(errvec)=1.80502
diis-c [-3.25808203  1.        ]
  HOMO = -0.223647059308557  LUMO = 0.0116957436229835
  mo_energy =
[-9.87055859 -9.87031518 -0.62153369 -0.51164993 -0.33520011 -0.33519167
 -0.25416776 -0.25415982 -0.22364706  0.01169574  0.02836976  0.04065709
  0.04065735  0.0706558   0.0706568   0.09872117  0.11440179  0.11440184
  0.13550065  0.16766035  0.17133181  0.17133454  0.17510438  0.26060058
  0.26062275  0.29853411  0.29854427  0.34560503  0.41212454  0.43928185
  0.72200194  0.81807572  0.81809053  0.81969066  0.81969141  0.89375289
  1.00124519  1.00127558  1.04558713  1.04561451  1.17878316  1.18693437
  1.2011928   1.44690546  1.44690918  1.53359586  1.77893208  1.77894131
  2.05348759  2.1099588   2.11044309  2.22222325  2.22228975  2.22296047
  2.22301685  2.33893868  2.33897296  2.51343858  2.57815994  2.57818682
  2.76829718  2.89670266  2.8967356   2.90703958  3.0132083   3.01321356
  3.33756023  3.37529284  3.523596    3.52368911  3.65044604  3.6505185
  4.52981981  4.76656784]
nelec by numeric integration = 17.999998115440395
    CPU time for vxc     15.47 sec, wall time      0.32 sec
 Exc = -10.271578191321826
 Exc = -12.708006880652139
E1 = -186.00098160775306  Ecoul = 76.73769690392147  Exc = -12.708006880652139
cycle= 2 E= -79.6307360349143  delta_E= 0.0525  |g|= 0.729  |ddm|=  1.1
    CPU time for cycle= 2     16.04 sec, wall time      0.33 sec
diis-norm(errvec)=2.34023
diis-c [-0.03456127  0.56509035  0.43490965]
  HOMO = -0.341373073839543  LUMO = -0.00353305815424165
  mo_energy =
[-1.01649420e+01 -1.01647199e+01 -7.53814241e-01 -6.13911653e-01
 -4.33950081e-01 -4.33937335e-01 -3.66634274e-01 -3.41387148e-01
 -3.41373074e-01 -3.53305815e-03  1.77821927e-02  2.91515900e-02
  2.91522434e-02  5.96950506e-02  5.96953971e-02  8.19156140e-02
  1.01620628e-01  1.01620631e-01  1.24196828e-01  1.41171490e-01
  1.52646667e-01  1.52647995e-01  1.53929204e-01  2.02390770e-01
  2.02412808e-01  2.43240660e-01  2.43251664e-01  2.77504460e-01
  3.65664897e-01  3.79572590e-01  6.27551939e-01  7.23567750e-01
  7.23573285e-01  7.30123568e-01  7.30136564e-01  7.63359812e-01
  9.18718265e-01  9.18741215e-01  9.74965941e-01  9.74983120e-01
  1.10841975e+00  1.11852624e+00  1.12972038e+00  1.32859796e+00
  1.32860401e+00  1.46976767e+00  1.68267718e+00  1.68269090e+00
  1.91619981e+00  2.05593511e+00  2.05643092e+00  2.13043411e+00
  2.13049135e+00  2.13080636e+00  2.13087202e+00  2.27235794e+00
  2.27238340e+00  2.42487522e+00  2.49562011e+00  2.49565127e+00
  2.70411142e+00  2.80148576e+00  2.81124140e+00  2.81127372e+00
  2.91663738e+00  2.91664599e+00  3.25341773e+00  3.27855712e+00
  3.41822678e+00  3.41831285e+00  3.54253690e+00  3.54260344e+00
  4.34953258e+00  4.59191159e+00]
nelec by numeric integration = 18.000000986644395
    CPU time for vxc     15.05 sec, wall time      0.33 sec
 Exc = -10.52761628453828
 Exc = -13.022804058661645
E1 = -189.38511994027232  Ecoul = 80.29110742617937  Exc = -13.022804058661645
cycle= 3 E= -79.7762610231852  delta_E= -0.146  |g|= 0.0184  |ddm|= 0.604
    CPU time for cycle= 3     16.14 sec, wall time      0.35 sec
diis-norm(errvec)=0.0502542
diis-c [-0.00099366  0.08022349  0.05148487  0.86829165]
  HOMO = -0.341133386078534  LUMO = -0.00311334881403647
  mo_energy =
[-1.01715242e+01 -1.01713020e+01 -7.52047584e-01 -6.14805646e-01
 -4.33046815e-01 -4.33033751e-01 -3.65901705e-01 -3.41147882e-01
 -3.41133386e-01 -3.11334881e-03  1.79869443e-02  2.95892752e-02
  2.95904069e-02  6.01027953e-02  6.01033724e-02  8.25946594e-02
  1.02132186e-01  1.02132328e-01  1.24360214e-01  1.41518915e-01
  1.53486024e-01  1.53487904e-01  1.54297691e-01  2.03990115e-01
  2.04012025e-01  2.44258195e-01  2.44268776e-01  2.77627634e-01
  3.66895465e-01  3.80023179e-01  6.28312240e-01  7.23993633e-01
  7.23999227e-01  7.31341743e-01  7.31354801e-01  7.62529915e-01
  9.20030940e-01  9.20053589e-01  9.76307562e-01  9.76324365e-01
  1.11004939e+00  1.11933944e+00  1.13026509e+00  1.32982831e+00
  1.32983446e+00  1.47161995e+00  1.68389943e+00  1.68391355e+00
  1.91732392e+00  2.05758005e+00  2.05807636e+00  2.13171323e+00
  2.13177013e+00  2.13195282e+00  2.13201817e+00  2.27423165e+00
  2.27425669e+00  2.42626568e+00  2.49748192e+00  2.49751331e+00
  2.70558274e+00  2.80194186e+00  2.81272706e+00  2.81275899e+00
  2.91837446e+00  2.91838306e+00  3.25427511e+00  3.27909163e+00
  3.41878780e+00  3.41887343e+00  3.54341648e+00  3.54348249e+00
  4.34956721e+00  4.59128577e+00]
nelec by numeric integration = 18.000000960816237
    CPU time for vxc     16.41 sec, wall time      0.34 sec
 Exc = -10.53136413266452
 Exc = -13.027402622450829
E1 = -189.41686449074976  Ecoul = 80.32738221345677  Exc = -13.027402622450829
cycle= 4 E= -79.7763293501744  delta_E= -6.83e-05  |g|= 0.0035  |ddm|= 0.0183
    CPU time for cycle= 4     16.94 sec, wall time      0.35 sec
diis-norm(errvec)=0.0106601
diis-c [-7.47690679e-06 -1.16371545e-03 -4.42370751e-03  1.72925391e-01
  8.32662032e-01]
  HOMO = -0.341156892156643  LUMO = -0.0031004160776919
  mo_energy =
[-1.01720314e+01 -1.01718086e+01 -7.52426310e-01 -6.14638208e-01
 -4.33216068e-01 -4.33203041e-01 -3.66335930e-01 -3.41171348e-01
 -3.41156892e-01 -3.10041608e-03  1.80658933e-02  2.95669976e-02
  2.95682994e-02  6.00833478e-02  6.00840697e-02  8.26463562e-02
  1.02138479e-01  1.02138624e-01  1.24468913e-01  1.41583997e-01
  1.53447739e-01  1.53449874e-01  1.54369308e-01  2.03937148e-01
  2.03959091e-01  2.44228956e-01  2.44239473e-01  2.77684172e-01
  3.66755153e-01  3.80131981e-01  6.28250879e-01  7.23894267e-01
  7.23899853e-01  7.31177065e-01  7.31190091e-01  7.62487166e-01
  9.19980497e-01  9.20003145e-01  9.76387684e-01  9.76404495e-01
  1.10995332e+00  1.11943729e+00  1.13050114e+00  1.32974898e+00
  1.32975512e+00  1.47164290e+00  1.68392390e+00  1.68393798e+00
  1.91712941e+00  2.05780883e+00  2.05830509e+00  2.13171402e+00
  2.13177097e+00  2.13198077e+00  2.13204616e+00  2.27437337e+00
  2.27439844e+00  2.42626204e+00  2.49750948e+00  2.49754085e+00
  2.70580267e+00  2.80209719e+00  2.81274757e+00  2.81277955e+00
  2.91830281e+00  2.91831141e+00  3.25439727e+00  3.27918266e+00
  3.41882186e+00  3.41890752e+00  3.54335722e+00  3.54342329e+00
  4.34914290e+00  4.59100450e+00]
nelec by numeric integration = 18.00000096209753
    CPU time for vxc     15.53 sec, wall time      0.32 sec
 Exc = -10.53179107541812
 Exc = -13.027922223005516
E1 = -189.42575545600624  Ecoul = 80.33678988957087  Exc = -13.027922223005516
cycle= 5 E= -79.7763322398715  delta_E= -2.89e-06  |g|= 0.000558  |ddm|= 0.00357
    CPU time for cycle= 5     16.26 sec, wall time      0.34 sec
diis-norm(errvec)=0.00144038
diis-c [-1.19533837e-07 -8.62403716e-04 -3.08113435e-04  7.18922546e-03
  6.03231018e-02  9.33658190e-01]
  HOMO = -0.341207886099652  LUMO = -0.00312143062093514
  mo_energy =
[-1.01717713e+01 -1.01715484e+01 -7.52438494e-01 -6.14679690e-01
 -4.33255984e-01 -4.33242957e-01 -3.66339358e-01 -3.41222339e-01
 -3.41207886e-01 -3.12143062e-03  1.80538209e-02  2.95512347e-02
  2.95525570e-02  6.00662191e-02  6.00669591e-02  8.26313145e-02
  1.02114335e-01  1.02114482e-01  1.24457312e-01  1.41565543e-01
  1.53427728e-01  1.53429891e-01  1.54355087e-01  2.03893878e-01
  2.03915823e-01  2.44197198e-01  2.44207704e-01  2.77663877e-01
  3.66737479e-01  3.80093419e-01  6.28235866e-01  7.23880392e-01
  7.23885973e-01  7.31152721e-01  7.31165751e-01  7.62505715e-01
  9.19946092e-01  9.19968747e-01  9.76331694e-01  9.76348510e-01
  1.10991643e+00  1.11939226e+00  1.13044440e+00  1.32970310e+00
  1.32970924e+00  1.47158012e+00  1.68386208e+00  1.68387615e+00
  1.91711782e+00  2.05771152e+00  2.05820779e+00  2.13165619e+00
  2.13171314e+00  2.13192111e+00  2.13198650e+00  2.27428737e+00
  2.27431244e+00  2.42621324e+00  2.49744106e+00  2.49747242e+00
  2.70572039e+00  2.80205076e+00  2.81268097e+00  2.81271296e+00
  2.91824535e+00  2.91825395e+00  3.25433462e+00  3.27913175e+00
  3.41877814e+00  3.41886381e+00  3.54331521e+00  3.54338128e+00
  4.34919177e+00  4.59104658e+00]
nelec by numeric integration = 18.000000962458486
    CPU time for vxc     15.83 sec, wall time      0.33 sec
 Exc = -10.531646008751714
 Exc = -13.02774577847484
E1 = -189.42365526762075  Ecoul = 80.33451318600365  Exc = -13.02774577847484
cycle= 6 E= -79.7763323105225  delta_E= -7.07e-08  |g|= 1.49e-05  |ddm|= 0.000519
    CPU time for cycle= 6     16.38 sec, wall time      0.34 sec
diis-norm(errvec)=4.40532e-05
diis-c [-2.87667645e-10 -5.33001335e-05 -3.23999030e-05 -3.15097232e-04
 -1.07912116e-03  2.98412160e-02  9.71638702e-01]
  HOMO = -0.341205122700521  LUMO = -0.00312025290620173
  mo_energy =
[-1.01717749e+01 -1.01715520e+01 -7.52437627e-01 -6.14677516e-01
 -4.33253523e-01 -4.33240496e-01 -3.66340613e-01 -3.41219577e-01
 -3.41205123e-01 -3.12025291e-03  1.80557201e-02  2.95521272e-02
  2.95534418e-02  6.00670408e-02  6.00677834e-02  8.26334356e-02
  1.02115943e-01  1.02116089e-01  1.24459032e-01  1.41566283e-01
  1.53428789e-01  1.53430939e-01  1.54357024e-01  2.03895350e-01
  2.03917294e-01  2.44198423e-01  2.44208928e-01  2.77664645e-01
  3.66739059e-01  3.80095420e-01  6.28235321e-01  7.23881519e-01
  7.23887099e-01  7.31153917e-01  7.31166950e-01  7.62504631e-01
  9.19948267e-01  9.19970920e-01  9.76334618e-01  9.76351433e-01
  1.10991678e+00  1.11939512e+00  1.13044768e+00  1.32970433e+00
  1.32971047e+00  1.47158200e+00  1.68386401e+00  1.68387809e+00
  1.91711831e+00  2.05771509e+00  2.05821136e+00  2.13165893e+00
  2.13171588e+00  2.13192396e+00  2.13198935e+00  2.27429025e+00
  2.27431532e+00  2.42621471e+00  2.49744361e+00  2.49747498e+00
  2.70572337e+00  2.80205256e+00  2.81268396e+00  2.81271594e+00
  2.91824778e+00  2.91825638e+00  3.25433842e+00  3.27913508e+00
  3.41878117e+00  3.41886684e+00  3.54331836e+00  3.54338444e+00
  4.34919110e+00  4.59104617e+00]
nelec by numeric integration = 18.000000962519373
    CPU time for vxc     15.32 sec, wall time      0.32 sec
 Exc = -10.53164713292961
 Exc = -13.027747230380731
E1 = -189.42367823318656  Ecoul = 80.33453760340284  Exc = -13.027747230380731
cycle= 7 E= -79.776332310595  delta_E= -7.25e-11  |g|= 3.46e-06  |ddm|= 3.34e-05
    CPU time for cycle= 7     15.89 sec, wall time      0.33 sec
  HOMO = -0.3412060773513  LUMO = -0.00312038999911151
  mo_energy =
[-1.01717782e+01 -1.01715553e+01 -7.52439074e-01 -6.14678676e-01
 -4.33254584e-01 -4.33241557e-01 -3.66342181e-01 -3.41220532e-01
 -3.41206077e-01 -3.12039000e-03  1.80557503e-02  2.95520088e-02
  2.95533223e-02  6.00669065e-02  6.00676493e-02  8.26334567e-02
  1.02115918e-01  1.02116064e-01  1.24459020e-01  1.41566002e-01
  1.53428604e-01  1.53430752e-01  1.54356933e-01  2.03894751e-01
  2.03916695e-01  2.44197820e-01  2.44208325e-01  2.77663735e-01
  3.66738476e-01  3.80095123e-01  6.28234335e-01  7.23880513e-01
  7.23886094e-01  7.31152953e-01  7.31165986e-01  7.62503338e-01
  9.19947466e-01  9.19970119e-01  9.76333895e-01  9.76350710e-01
  1.10991593e+00  1.11939442e+00  1.13044705e+00  1.32970304e+00
  1.32970918e+00  1.47158133e+00  1.68386294e+00  1.68387702e+00
  1.91711687e+00  2.05771446e+00  2.05821073e+00  2.13165793e+00
  2.13171488e+00  2.13192297e+00  2.13198836e+00  2.27428955e+00
  2.27431461e+00  2.42621369e+00  2.49744272e+00  2.49747409e+00
  2.70572269e+00  2.80205147e+00  2.81268305e+00  2.81271503e+00
  2.91824678e+00  2.91825538e+00  3.25433753e+00  3.27913407e+00
  3.41878008e+00  3.41886574e+00  3.54331723e+00  3.54338331e+00
  4.34918916e+00  4.59104428e+00]
nelec by numeric integration = 18.000000962547475
    CPU time for vxc     14.90 sec, wall time      0.31 sec
 Exc = -10.531649897187084
 Exc = -13.027750638986022
E1 = -189.42371182206656  Ecoul = 80.33457460089  Exc = -13.027750638986022
Extra cycle  E= -79.7763323105932  delta_E= 1.86e-12  |g|= 4.18e-06  |ddm|= 7.11e-06
    CPU time for scf_cycle    152.00 sec, wall time      3.25 sec
    CPU time for SCF    152.00 sec, wall time      3.25 sec
converged SCF energy = -79.7763323105932
atom C1 rad-grids = 75, ang-grids = [ 50  50  50  50  50  50  50  50  50  50  50  50  50  50  50  50  50  50
  50  50  50  50  50  86  86  86  86  86  86  86  86  86  86 266 266 266
 266 266 266 266 302 302 302 302 302 302 302 302 302 302 302 302 302 302
 302 302 302 302 302 302 266 266 266 266 266 266 266 266 266 266 266 266
 266 266 266]
atom C2 rad-grids = 75, ang-grids = [ 50  50  50  50  50  50  50  50  50  50  50  50  50  50  50  50  50  50
  50  50  50  50  50  86  86  86  86  86  86  86  86  86  86 266 266 266
 266 266 266 266 302 302 302 302 302 302 302 302 302 302 302 302 302 302
 302 302 302 302 302 302 266 266 266 266 266 266 266 266 266 266 266 266
 266 266 266]
atom H3 rad-grids = 50, ang-grids = [ 50  50  50  50  50  50  50  50  50  50  50  50  50  50  86  86  86  86
 266 266 266 266 302 302 302 302 302 302 302 302 302 302 302 302 302 266
 266 266 266 266 266 266 266 266 266 266 266 266 266 266]
atom H4 rad-grids = 50, ang-grids = [ 50  50  50  50  50  50  50  50  50  50  50  50  50  50  86  86  86  86
 266 266 266 266 302 302 302 302 302 302 302 302 302 302 302 302 302 266
 266 266 266 266 266 266 266 266 266 266 266 266 266 266]
atom H5 rad-grids = 50, ang-grids = [ 50  50  50  50  50  50  50  50  50  50  50  50  50  50  86  86  86  86
 266 266 266 266 302 302 302 302 302 302 302 302 302 302 302 302 302 266
 266 266 266 266 266 266 266 266 266 266 266 266 266 266]
atom H6 rad-grids = 50, ang-grids = [ 50  50  50  50  50  50  50  50  50  50  50  50  50  50  86  86  86  86
 266 266 266 266 302 302 302 302 302 302 302 302 302 302 302 302 302 266
 266 266 266 266 266 266 266 266 266 266 266 266 266 266]
atom H7 rad-grids = 50, ang-grids = [ 50  50  50  50  50  50  50  50  50  50  50  50  50  50  86  86  86  86
 266 266 266 266 302 302 302 302 302 302 302 302 302 302 302 302 302 266
 266 266 266 266 266 266 266 266 266 266 266 266 266 266]
atom H8 rad-grids = 50, ang-grids = [ 50  50  50  50  50  50  50  50  50  50  50  50  50  50  86  86  86  86
 266 266 266 266 302 302 302 302 302 302 302 302 302 302 302 302 302 266
 266 266 266 266 266 266 266 266 266 266 266 266 266 266]
tot grids = 8
