#INFO: **** input file is /home/wsr/dftpart/test/test_c2h6_m062x.py ****
from pyscf import gto,dft
import numpy as np
#import gen_grid_sep
#import numint_sep
import xceda
import os

name = 'C2H6_m062x'

#baslist = ['6-31+gss','6-31++gss','def2dzvp','def2tzvp','cc-pvdz','cc-pvtz','aug-cc-pvtz']
#xclist = [] 

mol = gto.Mole()
mol.atom = '''C1      0.0000  0.0000  0.7614
C2      0.0000  0.0000  -0.7614
H3      0.0000  1.0155  1.1574
H4      -0.8794 -0.5077 1.1574
H5      0.8794  -0.5077 1.1574
H6      0.0000  -1.0155 -1.1574
H7      -0.8794 0.5077  -1.1574
H8      0.8794  0.5077  -1.1574'''
mol.basis = '6-31gss'
mol.output = name+'-pyscf.log'
mol.verbose = 9
mol.build()

ks = dft.RKS(mol)
ks.xc = 'm062x'
#ks.grids = gen_grid_sep.Grids(ks.mol)
ks.kernel()

#dm = ks.make_rdm1()
os.system("echo '' > %s" % (name+'-xceda.log'))

atom_exc, dexc = xceda.analysis(ks)

#os.system("echo \"E_xc of C: %.10f\n\" >> %s" % (np.mean(atom_exc[0:2]), name+'-xceda.log'))
#os.system("echo \"E_xc of H: %.10f\n\" >> %s" % (np.mean(atom_exc[2:8]), name+'-xceda.log'))

#INFO: ******************** input file end ********************


System: uname_result(system='Linux', node='lw06', release='3.10.0-957.el7.x86_64', version='#1 SMP Thu Nov 8 23:39:32 UTC 2018', machine='x86_64', processor='x86_64')  Threads 48
Python 3.7.3 (default, Mar 27 2019, 22:11:17) 
[GCC 7.3.0]
numpy 1.16.2  scipy 1.2.1
Date: Tue Jul  2 06:45:23 2019
PySCF version 1.6.2
PySCF path  /home/wsr/pyscf

[CONFIG] DEBUG = False
[CONFIG] MAX_MEMORY = 4000
[CONFIG] TMPDIR = .
[CONFIG] UNIT = angstrom
[CONFIG] VERBOSE = 3
[CONFIG] conf_file = None
[INPUT] verbose = 9
[INPUT] max_memory = 4000 
[INPUT] num. atoms = 8
[INPUT] num. electrons = 18
[INPUT] charge = 0
[INPUT] spin (= nelec alpha-beta = 2S) = 0
[INPUT] symmetry False subgroup None
[INPUT] Mole.unit = angstrom
[INPUT]  1 C1     0.000000000000   0.000000000000   0.761400000000 AA    0.000000000000   0.000000000000   1.438837471244 Bohr
[INPUT]  2 C2     0.000000000000   0.000000000000  -0.761400000000 AA    0.000000000000   0.000000000000  -1.438837471244 Bohr
[INPUT]  3 H3     0.000000000000   1.015500000000   1.157400000000 AA    0.000000000000   1.919016879496   2.187169016572 Bohr
[INPUT]  4 H4    -0.879400000000  -0.507700000000   1.157400000000 AA   -1.661825153943  -0.959413953442   2.187169016572 Bohr
[INPUT]  5 H5     0.879400000000  -0.507700000000   1.157400000000 AA    1.661825153943  -0.959413953442   2.187169016572 Bohr
[INPUT]  6 H6     0.000000000000  -1.015500000000  -1.157400000000 AA    0.000000000000  -1.919016879496  -2.187169016572 Bohr
[INPUT]  7 H7    -0.879400000000   0.507700000000  -1.157400000000 AA   -1.661825153943   0.959413953442  -2.187169016572 Bohr
[INPUT]  8 H8     0.879400000000   0.507700000000  -1.157400000000 AA    1.661825153943   0.959413953442  -2.187169016572 Bohr
[INPUT] ---------------- BASIS SET ---------------- 
[INPUT] l, kappa, [nprim/nctr], expnt,             c_1 c_2 ...
[INPUT] C1
[INPUT] 0    0    [6    /1   ]  3047.5249         0.0018347
                                457.36951         0.0140373
                                103.94869         0.0688426
                                29.210155         0.2321844
                                9.286663          0.4679413
                                3.163927          0.362312
[INPUT] 0    0    [3    /1   ]  7.8682724         -0.1193324
                                1.8812885         -0.1608542
                                0.5442493         1.1434564
[INPUT] 0    0    [1    /1   ]  0.1687144            1
[INPUT] 1    0    [3    /1   ]  7.8682724         0.0689991
                                1.8812885         0.316424
                                0.5442493         0.7443083
[INPUT] 1    0    [1    /1   ]  0.1687144            1
[INPUT] 2    0    [1    /1   ]  0.8                  1
[INPUT] H3
[INPUT] 0    0    [3    /1   ]  18.731137         0.0334946
                                2.8253937         0.23472695
                                0.6401217         0.81375733
[INPUT] 0    0    [1    /1   ]  0.1612778            1
[INPUT] 1    0    [1    /1   ]  1.1                  1
[INPUT] H7
[INPUT] 0    0    [3    /1   ]  18.731137         0.0334946
                                2.8253937         0.23472695
                                0.6401217         0.81375733
[INPUT] 0    0    [1    /1   ]  0.1612778            1
[INPUT] 1    0    [1    /1   ]  1.1                  1
[INPUT] H6
[INPUT] 0    0    [3    /1   ]  18.731137         0.0334946
                                2.8253937         0.23472695
                                0.6401217         0.81375733
[INPUT] 0    0    [1    /1   ]  0.1612778            1
[INPUT] 1    0    [1    /1   ]  1.1                  1
[INPUT] C2
[INPUT] 0    0    [6    /1   ]  3047.5249         0.0018347
                                457.36951         0.0140373
                                103.94869         0.0688426
                                29.210155         0.2321844
                                9.286663          0.4679413
                                3.163927          0.362312
[INPUT] 0    0    [3    /1   ]  7.8682724         -0.1193324
                                1.8812885         -0.1608542
                                0.5442493         1.1434564
[INPUT] 0    0    [1    /1   ]  0.1687144            1
[INPUT] 1    0    [3    /1   ]  7.8682724         0.0689991
                                1.8812885         0.316424
                                0.5442493         0.7443083
[INPUT] 1    0    [1    /1   ]  0.1687144            1
[INPUT] 2    0    [1    /1   ]  0.8                  1
[INPUT] H5
[INPUT] 0    0    [3    /1   ]  18.731137         0.0334946
                                2.8253937         0.23472695
                                0.6401217         0.81375733
[INPUT] 0    0    [1    /1   ]  0.1612778            1
[INPUT] 1    0    [1    /1   ]  1.1                  1
[INPUT] H4
[INPUT] 0    0    [3    /1   ]  18.731137         0.0334946
                                2.8253937         0.23472695
                                0.6401217         0.81375733
[INPUT] 0    0    [1    /1   ]  0.1612778            1
[INPUT] 1    0    [1    /1   ]  1.1                  1
[INPUT] H8
[INPUT] 0    0    [3    /1   ]  18.731137         0.0334946
                                2.8253937         0.23472695
                                0.6401217         0.81375733
[INPUT] 0    0    [1    /1   ]  0.1612778            1
[INPUT] 1    0    [1    /1   ]  1.1                  1

nuclear repulsion = 42.3405555495694
number of shells = 30
number of NR pGTOs = 96
number of NR cGTOs = 58
basis = 6-31gss
ecp = {}
bas 0, expnt(s) = [3047.5249    457.36951   103.94869    29.210155    9.286663    3.163927]
bas 1, expnt(s) = [7.8682724 1.8812885 0.5442493]
bas 2, expnt(s) = [0.1687144]
bas 3, expnt(s) = [7.8682724 1.8812885 0.5442493]
bas 4, expnt(s) = [0.1687144]
bas 5, expnt(s) = [0.8]
bas 6, expnt(s) = [3047.5249    457.36951   103.94869    29.210155    9.286663    3.163927]
bas 7, expnt(s) = [7.8682724 1.8812885 0.5442493]
bas 8, expnt(s) = [0.1687144]
bas 9, expnt(s) = [7.8682724 1.8812885 0.5442493]
bas 10, expnt(s) = [0.1687144]
bas 11, expnt(s) = [0.8]
bas 12, expnt(s) = [18.731137   2.8253937  0.6401217]
bas 13, expnt(s) = [0.1612778]
bas 14, expnt(s) = [1.1]
bas 15, expnt(s) = [18.731137   2.8253937  0.6401217]
bas 16, expnt(s) = [0.1612778]
bas 17, expnt(s) = [1.1]
bas 18, expnt(s) = [18.731137   2.8253937  0.6401217]
bas 19, expnt(s) = [0.1612778]
bas 20, expnt(s) = [1.1]
bas 21, expnt(s) = [18.731137   2.8253937  0.6401217]
bas 22, expnt(s) = [0.1612778]
bas 23, expnt(s) = [1.1]
bas 24, expnt(s) = [18.731137   2.8253937  0.6401217]
bas 25, expnt(s) = [0.1612778]
bas 26, expnt(s) = [1.1]
bas 27, expnt(s) = [18.731137   2.8253937  0.6401217]
bas 28, expnt(s) = [0.1612778]
bas 29, expnt(s) = [1.1]
CPU time:         0.51
arg.atm = [[ 6 20  1 23  0  0]
 [ 6 24  1 27  0  0]
 [ 1 28  1 31  0  0]
 [ 1 32  1 35  0  0]
 [ 1 36  1 39  0  0]
 [ 1 40  1 43  0  0]
 [ 1 44  1 47  0  0]
 [ 1 48  1 51  0  0]]
arg.bas = [[  0   0   6   1   0  52  58   0]
 [  0   0   3   1   0  64  67   0]
 [  0   0   1   1   0  70  71   0]
 [  0   1   3   1   0  72  75   0]
 [  0   1   1   1   0  78  79   0]
 [  0   2   1   1   0  80  81   0]
 [  1   0   6   1   0 112 118   0]
 [  1   0   3   1   0 124 127   0]
 [  1   0   1   1   0 130 131   0]
 [  1   1   3   1   0 132 135   0]
 [  1   1   1   1   0 138 139   0]
 [  1   2   1   1   0 140 141   0]
 [  2   0   3   1   0  82  85   0]
 [  2   0   1   1   0  88  89   0]
 [  2   1   1   1   0  90  91   0]
 [  3   0   3   1   0 152 155   0]
 [  3   0   1   1   0 158 159   0]
 [  3   1   1   1   0 160 161   0]
 [  4   0   3   1   0 142 145   0]
 [  4   0   1   1   0 148 149   0]
 [  4   1   1   1   0 150 151   0]
 [  5   0   3   1   0 102 105   0]
 [  5   0   1   1   0 108 109   0]
 [  5   1   1   1   0 110 111   0]
 [  6   0   3   1   0  92  95   0]
 [  6   0   1   1   0  98  99   0]
 [  6   1   1   1   0 100 101   0]
 [  7   0   3   1   0 162 165   0]
 [  7   0   1   1   0 168 169   0]
 [  7   1   1   1   0 170 171   0]]
arg.env = [ 1.37036000e+02  0.00000000e+00  0.00000000e+00  0.00000000e+00
  0.00000000e+00  0.00000000e+00  0.00000000e+00  0.00000000e+00
  0.00000000e+00  0.00000000e+00  0.00000000e+00  0.00000000e+00
  0.00000000e+00  0.00000000e+00  0.00000000e+00  0.00000000e+00
  0.00000000e+00  0.00000000e+00  0.00000000e+00  0.00000000e+00
  0.00000000e+00  0.00000000e+00  1.43883747e+00  0.00000000e+00
  0.00000000e+00  0.00000000e+00 -1.43883747e+00  0.00000000e+00
  0.00000000e+00  1.91901688e+00  2.18716902e+00  0.00000000e+00
 -1.66182515e+00 -9.59413953e-01  2.18716902e+00  0.00000000e+00
  1.66182515e+00 -9.59413953e-01  2.18716902e+00  0.00000000e+00
  0.00000000e+00 -1.91901688e+00 -2.18716902e+00  0.00000000e+00
 -1.66182515e+00  9.59413953e-01 -2.18716902e+00  0.00000000e+00
  1.66182515e+00  9.59413953e-01 -2.18716902e+00  0.00000000e+00
  3.04752490e+03  4.57369510e+02  1.03948690e+02  2.92101550e+01
  9.28666300e+00  3.16392700e+00  1.90125588e+00  3.50751108e+00
  5.66221808e+00  7.37052623e+00  6.28928397e+00  2.17153894e+00
  7.86827240e+00  1.88128850e+00  5.44249300e-01 -1.41639039e+00
 -6.52813326e-01  1.83055623e+00  1.68714400e-01  6.65088040e-01
  7.86827240e+00  1.88128850e+00  5.44249300e-01  2.65263212e+00
  2.03386926e+00  1.01504332e+00  1.68714400e-01  3.15445679e-01
  8.00000000e-01  1.76578110e+00  1.87311370e+01  2.82539370e+00
  6.40121700e-01  7.61926220e-01  1.29237100e+00  1.47131900e+00
  1.61277800e-01  6.42977783e-01  1.10000000e+00  3.28643653e+00
  1.87311370e+01  2.82539370e+00  6.40121700e-01  7.61926220e-01
  1.29237100e+00  1.47131900e+00  1.61277800e-01  6.42977783e-01
  1.10000000e+00  3.28643653e+00  1.87311370e+01  2.82539370e+00
  6.40121700e-01  7.61926220e-01  1.29237100e+00  1.47131900e+00
  1.61277800e-01  6.42977783e-01  1.10000000e+00  3.28643653e+00
  3.04752490e+03  4.57369510e+02  1.03948690e+02  2.92101550e+01
  9.28666300e+00  3.16392700e+00  1.90125588e+00  3.50751108e+00
  5.66221808e+00  7.37052623e+00  6.28928397e+00  2.17153894e+00
  7.86827240e+00  1.88128850e+00  5.44249300e-01 -1.41639039e+00
 -6.52813326e-01  1.83055623e+00  1.68714400e-01  6.65088040e-01
  7.86827240e+00  1.88128850e+00  5.44249300e-01  2.65263212e+00
  2.03386926e+00  1.01504332e+00  1.68714400e-01  3.15445679e-01
  8.00000000e-01  1.76578110e+00  1.87311370e+01  2.82539370e+00
  6.40121700e-01  7.61926220e-01  1.29237100e+00  1.47131900e+00
  1.61277800e-01  6.42977783e-01  1.10000000e+00  3.28643653e+00
  1.87311370e+01  2.82539370e+00  6.40121700e-01  7.61926220e-01
  1.29237100e+00  1.47131900e+00  1.61277800e-01  6.42977783e-01
  1.10000000e+00  3.28643653e+00  1.87311370e+01  2.82539370e+00
  6.40121700e-01  7.61926220e-01  1.29237100e+00  1.47131900e+00
  1.61277800e-01  6.42977783e-01  1.10000000e+00  3.28643653e+00]
ecpbas  = []


******** <class 'pyscf.dft.rks.RKS'> ********
method = RKS-RHF
initial guess = minao
damping factor = 0
level shift factor = 0
DIIS = <class 'pyscf.scf.diis.CDIIS'>
DIIS start cycle = 1
DIIS space = 8
SCF tol = 1e-09
SCF gradient tol = None
max. SCF cycles = 50
direct_scf = True
direct_scf_tol = 1e-13
chkfile to save SCF result = /home/wsr/dftpart/test/tmpdebaqh68
max_memory 4000 MB (current use 57 MB)
XC functionals = m062x
small_rho_cutoff = 1e-07
radial grids: 
    Treutler-Ahlrichs (JCP 102, 346 (M4)) radial grids
    
becke partition: Becke, JCP, 88, 2547 (1988)
pruning grids: <function nwchem_prune at 0x2b8939be2378>
grids dens level: 3
symmetrized grids: False
atomic radii adjust function: <function treutler_atomic_radii_adjust at 0x2b8939be22f0>
atomic_radii : [0.         0.66140414 2.64561657 2.74010288 1.98421243 1.60626721
 1.32280829 1.22832198 1.13383567 0.94486306 2.83458919 3.40150702
 2.83458919 2.36215766 2.07869874 1.88972612 1.88972612 1.88972612
 3.40150702 4.15739747 3.40150702 3.0235618  2.64561657 2.55113027
 2.64561657 2.64561657 2.64561657 2.55113027 2.55113027 2.55113027
 2.55113027 2.45664396 2.36215766 2.17318504 2.17318504 2.17318504
 3.59047964 4.44085639 3.77945225 3.40150702 2.92907549 2.74010288
 2.74010288 2.55113027 2.45664396 2.55113027 2.64561657 3.0235618
 2.92907549 2.92907549 2.74010288 2.74010288 2.64561657 2.64561657
 3.96842486 4.91328792 4.06291117 3.68496594 3.49599333 3.49599333
 3.49599333 3.49599333 3.49599333 3.49599333 3.40150702 3.30702072
 3.30702072 3.30702072 3.30702072 3.30702072 3.30702072 3.30702072
 2.92907549 2.74010288 2.55113027 2.55113027 2.45664396 2.55113027
 2.55113027 2.55113027 2.83458919 3.59047964 3.40150702 3.0235618
 3.59047964 2.74010288 3.96842486 3.40150702 4.06291117 3.68496594
 3.40150702 3.40150702 3.30702072 3.30702072 3.30702072 3.30702072
 3.30702072 3.30702072 3.30702072 3.30702072 3.30702072 3.30702072
 3.30702072 3.30702072 3.30702072 3.30702072 3.30702072 3.30702072
 3.30702072 3.30702072 3.30702072 3.30702072 3.30702072 3.30702072
 3.30702072 3.30702072 3.30702072 3.30702072 3.30702072 3.30702072
 3.30702072 3.30702072 3.30702072 3.30702072 3.30702072 3.30702072
 3.30702072 3.30702072 3.30702072 3.30702072 3.30702072]
Set gradient conv threshold to 3.16228e-05
Nelec from initial guess = 17.986545608265992
cond(S) = 568.1783945831389
atom C1 rad-grids = 75, ang-grids = [ 50  50  50  50  50  50  50  50  50  50  50  50  50  50  50  50  50  50
  50  50  50  50  50  86  86  86  86  86  86  86  86  86  86 266 266 266
 266 266 266 266 302 302 302 302 302 302 302 302 302 302 302 302 302 302
 302 302 302 302 302 302 266 266 266 266 266 266 266 266 266 266 266 266
 266 266 266]
atom C2 rad-grids = 75, ang-grids = [ 50  50  50  50  50  50  50  50  50  50  50  50  50  50  50  50  50  50
  50  50  50  50  50  86  86  86  86  86  86  86  86  86  86 266 266 266
 266 266 266 266 302 302 302 302 302 302 302 302 302 302 302 302 302 302
 302 302 302 302 302 302 266 266 266 266 266 266 266 266 266 266 266 266
 266 266 266]
atom H3 rad-grids = 50, ang-grids = [ 50  50  50  50  50  50  50  50  50  50  50  50  50  50  86  86  86  86
 266 266 266 266 302 302 302 302 302 302 302 302 302 302 302 302 302 266
 266 266 266 266 266 266 266 266 266 266 266 266 266 266]
atom H4 rad-grids = 50, ang-grids = [ 50  50  50  50  50  50  50  50  50  50  50  50  50  50  86  86  86  86
 266 266 266 266 302 302 302 302 302 302 302 302 302 302 302 302 302 266
 266 266 266 266 266 266 266 266 266 266 266 266 266 266]
atom H5 rad-grids = 50, ang-grids = [ 50  50  50  50  50  50  50  50  50  50  50  50  50  50  86  86  86  86
 266 266 266 266 302 302 302 302 302 302 302 302 302 302 302 302 302 266
 266 266 266 266 266 266 266 266 266 266 266 266 266 266]
atom H6 rad-grids = 50, ang-grids = [ 50  50  50  50  50  50  50  50  50  50  50  50  50  50  86  86  86  86
 266 266 266 266 302 302 302 302 302 302 302 302 302 302 302 302 302 266
 266 266 266 266 266 266 266 266 266 266 266 266 266 266]
atom H7 rad-grids = 50, ang-grids = [ 50  50  50  50  50  50  50  50  50  50  50  50  50  50  86  86  86  86
 266 266 266 266 302 302 302 302 302 302 302 302 302 302 302 302 302 266
 266 266 266 266 266 266 266 266 266 266 266 266 266 266]
atom H8 rad-grids = 50, ang-grids = [ 50  50  50  50  50  50  50  50  50  50  50  50  50  50  86  86  86  86
 266 266 266 266 302 302 302 302 302 302 302 302 302 302 302 302 302 266
 266 266 266 266 266 266 266 266 266 266 266 266 266 266]
tot grids = 87948
Drop grids 14682
    CPU time for setting up grids      5.93 sec, wall time      0.13 sec
nelec by numeric integration = 17.98655391067519
    CPU time for vxc     36.92 sec, wall time      0.81 sec
 Exc = -6.182280211912932
 Exc = -12.909922246470005
E1 = -186.844336389199  Ecoul = 77.59311725737801  Exc = -12.909922246470005
init E= -79.8205858287216
    CPU time for initialize scf     45.26 sec, wall time      1.05 sec
  HOMO = -0.422428255961146  LUMO = 0.0695800610148614
  mo_energy =
[-10.7683902  -10.76700297  -1.15758775  -0.86836721  -0.55687746
  -0.55685963  -0.47935122  -0.42244654  -0.42242826   0.06958006
   0.11464827   0.12598249   0.12599987   0.15778146   0.15779999
   0.17271404   0.45994524   0.49857991   0.49860448   0.56679785
   0.56679889   0.59113415   0.82138794   0.82141049   0.83467908
   0.85224685   0.85226979   0.90174136   1.01250128   1.23903263
   1.23904082   1.38598932   1.60026135   1.60027797   1.76115477
   1.98072414   1.98078773   1.99687946   1.99755096   2.00135149
   2.00141837   2.20008231   2.20008797   2.23525336   2.39238445
   2.39241214   2.61019476   2.66307134   2.70323128   2.70325292
   2.80206038   2.80207625   3.02625614   3.11038082   3.24982569
   3.24992333   3.37395388   3.3740422 ]
nelec by numeric integration = 18.000003840150487
    CPU time for vxc     30.38 sec, wall time      0.65 sec
 Exc = -6.367812448015005
 Exc = -13.190725655340406
E1 = -191.04916239727018  Ecoul = 82.16291195890163  Exc = -13.190725655340406
cycle= 1 E= -79.7364205441395  delta_E= 0.0842  |g|= 0.397  |ddm|= 2.11
    CPU time for cycle= 1     31.09 sec, wall time      0.67 sec
diis-norm(errvec)=0.850282
diis-c [-0.72297916  1.        ]
  HOMO = -0.33346953435597  LUMO = 0.178126155242116
  mo_energy =
[-10.33577588 -10.33545259  -0.76520655  -0.63690104  -0.43862253
  -0.43861522  -0.34532813  -0.34532746  -0.33346953   0.17812616
   0.23450547   0.24811571   0.24812433   0.26829038   0.26829926
   0.33981547   0.61156602   0.63074796   0.63076288   0.72047945
   0.72048816   0.82667499   0.99067528   0.99070148   1.00025818
   1.01405395   1.01408011   1.07327649   1.16994662   1.46010317
   1.46020604   1.51885283   1.79611304   1.79617676   2.00887013
   2.13055548   2.13110567   2.18126773   2.18128614   2.19685421
   2.19689483   2.33995774   2.34002433   2.43392564   2.55788898
   2.55806692   2.74995095   2.84654745   2.87181758   2.8718558
   2.98504825   2.98520106   3.20353849   3.30450102   3.46395345
   3.46398769   3.59224843   3.59244381]
nelec by numeric integration = 18.00000363847482
    CPU time for vxc     29.96 sec, wall time      0.64 sec
 Exc = -6.234087952580746
 Exc = -12.922523062281162
E1 = -188.02553451388425  Ecoul = 78.85873080763159  Exc = -12.922523062281162
cycle= 2 E= -79.7487712189644  delta_E= -0.0124  |g|= 0.332  |ddm|= 0.547
    CPU time for cycle= 2     30.97 sec, wall time      0.67 sec
diis-norm(errvec)=0.723449
diis-c [-0.01398873  0.45876536  0.54123464]
  HOMO = -0.399851151985061  LUMO = 0.150843787938266
  mo_energy =
[-10.52668465 -10.52638714  -0.84766758  -0.69814152  -0.50002417
  -0.5000214   -0.42476048  -0.39985518  -0.39985115   0.15084379
   0.2065093    0.21236581   0.21237613   0.23621716   0.236229
   0.28866139   0.55569532   0.58361047   0.5836293    0.66703942
   0.66704859   0.73186915   0.93248062   0.93249976   0.96254643
   0.96403108   0.96404701   1.03158759   1.11552452   1.38872095
   1.38879016   1.48000849   1.73968846   1.73974257   1.92095774
   2.10661372   2.10717725   2.12535259   2.12539074   2.14565949
   2.14568841   2.31011608   2.31018399   2.37782225   2.51128112
   2.51143554   2.71702408   2.79044304   2.82262283   2.82269267
   2.9273788    2.92747571   3.14584505   3.23964616   3.39414961
   3.39419263   3.52042935   3.52056608]
nelec by numeric integration = 18.000003384419646
    CPU time for vxc     30.89 sec, wall time      0.66 sec
 Exc = -6.298225430085598
 Exc = -13.052034618368742
E1 = -189.47269985096642  Ecoul = 80.4067069487879  Exc = -13.052034618368742
cycle= 3 E= -79.7774719709778  delta_E= -0.0287  |g|= 0.00892  |ddm|= 0.252
    CPU time for cycle= 3     31.44 sec, wall time      0.67 sec
diis-norm(errvec)=0.0216946
diis-c [-1.99249240e-04 -2.78061223e-02 -9.66439274e-03  1.03747052e+00]
  HOMO = -0.399537632733895  LUMO = 0.151615172810643
  mo_energy =
[-10.52653853 -10.52623701  -0.84613559  -0.69787749  -0.49929927
  -0.49929571  -0.42425684  -0.39954213  -0.39953763   0.15161517
   0.20758406   0.21366753   0.21367598   0.23730839   0.23731973
   0.28942807   0.55647307   0.58501373   0.58503277   0.66817917
   0.66818445   0.73361795   0.93419894   0.93422891   0.96384767
   0.96573629   0.96575957   1.03291384   1.11687356   1.39055087
   1.3906205    1.48191249   1.74124584   1.74128033   1.92241827
   2.10838357   2.10894557   2.12727898   2.12731645   2.14746784
   2.14748065   2.31207054   2.31213133   2.3803685    2.513259
   2.51341557   2.71895601   2.79300032   2.82506545   2.8251471
   2.93000829   2.93010904   3.14722984   3.24133707   3.39486763
   3.3948939    3.52113012   3.52131479]
nelec by numeric integration = 18.000003324124453
    CPU time for vxc     30.21 sec, wall time      0.65 sec
 Exc = -6.297849472664991
 Exc = -13.0513808674108
E1 = -189.45486688878046  Ecoul = 80.38819548410355  Exc = -13.0513808674108
cycle= 4 E= -79.7774967225183  delta_E= -2.48e-05  |g|= 0.0019  |ddm|= 0.00938
    CPU time for cycle= 4     30.90 sec, wall time      0.66 sec
diis-norm(errvec)=0.00423918
diis-c [-2.42374071e-06 -1.19934219e-02 -7.45622794e-03  1.52394828e-01
  8.67054822e-01]
  HOMO = -0.399322958502296  LUMO = 0.151739269573013
  mo_energy =
[-10.52549538 -10.52519256  -0.84597726  -0.6974593   -0.49912055
  -0.49911685  -0.4241251   -0.39932737  -0.39932296   0.15173927
   0.20775347   0.21373834   0.21374714   0.23737113   0.23738273
   0.289738     0.55666743   0.58510272   0.58512167   0.66839913
   0.66840414   0.73404393   0.93436709   0.93439657   0.96415827
   0.96591125   0.96593388   1.03324579   1.11698123   1.39084073
   1.39091038   1.48201706   1.74145889   1.74149397   1.922733
   2.10853785   2.10909955   2.12754922   2.12758706   2.14769896
   2.1477118    2.3122436    2.31230592   2.38080137   2.51345199
   2.51360976   2.71916755   2.79349392   2.82528944   2.82537093
   2.93022547   2.93032786   3.14755809   3.24176703   3.39522801
   3.39525596   3.52143823   3.52162227]
nelec by numeric integration = 18.000003319747186
    CPU time for vxc     28.77 sec, wall time      0.62 sec
 Exc = -6.297542868223335
 Exc = -13.050759654826962
E1 = -189.4491503053058  Ecoul = 80.38185672195677  Exc = -13.050759654826962
cycle= 5 E= -79.7774976886066  delta_E= -9.66e-07  |g|= 0.000188  |ddm|= 0.00187
    CPU time for cycle= 5     29.49 sec, wall time      0.63 sec
diis-norm(errvec)=0.000389974
diis-c [-4.30706019e-08  2.29077072e-04  3.87623083e-04 -1.29856905e-02
  2.64609570e-02  9.85908033e-01]
  HOMO = -0.399341491076809  LUMO = 0.151716877565597
  mo_energy =
[-10.52542479 -10.52512179  -0.84597857  -0.69747583  -0.49913093
  -0.49912723  -0.42413959  -0.39934591  -0.39934149   0.15171688
   0.20773712   0.21371964   0.2137285    0.23734831   0.23735995
   0.28972835   0.55664925   0.58507996   0.58509894   0.66838234
   0.66838736   0.73406892   0.93435376   0.93438315   0.96411891
   0.96588092   0.96590344   1.03321751   1.11696648   1.3908248
   1.39089452   1.48198258   1.74142877   1.74146407   1.92272969
   2.10849282   2.10905451   2.12753146   2.12756931   2.14767232
   2.14768524   2.31220541   2.31226778   2.38081399   2.51342392
   2.51358161   2.71912682   2.79348235   2.82525267   2.82533397
   2.93019458   2.93029692   3.14752393   3.24175493   3.39521378
   3.39524175   3.52142577   3.52160936]
nelec by numeric integration = 18.000003318881287
    CPU time for vxc     28.84 sec, wall time      0.61 sec
 Exc = -6.297521659827097
 Exc = -13.050718871812464
E1 = -189.44861052141513  Ecoul = 80.38127614500475  Exc = -13.050718871812464
cycle= 6 E= -79.7774976986534  delta_E= -1e-08  |g|= 2.62e-05  |ddm|= 0.000217
    CPU time for cycle= 6     29.43 sec, wall time      0.63 sec
diis-norm(errvec)=5.31808e-05
diis-c [-1.97956912e-10  7.19593771e-05 -5.27266442e-05 -7.10367853e-04
 -6.32154859e-03 -1.02096990e-01  1.10910967e+00]
  HOMO = -0.399345580278892  LUMO = 0.151714665502084
  mo_energy =
[-10.52544228 -10.52513928  -0.84598446  -0.69748063  -0.49913485
  -0.49913116  -0.42414868  -0.39935001  -0.39934558   0.15171467
   0.20773513   0.21371757   0.21372642   0.237346     0.23735763
   0.28972516   0.55664403   0.58507729   0.58509628   0.6683787
   0.66838371   0.73406361   0.93435022   0.93437961   0.96411594
   0.9658777    0.96590023   1.03321415   1.11696364   1.39082106
   1.39089077   1.48198123   1.74142486   1.74146015   1.92272371
   2.10849132   2.10905302   2.12752758   2.12756543   2.1476685
   2.14768142   2.31220374   2.31226609   2.38081345   2.51342091
   2.51357858   2.71912455   2.79348128   2.82524976   2.82533108
   2.93019089   2.93029322   3.14751855   3.24175097   3.39520853
   3.39523652   3.52142011   3.52160368]
nelec by numeric integration = 18.000003318680378
    CPU time for vxc     28.35 sec, wall time      0.61 sec
 Exc = -6.297525541236253
 Exc = -13.050726986084657
E1 = -189.44869388322473  Ecoul = 80.38136762084993  Exc = -13.050726986084657
cycle= 7 E= -79.77749769889  delta_E= -2.37e-10  |g|= 1.14e-06  |ddm|= 3.65e-05
    CPU time for cycle= 7     28.97 sec, wall time      0.62 sec
  HOMO = -0.399345506162914  LUMO = 0.151714684260825
  mo_energy =
[-10.52544166 -10.52513866  -0.84598433  -0.69748064  -0.49913471
  -0.49913102  -0.42414841  -0.39934994  -0.39934551   0.15171468
   0.20773517   0.21371769   0.21372655   0.23734606   0.23735769
   0.28972535   0.55664415   0.58507735   0.58509634   0.6683788
   0.66838382   0.73406395   0.93435037   0.93437976   0.96411597
   0.9658778    0.96590032   1.0332142    1.11696376   1.39082126
   1.39089097   1.48198128   1.74142495   1.74146024   1.92272393
   2.10849131   2.10905301   2.12752768   2.12756553   2.14766853
   2.14768145   2.31220376   2.31226612   2.38081374   2.51342101
   2.51357868   2.71912455   2.79348143   2.82524984   2.82533116
   2.93019106   2.93029339   3.14751861   3.24175112   3.3952086
   3.39523659   3.5214202    3.52160376]
nelec by numeric integration = 18.000003318670572
    CPU time for vxc     28.78 sec, wall time      0.62 sec
 Exc = -6.297525415302633
 Exc = -13.05072676629447
E1 = -189.4486901165836  Ecoul = 80.381363634418  Exc = -13.05072676629447
Extra cycle  E= -79.7774976988907  delta_E= -6.25e-13  |g|= 4.91e-07  |ddm|= 2.66e-06
    CPU time for scf_cycle    286.88 sec, wall time      6.22 sec
    CPU time for SCF    286.89 sec, wall time      6.23 sec
converged SCF energy = -79.7774976988907
atom C1 rad-grids = 75, ang-grids = [ 50  50  50  50  50  50  50  50  50  50  50  50  50  50  50  50  50  50
  50  50  50  50  50  86  86  86  86  86  86  86  86  86  86 266 266 266
 266 266 266 266 302 302 302 302 302 302 302 302 302 302 302 302 302 302
 302 302 302 302 302 302 266 266 266 266 266 266 266 266 266 266 266 266
 266 266 266]
atom C2 rad-grids = 75, ang-grids = [ 50  50  50  50  50  50  50  50  50  50  50  50  50  50  50  50  50  50
  50  50  50  50  50  86  86  86  86  86  86  86  86  86  86 266 266 266
 266 266 266 266 302 302 302 302 302 302 302 302 302 302 302 302 302 302
 302 302 302 302 302 302 266 266 266 266 266 266 266 266 266 266 266 266
 266 266 266]
atom H3 rad-grids = 50, ang-grids = [ 50  50  50  50  50  50  50  50  50  50  50  50  50  50  86  86  86  86
 266 266 266 266 302 302 302 302 302 302 302 302 302 302 302 302 302 266
 266 266 266 266 266 266 266 266 266 266 266 266 266 266]
atom H4 rad-grids = 50, ang-grids = [ 50  50  50  50  50  50  50  50  50  50  50  50  50  50  86  86  86  86
 266 266 266 266 302 302 302 302 302 302 302 302 302 302 302 302 302 266
 266 266 266 266 266 266 266 266 266 266 266 266 266 266]
atom H5 rad-grids = 50, ang-grids = [ 50  50  50  50  50  50  50  50  50  50  50  50  50  50  86  86  86  86
 266 266 266 266 302 302 302 302 302 302 302 302 302 302 302 302 302 266
 266 266 266 266 266 266 266 266 266 266 266 266 266 266]
atom H6 rad-grids = 50, ang-grids = [ 50  50  50  50  50  50  50  50  50  50  50  50  50  50  86  86  86  86
 266 266 266 266 302 302 302 302 302 302 302 302 302 302 302 302 302 266
 266 266 266 266 266 266 266 266 266 266 266 266 266 266]
atom H7 rad-grids = 50, ang-grids = [ 50  50  50  50  50  50  50  50  50  50  50  50  50  50  86  86  86  86
 266 266 266 266 302 302 302 302 302 302 302 302 302 302 302 302 302 266
 266 266 266 266 266 266 266 266 266 266 266 266 266 266]
atom H8 rad-grids = 50, ang-grids = [ 50  50  50  50  50  50  50  50  50  50  50  50  50  50  86  86  86  86
 266 266 266 266 302 302 302 302 302 302 302 302 302 302 302 302 302 266
 266 266 266 266 266 266 266 266 266 266 266 266 266 266]
tot grids = 87948
