#INFO: **** input file is /home/wsr/dftpart/test_c6h12.py ****
from pyscf import gto,dft
import numpy as np
#import gen_grid_sep
#import numint_sep
import xceda
import os
import time

name = 'C6H12'

#baslist = ['6-31+gss','6-31++gss','def2dzvp','def2tzvp','cc-pvdz','cc-pvtz','aug-cc-pvtz']
#xclist = [] 

mol = gto.Mole()
mol.atom = ''' C                 -2.86831901   -0.79141989    0.00000000
 C                 -1.35321301   -0.79141989    0.00000000
 C                 -0.80128201    0.61965811    0.00000000
 C                 -1.35094501    1.42419511    1.16066100
 C                 -2.86607001    1.42485611    1.16017200
 C                 -3.41887001    0.01423511    1.15887600
 H                  0.31731699    0.58566711    0.06271400
 H                 -0.98066401   -1.33705389    0.90656200
 H                 -0.97791901   -1.34127889   -0.90191000
 H                 -3.24100701   -0.35839089   -0.96538500
 H                 -3.24391601   -1.84563989    0.06350200
 H                 -0.97841001    0.98935011    2.12527200
 H                 -0.97492201    2.47833211    1.09866600
 H                 -3.24139001    1.97428411    2.06228600
 H                 -3.23792501    1.97145711    0.25384900
 H                 -3.15286601   -0.49148689    2.12419100
 H                 -4.53741801    0.04929611    1.09393800
 H                 -1.06990001    1.12529111   -0.96454600'''
mol.basis = '6-31gss'
mol.output = name+'-pyscf.log'
mol.verbose = 9
mol.max_memory = 20000
mol.build()

t1 = time.time()
ks = dft.RKS(mol)
ks.xc = 'b3lyp'
#ks.grids = gen_grid_sep.Grids(ks.mol)
ks.kernel()

t2 = time.time()
#dm = ks.make_rdm1()
os.system("echo '' > %s" % (name+'-xceda.log'))

atom_exc, dexc = xceda.analysis(ks)
os.system("echo \"E_xc of C: %.10f\n\" >> %s" % (np.mean(atom_exc[0:6]), name+'-xceda.log'))
os.system("echo \"E_xc of H: %.10f\n\" >> %s" % (np.mean(atom_exc[6:18]), name+'-xceda.log'))
t3 = time.time()
print(t2-t1, t3-t2)

#INFO: ******************** input file end ********************


System: uname_result(system='Linux', node='lw06', release='3.10.0-957.el7.x86_64', version='#1 SMP Thu Nov 8 23:39:32 UTC 2018', machine='x86_64', processor='x86_64')  Threads 48
Python 3.7.3 (default, Mar 27 2019, 22:11:17) 
[GCC 7.3.0]
numpy 1.16.2  scipy 1.2.1
Date: Sat Jun 29 17:21:26 2019
PySCF version 1.6.2
PySCF path  /home/wsr/pyscf

[CONFIG] DEBUG = False
[CONFIG] MAX_MEMORY = 4000
[CONFIG] TMPDIR = .
[CONFIG] UNIT = angstrom
[CONFIG] VERBOSE = 3
[CONFIG] conf_file = None
[INPUT] verbose = 9
[INPUT] max_memory = 20000 
[INPUT] num. atoms = 18
[INPUT] num. electrons = 48
[INPUT] charge = 0
[INPUT] spin (= nelec alpha-beta = 2S) = 0
[INPUT] symmetry False subgroup None
[INPUT] Mole.unit = angstrom
[INPUT]  1 C     -2.868319010000  -0.791419890000   0.000000000000 AA   -5.420337366784  -1.495566841633   0.000000000000 Bohr
[INPUT]  2 C     -1.353213010000  -0.791419890000   0.000000000000 AA   -2.557201977098  -1.495566841633   0.000000000000 Bohr
[INPUT]  3 C     -0.801282010000   0.619658110000   0.000000000000 AA   -1.514203547441   1.170984118766   0.000000000000 Bohr
[INPUT]  4 C     -1.350945010000   1.424195110000   1.160661000000 AA   -2.552916078248   2.691338705845   2.193331413464 Bohr
[INPUT]  5 C     -2.866070010000   1.424856110000   1.160172000000 AA   -5.416087372729   2.692587814813   2.192407337389 Bohr
[INPUT]  6 C     -3.418870010000   0.014235110000   1.158876000000 AA   -6.460727974389   0.026900459253   2.189958252331 Bohr
[INPUT]  7 H      0.317316990000   0.585667110000   0.062714000000 AA    0.599642205771   1.106750438066   0.118512284176 Bohr
[INPUT]  8 H     -0.980664010000  -1.337053890000   0.906562000000 AA   -1.853186399118  -2.526665665884   1.713153894938 Bohr
[INPUT]  9 H     -0.977919010000  -1.341278890000  -0.901910000000 AA   -1.847999100906  -2.534649758761  -1.704362889006 Bohr
[INPUT] 10 H     -3.241007010000  -0.358390890000  -0.965385000000 AA   -6.124615616695  -0.677260627639  -1.824313254763 Bohr
[INPUT] 11 H     -3.243916010000  -1.845639890000   0.063502000000 AA   -6.130112829992  -3.487753916672   0.120001388362 Bohr
[INPUT] 12 H     -0.978410010000   0.989350110000   2.125272000000 AA   -1.848926956433   1.869600749208   4.016182020207 Bohr
[INPUT] 13 H     -0.974922010000   2.478332110000   1.098666000000 AA   -1.842335591710   4.683368933615   2.076177842371 Bohr
[INPUT] 14 H     -3.241390010000   1.974284110000   2.062286000000 AA   -6.125339381801   3.730856259981   3.897155730525 Bohr
[INPUT] 15 H     -3.237925010000   1.971457110000   0.253849000000 AA   -6.118791480780   3.725514004227   0.479705086995 Bohr
[INPUT] 16 H     -3.152866010000  -0.491486890000   2.124191000000 AA   -5.958053266350  -0.928775615914   4.014139226266 Bohr
[INPUT] 17 H     -4.537418010000   0.049296110000   1.093938000000 AA   -8.574477351569   0.093156146906   2.067243217254 Bohr
[INPUT] 18 H     -1.069900010000   1.125291110000  -0.964546000000 AA   -2.021817999569   2.126492008308  -1.822727774545 Bohr
[INPUT] ---------------- BASIS SET ---------------- 
[INPUT] l, kappa, [nprim/nctr], expnt,             c_1 c_2 ...
[INPUT] H
[INPUT] 0    0    [3    /1   ]  18.731137         0.0334946
                                2.8253937         0.23472695
                                0.6401217         0.81375733
[INPUT] 0    0    [1    /1   ]  0.1612778            1
[INPUT] 1    0    [1    /1   ]  1.1                  1
[INPUT] C
[INPUT] 0    0    [6    /1   ]  3047.5249         0.0018347
                                457.36951         0.0140373
                                103.94869         0.0688426
                                29.210155         0.2321844
                                9.286663          0.4679413
                                3.163927          0.362312
[INPUT] 0    0    [3    /1   ]  7.8682724         -0.1193324
                                1.8812885         -0.1608542
                                0.5442493         1.1434564
[INPUT] 0    0    [1    /1   ]  0.1687144            1
[INPUT] 1    0    [3    /1   ]  7.8682724         0.0689991
                                1.8812885         0.316424
                                0.5442493         0.7443083
[INPUT] 1    0    [1    /1   ]  0.1687144            1
[INPUT] 2    0    [1    /1   ]  0.8                  1

nuclear repulsion = 256.641538356815
number of shells = 72
number of NR pGTOs = 246
number of NR cGTOs = 144
basis = 6-31gss
ecp = {}
bas 0, expnt(s) = [3047.5249    457.36951   103.94869    29.210155    9.286663    3.163927]
bas 1, expnt(s) = [7.8682724 1.8812885 0.5442493]
bas 2, expnt(s) = [0.1687144]
bas 3, expnt(s) = [7.8682724 1.8812885 0.5442493]
bas 4, expnt(s) = [0.1687144]
bas 5, expnt(s) = [0.8]
bas 6, expnt(s) = [3047.5249    457.36951   103.94869    29.210155    9.286663    3.163927]
bas 7, expnt(s) = [7.8682724 1.8812885 0.5442493]
bas 8, expnt(s) = [0.1687144]
bas 9, expnt(s) = [7.8682724 1.8812885 0.5442493]
bas 10, expnt(s) = [0.1687144]
bas 11, expnt(s) = [0.8]
bas 12, expnt(s) = [3047.5249    457.36951   103.94869    29.210155    9.286663    3.163927]
bas 13, expnt(s) = [7.8682724 1.8812885 0.5442493]
bas 14, expnt(s) = [0.1687144]
bas 15, expnt(s) = [7.8682724 1.8812885 0.5442493]
bas 16, expnt(s) = [0.1687144]
bas 17, expnt(s) = [0.8]
bas 18, expnt(s) = [3047.5249    457.36951   103.94869    29.210155    9.286663    3.163927]
bas 19, expnt(s) = [7.8682724 1.8812885 0.5442493]
bas 20, expnt(s) = [0.1687144]
bas 21, expnt(s) = [7.8682724 1.8812885 0.5442493]
bas 22, expnt(s) = [0.1687144]
bas 23, expnt(s) = [0.8]
bas 24, expnt(s) = [3047.5249    457.36951   103.94869    29.210155    9.286663    3.163927]
bas 25, expnt(s) = [7.8682724 1.8812885 0.5442493]
bas 26, expnt(s) = [0.1687144]
bas 27, expnt(s) = [7.8682724 1.8812885 0.5442493]
bas 28, expnt(s) = [0.1687144]
bas 29, expnt(s) = [0.8]
bas 30, expnt(s) = [3047.5249    457.36951   103.94869    29.210155    9.286663    3.163927]
bas 31, expnt(s) = [7.8682724 1.8812885 0.5442493]
bas 32, expnt(s) = [0.1687144]
bas 33, expnt(s) = [7.8682724 1.8812885 0.5442493]
bas 34, expnt(s) = [0.1687144]
bas 35, expnt(s) = [0.8]
bas 36, expnt(s) = [18.731137   2.8253937  0.6401217]
bas 37, expnt(s) = [0.1612778]
bas 38, expnt(s) = [1.1]
bas 39, expnt(s) = [18.731137   2.8253937  0.6401217]
bas 40, expnt(s) = [0.1612778]
bas 41, expnt(s) = [1.1]
bas 42, expnt(s) = [18.731137   2.8253937  0.6401217]
bas 43, expnt(s) = [0.1612778]
bas 44, expnt(s) = [1.1]
bas 45, expnt(s) = [18.731137   2.8253937  0.6401217]
bas 46, expnt(s) = [0.1612778]
bas 47, expnt(s) = [1.1]
bas 48, expnt(s) = [18.731137   2.8253937  0.6401217]
bas 49, expnt(s) = [0.1612778]
bas 50, expnt(s) = [1.1]
bas 51, expnt(s) = [18.731137   2.8253937  0.6401217]
bas 52, expnt(s) = [0.1612778]
bas 53, expnt(s) = [1.1]
bas 54, expnt(s) = [18.731137   2.8253937  0.6401217]
bas 55, expnt(s) = [0.1612778]
bas 56, expnt(s) = [1.1]
bas 57, expnt(s) = [18.731137   2.8253937  0.6401217]
bas 58, expnt(s) = [0.1612778]
bas 59, expnt(s) = [1.1]
bas 60, expnt(s) = [18.731137   2.8253937  0.6401217]
bas 61, expnt(s) = [0.1612778]
bas 62, expnt(s) = [1.1]
bas 63, expnt(s) = [18.731137   2.8253937  0.6401217]
bas 64, expnt(s) = [0.1612778]
bas 65, expnt(s) = [1.1]
bas 66, expnt(s) = [18.731137   2.8253937  0.6401217]
bas 67, expnt(s) = [0.1612778]
bas 68, expnt(s) = [1.1]
bas 69, expnt(s) = [18.731137   2.8253937  0.6401217]
bas 70, expnt(s) = [0.1612778]
bas 71, expnt(s) = [1.1]
CPU time:         0.47
arg.atm = [[ 6 20  1 23  0  0]
 [ 6 24  1 27  0  0]
 [ 6 28  1 31  0  0]
 [ 6 32  1 35  0  0]
 [ 6 36  1 39  0  0]
 [ 6 40  1 43  0  0]
 [ 1 44  1 47  0  0]
 [ 1 48  1 51  0  0]
 [ 1 52  1 55  0  0]
 [ 1 56  1 59  0  0]
 [ 1 60  1 63  0  0]
 [ 1 64  1 67  0  0]
 [ 1 68  1 71  0  0]
 [ 1 72  1 75  0  0]
 [ 1 76  1 79  0  0]
 [ 1 80  1 83  0  0]
 [ 1 84  1 87  0  0]
 [ 1 88  1 91  0  0]]
arg.bas = [[  0   0   6   1   0 102 108   0]
 [  0   0   3   1   0 114 117   0]
 [  0   0   1   1   0 120 121   0]
 [  0   1   3   1   0 122 125   0]
 [  0   1   1   1   0 128 129   0]
 [  0   2   1   1   0 130 131   0]
 [  1   0   6   1   0 102 108   0]
 [  1   0   3   1   0 114 117   0]
 [  1   0   1   1   0 120 121   0]
 [  1   1   3   1   0 122 125   0]
 [  1   1   1   1   0 128 129   0]
 [  1   2   1   1   0 130 131   0]
 [  2   0   6   1   0 102 108   0]
 [  2   0   3   1   0 114 117   0]
 [  2   0   1   1   0 120 121   0]
 [  2   1   3   1   0 122 125   0]
 [  2   1   1   1   0 128 129   0]
 [  2   2   1   1   0 130 131   0]
 [  3   0   6   1   0 102 108   0]
 [  3   0   3   1   0 114 117   0]
 [  3   0   1   1   0 120 121   0]
 [  3   1   3   1   0 122 125   0]
 [  3   1   1   1   0 128 129   0]
 [  3   2   1   1   0 130 131   0]
 [  4   0   6   1   0 102 108   0]
 [  4   0   3   1   0 114 117   0]
 [  4   0   1   1   0 120 121   0]
 [  4   1   3   1   0 122 125   0]
 [  4   1   1   1   0 128 129   0]
 [  4   2   1   1   0 130 131   0]
 [  5   0   6   1   0 102 108   0]
 [  5   0   3   1   0 114 117   0]
 [  5   0   1   1   0 120 121   0]
 [  5   1   3   1   0 122 125   0]
 [  5   1   1   1   0 128 129   0]
 [  5   2   1   1   0 130 131   0]
 [  6   0   3   1   0  92  95   0]
 [  6   0   1   1   0  98  99   0]
 [  6   1   1   1   0 100 101   0]
 [  7   0   3   1   0  92  95   0]
 [  7   0   1   1   0  98  99   0]
 [  7   1   1   1   0 100 101   0]
 [  8   0   3   1   0  92  95   0]
 [  8   0   1   1   0  98  99   0]
 [  8   1   1   1   0 100 101   0]
 [  9   0   3   1   0  92  95   0]
 [  9   0   1   1   0  98  99   0]
 [  9   1   1   1   0 100 101   0]
 [ 10   0   3   1   0  92  95   0]
 [ 10   0   1   1   0  98  99   0]
 [ 10   1   1   1   0 100 101   0]
 [ 11   0   3   1   0  92  95   0]
 [ 11   0   1   1   0  98  99   0]
 [ 11   1   1   1   0 100 101   0]
 [ 12   0   3   1   0  92  95   0]
 [ 12   0   1   1   0  98  99   0]
 [ 12   1   1   1   0 100 101   0]
 [ 13   0   3   1   0  92  95   0]
 [ 13   0   1   1   0  98  99   0]
 [ 13   1   1   1   0 100 101   0]
 [ 14   0   3   1   0  92  95   0]
 [ 14   0   1   1   0  98  99   0]
 [ 14   1   1   1   0 100 101   0]
 [ 15   0   3   1   0  92  95   0]
 [ 15   0   1   1   0  98  99   0]
 [ 15   1   1   1   0 100 101   0]
 [ 16   0   3   1   0  92  95   0]
 [ 16   0   1   1   0  98  99   0]
 [ 16   1   1   1   0 100 101   0]
 [ 17   0   3   1   0  92  95   0]
 [ 17   0   1   1   0  98  99   0]
 [ 17   1   1   1   0 100 101   0]]
arg.env = [ 1.37036000e+02  0.00000000e+00  0.00000000e+00  0.00000000e+00
  0.00000000e+00  0.00000000e+00  0.00000000e+00  0.00000000e+00
  0.00000000e+00  0.00000000e+00  0.00000000e+00  0.00000000e+00
  0.00000000e+00  0.00000000e+00  0.00000000e+00  0.00000000e+00
  0.00000000e+00  0.00000000e+00  0.00000000e+00  0.00000000e+00
 -5.42033737e+00 -1.49556684e+00  0.00000000e+00  0.00000000e+00
 -2.55720198e+00 -1.49556684e+00  0.00000000e+00  0.00000000e+00
 -1.51420355e+00  1.17098412e+00  0.00000000e+00  0.00000000e+00
 -2.55291608e+00  2.69133871e+00  2.19333141e+00  0.00000000e+00
 -5.41608737e+00  2.69258781e+00  2.19240734e+00  0.00000000e+00
 -6.46072797e+00  2.69004593e-02  2.18995825e+00  0.00000000e+00
  5.99642206e-01  1.10675044e+00  1.18512284e-01  0.00000000e+00
 -1.85318640e+00 -2.52666567e+00  1.71315389e+00  0.00000000e+00
 -1.84799910e+00 -2.53464976e+00 -1.70436289e+00  0.00000000e+00
 -6.12461562e+00 -6.77260628e-01 -1.82431325e+00  0.00000000e+00
 -6.13011283e+00 -3.48775392e+00  1.20001388e-01  0.00000000e+00
 -1.84892696e+00  1.86960075e+00  4.01618202e+00  0.00000000e+00
 -1.84233559e+00  4.68336893e+00  2.07617784e+00  0.00000000e+00
 -6.12533938e+00  3.73085626e+00  3.89715573e+00  0.00000000e+00
 -6.11879148e+00  3.72551400e+00  4.79705087e-01  0.00000000e+00
 -5.95805327e+00 -9.28775616e-01  4.01413923e+00  0.00000000e+00
 -8.57447735e+00  9.31561469e-02  2.06724322e+00  0.00000000e+00
 -2.02181800e+00  2.12649201e+00 -1.82272777e+00  0.00000000e+00
  1.87311370e+01  2.82539370e+00  6.40121700e-01  7.61926220e-01
  1.29237100e+00  1.47131900e+00  1.61277800e-01  6.42977783e-01
  1.10000000e+00  3.28643653e+00  3.04752490e+03  4.57369510e+02
  1.03948690e+02  2.92101550e+01  9.28666300e+00  3.16392700e+00
  1.90125588e+00  3.50751108e+00  5.66221808e+00  7.37052623e+00
  6.28928397e+00  2.17153894e+00  7.86827240e+00  1.88128850e+00
  5.44249300e-01 -1.41639039e+00 -6.52813326e-01  1.83055623e+00
  1.68714400e-01  6.65088040e-01  7.86827240e+00  1.88128850e+00
  5.44249300e-01  2.65263212e+00  2.03386926e+00  1.01504332e+00
  1.68714400e-01  3.15445679e-01  8.00000000e-01  1.76578110e+00]
ecpbas  = []


******** <class 'pyscf.dft.rks.RKS'> ********
method = RKS-RHF
initial guess = minao
damping factor = 0
level shift factor = 0
DIIS = <class 'pyscf.scf.diis.CDIIS'>
DIIS start cycle = 1
DIIS space = 8
SCF tol = 1e-09
SCF gradient tol = None
max. SCF cycles = 50
direct_scf = True
direct_scf_tol = 1e-13
chkfile to save SCF result = /home/wsr/dftpart/tmp1ec0b2kx
max_memory 20000 MB (current use 56 MB)
XC functionals = b3lyp
small_rho_cutoff = 1e-07
radial grids: 
    Treutler-Ahlrichs (JCP 102, 346 (M4)) radial grids
    
becke partition: Becke, JCP, 88, 2547 (1988)
pruning grids: <function nwchem_prune at 0x2b77e06b12f0>
grids dens level: 3
symmetrized grids: False
atomic radii adjust function: <function treutler_atomic_radii_adjust at 0x2b77e06b1268>
atomic_radii : [0.         0.66140414 2.64561657 2.74010288 1.98421243 1.60626721
 1.32280829 1.22832198 1.13383567 0.94486306 2.83458919 3.40150702
 2.83458919 2.36215766 2.07869874 1.88972612 1.88972612 1.88972612
 3.40150702 4.15739747 3.40150702 3.0235618  2.64561657 2.55113027
 2.64561657 2.64561657 2.64561657 2.55113027 2.55113027 2.55113027
 2.55113027 2.45664396 2.36215766 2.17318504 2.17318504 2.17318504
 3.59047964 4.44085639 3.77945225 3.40150702 2.92907549 2.74010288
 2.74010288 2.55113027 2.45664396 2.55113027 2.64561657 3.0235618
 2.92907549 2.92907549 2.74010288 2.74010288 2.64561657 2.64561657
 3.96842486 4.91328792 4.06291117 3.68496594 3.49599333 3.49599333
 3.49599333 3.49599333 3.49599333 3.49599333 3.40150702 3.30702072
 3.30702072 3.30702072 3.30702072 3.30702072 3.30702072 3.30702072
 2.92907549 2.74010288 2.55113027 2.55113027 2.45664396 2.55113027
 2.55113027 2.55113027 2.83458919 3.59047964 3.40150702 3.0235618
 3.59047964 2.74010288 3.96842486 3.40150702 4.06291117 3.68496594
 3.40150702 3.40150702 3.30702072 3.30702072 3.30702072 3.30702072
 3.30702072 3.30702072 3.30702072 3.30702072 3.30702072 3.30702072
 3.30702072 3.30702072 3.30702072 3.30702072 3.30702072 3.30702072
 3.30702072 3.30702072 3.30702072 3.30702072 3.30702072 3.30702072
 3.30702072 3.30702072 3.30702072 3.30702072 3.30702072 3.30702072
 3.30702072 3.30702072 3.30702072 3.30702072 3.30702072 3.30702072
 3.30702072 3.30702072 3.30702072 3.30702072 3.30702072]
Set gradient conv threshold to 3.16228e-05
Nelec from initial guess = 47.97583257514231
cond(S) = 1257.6770135513707
atom C rad-grids = 75, ang-grids = [ 50  50  50  50  50  50  50  50  50  50  50  50  50  50  50  50  50  50
  50  50  50  50  50  86  86  86  86  86  86  86  86  86  86 266 266 266
 266 266 266 266 302 302 302 302 302 302 302 302 302 302 302 302 302 302
 302 302 302 302 302 302 266 266 266 266 266 266 266 266 266 266 266 266
 266 266 266]
atom H rad-grids = 50, ang-grids = [ 50  50  50  50  50  50  50  50  50  50  50  50  50  50  86  86  86  86
 266 266 266 266 302 302 302 302 302 302 302 302 302 302 302 302 302 266
 266 266 266 266 266 266 266 266 266 266 266 266 266 266]
tot grids = 203700
Drop grids 39759
    CPU time for setting up grids     28.23 sec, wall time      0.60 sec
nelec by numeric integration = 47.97540815512417
    CPU time for vxc     64.09 sec, wall time      1.37 sec
 Exc = -29.247124113800357
 Exc = -36.449994066947184
E1 = -817.7487384473302  Ecoul = 361.1917396941566  Exc = -36.449994066947184
init E= -236.365454463306
    CPU time for initialize scf    105.64 sec, wall time      2.28 sec
  HOMO = -0.385237527464979  LUMO = 0.00583833874563277
  mo_energy =
[-1.04028454e+01 -1.04022693e+01 -1.04022674e+01 -1.04017519e+01
 -1.04017506e+01 -1.04015631e+01 -1.08183796e+00 -9.38325775e-01
 -9.38221891e-01 -7.46713236e-01 -7.46621466e-01 -6.60435230e-01
 -5.87337574e-01 -5.33292228e-01 -5.33189403e-01 -5.32353956e-01
 -4.99859025e-01 -4.73189252e-01 -4.72989346e-01 -4.18566101e-01
 -4.18483975e-01 -3.90110014e-01 -3.89891386e-01 -3.85237527e-01
  5.83833875e-03  2.55499652e-02  5.75744765e-02  5.76386715e-02
  7.40984483e-02  7.42732872e-02  8.26601072e-02  8.27437368e-02
  8.62048730e-02  9.39150496e-02  9.89772795e-02  9.91082033e-02
  1.34235019e-01  1.34263975e-01  1.46844564e-01  1.65316247e-01
  1.71771923e-01  1.71891597e-01  4.04608977e-01  4.25877962e-01
  4.42710944e-01  4.42743615e-01  4.46698068e-01  4.70924810e-01
  4.70942676e-01  5.12604190e-01  5.12651426e-01  5.48419384e-01
  5.97623967e-01  5.97718014e-01  6.15445982e-01  6.21406622e-01
  6.90364661e-01  6.90632387e-01  7.27467696e-01  7.27587460e-01
  7.28110740e-01  7.53531728e-01  7.88343111e-01  7.88650297e-01
  7.93959936e-01  7.94040580e-01  8.25549670e-01  8.35137747e-01
  8.35157677e-01  8.92459208e-01  9.14233485e-01  1.07657191e+00
  1.07662315e+00  1.13689959e+00  1.13717278e+00  1.26871577e+00
  1.26946199e+00  1.31920136e+00  1.44321346e+00  1.48067732e+00
  1.49706293e+00  1.49716314e+00  1.49848199e+00  1.61090632e+00
  1.61138163e+00  1.65428572e+00  1.73875139e+00  1.73900285e+00
  1.75089222e+00  1.75104237e+00  1.77952419e+00  1.80936546e+00
  1.80943909e+00  1.81249406e+00  1.95459330e+00  1.95494924e+00
  1.96879274e+00  2.00381293e+00  2.00411493e+00  2.00742325e+00
  2.04824178e+00  2.04852120e+00  2.12775166e+00  2.12813626e+00
  2.12842551e+00  2.18633006e+00  2.26054087e+00  2.26063671e+00
  2.26743709e+00  2.26858313e+00  2.26914365e+00  2.35395628e+00
  2.36082584e+00  2.36085185e+00  2.41329568e+00  2.41865067e+00
  2.47560940e+00  2.47574667e+00  2.51934725e+00  2.51976933e+00
  2.61840191e+00  2.61843156e+00  2.67056201e+00  2.68850635e+00
  2.68873568e+00  2.72101550e+00  2.73759269e+00  2.73769474e+00
  2.75033807e+00  2.77605600e+00  2.81327153e+00  2.81351946e+00
  3.03355636e+00  3.13885311e+00  3.14313780e+00  3.14319830e+00
  3.17580144e+00  3.17586528e+00  3.31440502e+00  3.31480109e+00
  3.33289500e+00  3.36844719e+00  3.36853866e+00  3.43191334e+00]
nelec by numeric integration = 47.99978053863153
    CPU time for vxc     59.50 sec, wall time      1.25 sec
 Exc = -30.305307212500473
 Exc = -37.488547430399386
E1 = -832.3882236594003  Ecoul = 377.7315784634732  Exc = -37.488547430399386
cycle= 1 E= -235.503654269512  delta_E= 0.862  |g|= 0.867  |ddm|= 3.61
    CPU time for cycle= 1     61.16 sec, wall time      1.30 sec
diis-norm(errvec)=1.82467
diis-c [-3.32940612  1.        ]
  HOMO = -0.1412522642821  LUMO = 0.14604747339446
  mo_energy =
[-9.88258953 -9.88250331 -9.8824884  -9.88235816 -9.88229231 -9.88217095
 -0.65787122 -0.58164418 -0.58156371 -0.466331   -0.46623428 -0.42394356
 -0.33662612 -0.32727065 -0.30988068 -0.30974753 -0.24626784 -0.24616309
 -0.20519102 -0.20019793 -0.19996383 -0.19158083 -0.14140967 -0.14125226
  0.14604747  0.17639247  0.19148542  0.19158224  0.22154861  0.23989976
  0.23993925  0.2505698   0.25071056  0.25090626  0.27081152  0.2708384
  0.35129148  0.35132187  0.36011734  0.39324413  0.39334372  0.41236453
  0.61796069  0.6378197   0.64039279  0.6404542   0.66724812  0.67269482
  0.6727069   0.8112192   0.81137372  0.84606807  0.86021595  0.86383299
  0.86389284  0.90370709  0.92295851  0.92336642  0.93359372  0.93459045
  0.93469248  0.96240431  0.96259248  0.97963649  0.97968926  0.98104045
  1.00349327  1.01230234  1.01234907  1.08253455  1.12455778  1.26109954
  1.26124608  1.42645515  1.42671498  1.50639056  1.50720854  1.58827978
  1.61338058  1.74137093  1.74141323  1.7424436   1.74404149  1.80971448
  1.8103135   1.97153166  1.99149058  1.99159333  2.04085237  2.05529189
  2.05558117  2.08570891  2.08573455  2.10019208  2.17980523  2.18612305
  2.18641045  2.21862894  2.23500753  2.2352552   2.23598981  2.23623007
  2.31070661  2.39822893  2.39842062  2.40144191  2.41507037  2.41519631
  2.45879412  2.47228597  2.47298006  2.49691435  2.55518368  2.5552543
  2.56300451  2.66550107  2.70043927  2.70076245  2.71050541  2.71053621
  2.85220452  2.85253998  2.90517966  2.90727739  2.90745117  2.91988815
  2.96571045  2.96600215  2.99265719  3.03569147  3.03599395  3.07762868
  3.24351786  3.37061777  3.37075457  3.37823514  3.40909441  3.40926826
  3.55149079  3.55187976  3.57444375  3.60718238  3.6073139   3.67764493]
nelec by numeric integration = 47.99975751106978
    CPU time for vxc     56.55 sec, wall time      1.18 sec
 Exc = -29.298353044445467
 Exc = -36.2575258251447
E1 = -813.0901622923299  Ecoul = 357.38650881604275  Exc = -36.2575258251447
cycle= 2 E= -235.319640944617  delta_E= 0.184  |g|= 1.21  |ddm|= 2.19
    CPU time for cycle= 2     58.54 sec, wall time      1.22 sec
diis-norm(errvec)=2.65604
diis-c [-0.08818794  0.59449348  0.40550652]
  HOMO = -0.281724509418992  LUMO = 0.0850910483042705
  mo_energy =
[-10.1566397  -10.15661352 -10.15658603 -10.1564461  -10.15642141
 -10.15629455  -0.82625749  -0.72924098  -0.72917479  -0.58757391
  -0.58749605  -0.53334236  -0.46725804  -0.42528646  -0.42519654
  -0.42243198  -0.36343237  -0.36326663  -0.36288706  -0.32859067
  -0.32849047  -0.30535953  -0.28192981  -0.28172451   0.08509105
   0.10154293   0.13490838   0.13498554   0.16127531   0.17431653
   0.17439084   0.17563866   0.1852185    0.18523293   0.18818362
   0.18821608   0.24565928   0.24571688   0.2638656    0.29349921
   0.29362588   0.30645168   0.51174864   0.53792785   0.54239284
   0.54242934   0.55540126   0.57403541   0.57404283   0.65236599
   0.65248049   0.68830034   0.73176533   0.73252405   0.7325525
   0.75853138   0.80606481   0.80635044   0.83246874   0.83259837
   0.83782971   0.86169887   0.8808484    0.88112594   0.89665327
   0.89674186   0.93065644   0.93772244   0.93774886   0.99426767
   1.01815207   1.17668933   1.17677481   1.28245795   1.28273159
   1.37632596   1.37708017   1.45992652   1.53345695   1.60910298
   1.62514818   1.62523474   1.62983231   1.71649778   1.71704783
   1.80959915   1.87845699   1.878577     1.89708512   1.89735356
   1.91433735   1.95122138   1.9512639    1.95931194   2.07770308
   2.07804686   2.08682147   2.12427001   2.12840047   2.12870838
   2.15469631   2.15501571   2.22681137   2.26855709   2.26886588
   2.30617526   2.35092616   2.3510212    2.37201405   2.37498725
   2.37559425   2.43504963   2.47118651   2.47122624   2.51116638
   2.54774815   2.60544647   2.60554136   2.61987903   2.62027747
   2.73653638   2.7367117    2.79842294   2.80990467   2.81012176
   2.82222719   2.8550035    2.85520074   2.89345681   2.91520488
   2.92742743   2.92771775   3.14805642   3.26423051   3.26429451
   3.26715122   3.30353001   3.30362444   3.44299167   3.44339088
   3.46256941   3.49341264   3.49350024   3.55998556]
nelec by numeric integration = 47.99975261989188
    CPU time for vxc     59.50 sec, wall time      1.25 sec
 Exc = -29.82898030405632
 Exc = -36.90626006161623
E1 = -824.3499618534768  Ecoul = 368.90357088261356  Exc = -36.90626006161623
cycle= 3 E= -235.711112675665  delta_E= -0.391  |g|= 0.0559  |ddm|= 1.35
    CPU time for cycle= 3     61.13 sec, wall time      1.28 sec
diis-norm(errvec)=0.132509
diis-c [-0.00545159  0.16579848  0.10934471  0.72485681]
  HOMO = -0.286273422008045  LUMO = 0.0840084235599674
  mo_energy =
[-10.16856073 -10.16852843 -10.16849877 -10.16836531 -10.16832865
 -10.16820709  -0.82558149  -0.73144712  -0.73136292  -0.59204884
  -0.59196403  -0.53429926  -0.46963215  -0.42802304  -0.42624839
  -0.42614609  -0.36726678  -0.36600011  -0.36583013  -0.32949717
  -0.32937642  -0.30560831  -0.28647359  -0.28627342   0.08400842
   0.10374699   0.13337016   0.13345109   0.16090601   0.17337155
   0.17341999   0.17581973   0.18434443   0.18440449   0.1878608
   0.18788711   0.24435557   0.24440326   0.26350646   0.28983907
   0.28996871   0.30302356   0.50848227   0.53896317   0.54132797
   0.54136432   0.55607284   0.57262733   0.57263849   0.64979305
   0.64990029   0.68744842   0.72769624   0.72772669   0.7300364
   0.75368651   0.80417822   0.80447716   0.8314079    0.83152681
   0.83734699   0.86277687   0.88024519   0.88053632   0.89386575
   0.89393458   0.9264677    0.93482959   0.93486576   0.99399256
   1.01542794   1.17427298   1.17436682   1.28016497   1.2804428
   1.37935822   1.38013845   1.45623406   1.53281731   1.60940175
   1.62293033   1.62301399   1.62826711   1.71619358   1.71674439
   1.80721354   1.87718335   1.8773051    1.89436934   1.89464799
   1.91244394   1.94853227   1.94856229   1.95730955   2.07687097
   2.07722813   2.08533971   2.12334199   2.12624345   2.12653482
   2.15289579   2.15320316   2.22765724   2.26643497   2.26675946
   2.30202813   2.35009093   2.35019165   2.37031259   2.37417664
   2.37476833   2.43709173   2.47061576   2.47066443   2.50697041
   2.54533626   2.60211878   2.60220833   2.61824536   2.6186503
   2.73568482   2.73584236   2.79788343   2.80809546   2.80831809
   2.82182833   2.85389114   2.85407106   2.89077675   2.91158319
   2.92684918   2.9271325    3.14742031   3.26314067   3.26321404
   3.26396937   3.29916316   3.29927129   3.43958766   3.43997752
   3.45939119   3.49294448   3.49305115   3.55922968]
nelec by numeric integration = 47.99975849419987
    CPU time for vxc     48.98 sec, wall time      1.02 sec
 Exc = -29.848299985930808
 Exc = -36.93001791545811
E1 = -824.491384097993  Ecoul = 369.0679950844407  Exc = -36.93001791545811
cycle= 4 E= -235.711868572196  delta_E= -0.000756  |g|= 0.00706  |ddm|= 0.0781
    CPU time for cycle= 4     50.65 sec, wall time      1.06 sec
diis-norm(errvec)=0.0178127
diis-c [-1.71333147e-05 -6.81768797e-03 -6.43824300e-03  9.58617379e-02
  9.17394193e-01]
  HOMO = -0.28593592140475  LUMO = 0.0843149357554473
  mo_energy =
[-10.16848924 -10.16845517 -10.16843925 -10.16828789 -10.16827298
 -10.16814118  -0.82559458  -0.73112988  -0.73106349  -0.59150189
  -0.5914241   -0.53427715  -0.46937592  -0.42730125  -0.42621354
  -0.42612363  -0.36695917  -0.36582032  -0.36566658  -0.32950778
  -0.32940055  -0.30569523  -0.28613768  -0.28593592   0.08431494
   0.10367689   0.1337014    0.13377577   0.1611207    0.17375626
   0.17380173   0.17601956   0.18453236   0.18458108   0.18809213
   0.18812272   0.24465586   0.24471062   0.26376889   0.29040226
   0.29052887   0.30350662   0.50898483   0.53904097   0.54161802
   0.54165326   0.55623201   0.57287323   0.57288115   0.65001692
   0.65012723   0.68748358   0.72825396   0.72829582   0.73022792
   0.75409632   0.80445223   0.80473812   0.83162551   0.83175687
   0.83772247   0.86267565   0.88057246   0.88085421   0.89432621
   0.89440664   0.92722835   0.93537073   0.93539689   0.99429427
   1.01587747   1.17481215   1.17490959   1.28056985   1.28084324
   1.37918831   1.37995757   1.45685684   1.53323184   1.60950406
   1.62339716   1.62348242   1.62863523   1.71647934   1.71702813
   1.80753029   1.8775217    1.87764223   1.89471955   1.8949919
   1.91285677   1.94896742   1.9490072    1.9576284    2.07718668
   2.07753187   2.08577483   2.12372736   2.12675366   2.1270567
   2.15346731   2.15377975   2.2278357    2.26678823   2.26710732
   2.30285777   2.35061101   2.35070766   2.3709       2.37458378
   2.37517182   2.43714891   2.47094512   2.4709872    2.50800217
   2.54579718   2.60275504   2.60284651   2.61882056   2.61921984
   2.73602553   2.73619003   2.79806919   2.80854218   2.80876208
   2.82220346   2.85425993   2.85444609   2.89142953   2.91206816
   2.92716306   2.92744965   3.14765879   3.26339636   3.26346256
   3.26449668   3.29991354   3.30000914   3.44022963   3.44063132
   3.45999572   3.49310008   3.4931924    3.55942642]
nelec by numeric integration = 47.99975792148512
    CPU time for vxc     54.18 sec, wall time      1.13 sec
 Exc = -29.847370768045373
 Exc = -36.92887743499625
E1 = -824.4964538072362  Ecoul = 369.0719109684513  Exc = -36.92887743499625
cycle= 5 E= -235.711881916966  delta_E= -1.33e-05  |g|= 0.000477  |ddm|= 0.0109
    CPU time for cycle= 5     55.82 sec, wall time      1.17 sec
diis-norm(errvec)=0.000912092
diis-c [-2.05127812e-07 -1.41136960e-03 -9.14241820e-04  6.87914618e-03
  8.85375224e-02  9.06908943e-01]
  HOMO = -0.286025970825419  LUMO = 0.0842456613289082
  mo_energy =
[-10.16838696 -10.168354   -10.16832513 -10.1681901  -10.16815443
 -10.16803201  -0.82566811  -0.73121422  -0.73112946  -0.59158284
  -0.5914984   -0.53433463  -0.46947074  -0.42741311  -0.42628797
  -0.42618684  -0.36702873  -0.36591953  -0.3657498   -0.32957648
  -0.32945696  -0.30576175  -0.28622637  -0.28602597   0.08424566
   0.10361797   0.1336351    0.13371644   0.16104494   0.17368297
   0.173736     0.17595501   0.18447925   0.18453442   0.18803022
   0.18805677   0.24458455   0.24463304   0.2636927    0.29033034
   0.29046009   0.30344694   0.508907     0.53895742   0.54154244
   0.54157896   0.55613111   0.57280634   0.57281748   0.64997332
   0.65008094   0.68744088   0.72820153   0.72823295   0.73017812
   0.75405287   0.80437113   0.80467027   0.83157638   0.83169497
   0.83762957   0.86263198   0.88049486   0.88078567   0.89426696
   0.89433669   0.9271432    0.93529411   0.93533063   0.99421406
   1.01579768   1.17471113   1.17480316   1.28047663   1.28075447
   1.37909753   1.37987619   1.45675102   1.53312843   1.60942332
   1.62329955   1.62338358   1.62854066   1.71638676   1.71693752
   1.80746801   1.87742845   1.87755028   1.89464728   1.89492546
   1.91275424   1.94888331   1.94891369   1.95754322   2.07709106
   2.07744849   2.08567851   2.12363151   2.12665724   2.12694925
   2.15335795   2.15366654   2.22775006   2.26670897   2.26703212
   2.30274129   2.35050068   2.35060113   2.37078717   2.37447832
   2.37507313   2.43707284   2.47085914   2.47090733   2.50786812
   2.54571547   2.60265747   2.60274782   2.61871512   2.61912024
   2.73594524   2.73610354   2.79799748   2.80845504   2.80867736
   2.8221065    2.85417291   2.85435407   2.89131619   2.91200204
   2.92707117   2.92735513   3.14758931   3.26332211   3.26339756
   3.26441583   3.29980663   3.29991449   3.44013145   3.44052066
   3.45989115   3.49302483   3.49313101   3.5593525 ]
nelec by numeric integration = 47.99975789423509
    CPU time for vxc     52.53 sec, wall time      1.10 sec
 Exc = -29.84724800819906
 Exc = -36.92873104905614
E1 = -824.494061257215  Ecoul = 369.06937198308054  Exc = -36.92873104905614
cycle= 6 E= -235.711881966376  delta_E= -4.94e-08  |g|= 9.37e-05  |ddm|= 0.000553
    CPU time for cycle= 6     54.26 sec, wall time      1.13 sec
diis-norm(errvec)=0.000193686
diis-c [-2.03708684e-08 -3.22890993e-04 -1.94276986e-04  1.00809850e-03
  1.59891417e-02  2.10091989e-01  7.73427939e-01]
  HOMO = -0.286026000048228  LUMO = 0.0842440602210042
  mo_energy =
[-10.16837687 -10.16833981 -10.16833017 -10.1681731  -10.16816392
 -10.16802924  -0.82566937  -0.73120732  -0.73113872  -0.59158158
  -0.59150282  -0.53433836  -0.46947119  -0.4274123   -0.42628538
  -0.42619396  -0.36703088  -0.36591241  -0.3657568   -0.32957412
  -0.32946521  -0.3057646   -0.28622758  -0.286026     0.08424406
   0.10361577   0.13363628   0.13371151   0.16104327   0.17368535
   0.17373162   0.17595393   0.18447966   0.18452935   0.18802702
   0.18805711   0.24458031   0.24463419   0.2636914    0.29033009
   0.29045715   0.3034436    0.50890429   0.53895497   0.54153987
   0.54157525   0.55612935   0.57280472   0.57281286   0.64997116
   0.65008114   0.68743987   0.72819594   0.72823638   0.73017635
   0.75405127   0.80437583   0.80466347   0.83157      0.83169975
   0.83762785   0.86263028   0.88049685   0.8807797    0.89426057
   0.89433961   0.92714335   0.93529716   0.93532457   0.9942118
   1.01579577   1.17470686   1.17480358   1.28047576   1.28074971
   1.37909846   1.37986893   1.45674918   1.53312575   1.60941989
   1.62329661   1.62338166   1.62853721   1.71638404   1.71693312
   1.80746487   1.87742594   1.87754664   1.89464771   1.8949208
   1.91275274   1.94887767   1.94891625   1.95754165   2.07709403
   2.07744077   2.08567634   2.12362906   2.12665113   2.12695275
   2.15335395   2.15366589   2.22774577   2.26670845   2.26702812
   2.30274082   2.35049944   2.35059655   2.37078511   2.37447911
   2.37506791   2.43706698   2.4708584    2.47090128   2.50786737
   2.54571262   2.60265551   2.60274682   2.61871499   2.61911499
   2.73593946   2.73610323   2.79799362   2.80845324   2.80867348
   2.82210407   2.85416843   2.85435397   2.89131586   2.91200025
   2.92706758   2.92735382   3.14758582   3.26332386   3.26339122
   3.26441307   3.299812     3.29990917   3.44012617   3.44052635
   3.45989155   3.49302798   3.4931221    3.55935035]
nelec by numeric integration = 47.999757893574234
    CPU time for vxc     52.49 sec, wall time      1.10 sec
 Exc = -29.847243054100996
 Exc = -36.92872529009997
E1 = -824.4939683325729  Ecoul = 369.069273298341  Exc = -36.92872529009997
cycle= 7 E= -235.711881967517  delta_E= -1.14e-09  |g|= 6.47e-05  |ddm|= 0.000126
    CPU time for cycle= 7     54.12 sec, wall time      1.13 sec
diis-norm(errvec)=0.000134665
diis-c [-5.21611206e-10 -3.63107232e-05 -1.87580015e-05 -1.08238329e-04
  2.48947529e-04  1.60181696e-02  4.13346395e-01  5.70549795e-01]
  HOMO = -0.286026137929506  LUMO = 0.0842440552592559
  mo_energy =
[-10.16837706 -10.16833881 -10.16832971 -10.16817316 -10.16816296
 -10.16802861  -0.82566929  -0.73121072  -0.73113513  -0.59158274
  -0.59150155  -0.53433849  -0.46947091  -0.42741163  -0.42628741
  -0.42619181  -0.36703096  -0.36591525  -0.36575352  -0.32957639
  -0.32946293  -0.30576452  -0.28622721  -0.28602614   0.08424406
   0.1036158    0.13363489   0.13371277   0.16104334   0.17368402
   0.17373322   0.17595395   0.1844784    0.18453043   0.18802782
   0.18805638   0.24458143   0.244633     0.26369147   0.29032944
   0.29045764   0.30344324   0.50890386   0.53895501   0.54153929
   0.54157517   0.55612935   0.57280389   0.57281305   0.64997157
   0.65008053   0.68743984   0.72819781   0.72823437   0.73017634
   0.75405107   0.80437351   0.80466613   0.83157263   0.83169757
   0.83762803   0.86263041   0.88049515   0.88078143   0.89426262
   0.89433764   0.92714371   0.93529535   0.93532664   0.99421182
   1.01579567   1.17470791   1.1748026    1.28047473   1.28075036
   1.37909656   1.37987055   1.45674912   1.53312567   1.60941966
   1.62329672   1.62338134   1.62853708   1.71638349   1.71693328
   1.80746451   1.87742556   1.87754674   1.89464649   1.89492178
   1.91275285   1.94887956   1.94891458   1.95754171   2.07709181
   2.07744315   2.0856764    2.12362904   2.12665346   2.12695093
   2.1533547    2.15366519   2.22774555   2.26670759   2.26702876
   2.30274101   2.3504987    2.35059727   2.37078547   2.3744777
   2.37506909   2.43706656   2.47085707   2.47090218   2.50786762
   2.54571249   2.60265583   2.60274672   2.61871384   2.61911605
   2.73594048   2.7361019    2.79799337   2.80845276   2.80867389
   2.82210416   2.85416941   2.85435306   2.89131618   2.91200008
   2.9270681    2.92735336   3.14758576   3.26332184   3.26339267
   3.26441379   3.29981011   3.29991189   3.44012901   3.44052444
   3.45989208   3.49302542   3.49312473   3.55935049]
nelec by numeric integration = 47.99975789347669
    CPU time for vxc     51.69 sec, wall time      1.08 sec
 Exc = -29.847242621703618
 Exc = -36.92872482440119
E1 = -824.4939617329668  Ecoul = 369.0692662320256  Exc = -36.92872482440119
cycle= 8 E= -235.711881968528  delta_E= -1.01e-09  |g|= 3.43e-06  |ddm|= 5.27e-05
    CPU time for cycle= 8     53.30 sec, wall time      1.11 sec
diis-norm(errvec)=7.66134e-06
diis-c [-1.10278336e-11 -1.68652648e-06 -2.75601043e-06 -2.10624865e-05
 -2.52586597e-05 -2.20250836e-03  4.21910199e-02  8.46678501e-02
  8.75394402e-01]
  HOMO = -0.286026186085758  LUMO = 0.0842441824676535
  mo_energy =
[-10.16837748 -10.16833918 -10.16833041 -10.16817347 -10.16816371
 -10.16802916  -0.8256692   -0.73121055  -0.73113514  -0.59158258
  -0.59150144  -0.53433798  -0.46947088  -0.42741164  -0.42628699
  -0.42619149  -0.36703105  -0.36591517  -0.3657536   -0.32957589
  -0.32946253  -0.30576404  -0.28622727  -0.28602619   0.08424418
   0.10361612   0.13363508   0.13371289   0.16104353   0.17368413
   0.17373325   0.17595412   0.1844787    0.18453068   0.18802795
   0.18805654   0.24458148   0.2446331    0.26369156   0.29032951
   0.29045769   0.30344343   0.50890383   0.53895529   0.54153946
   0.54157533   0.55612942   0.57280408   0.57281321   0.64997151
   0.6500805    0.68743985   0.72819773   0.72823438   0.73017657
   0.75405106   0.80437372   0.80466621   0.83157275   0.83169781
   0.83762826   0.86263074   0.88049541   0.8807816    0.89426276
   0.89433788   0.92714375   0.93529561   0.93532681   0.99421207
   1.01579575   1.17470802   1.17480276   1.2804749    1.28075049
   1.37909689   1.3798708    1.45674914   1.53312587   1.60941996
   1.62329687   1.6233815    1.62853735   1.71638381   1.71693359
   1.80746466   1.87742582   1.87754699   1.89464662   1.89492186
   1.91275295   1.94887963   1.94891473   1.95754186   2.07709215
   2.07744338   2.08567666   2.12362938   2.12665355   2.12695112
   2.15335487   2.1536654    2.22774603   2.26670775   2.26702888
   2.30274092   2.35049902   2.35059755   2.37078559   2.37447795
   2.37506928   2.43706723   2.4708574    2.47090246   2.5078676
   2.54571276   2.60265591   2.60274681   2.61871411   2.61911626
   2.73594072   2.7361022    2.79799377   2.80845307   2.80867418
   2.82210447   2.85416963   2.85435332   2.8913162    2.91200009
   2.92706834   2.92735362   3.14758625   3.26332229   3.26339304
   3.26441399   3.29981021   3.29991187   3.440129     3.44052455
   3.45989213   3.49302589   3.49312508   3.55935084]
nelec by numeric integration = 47.99975789347698
    CPU time for vxc     51.70 sec, wall time      1.08 sec
 Exc = -29.84724321372856
 Exc = -36.9287255507746
E1 = -824.4939737787209  Ecoul = 369.0692790041498  Exc = -36.9287255507746
cycle= 9 E= -235.711881968531  delta_E= -3.35e-12  |g|= 6.3e-07  |ddm|= 4.04e-06
    CPU time for cycle= 9     53.31 sec, wall time      1.11 sec
  HOMO = -0.286026309324897  LUMO = 0.0842441084596583
  mo_energy =
[-10.1683778  -10.16833938 -10.1683307  -10.16817372 -10.16816398
 -10.16802941  -0.82566938  -0.7312107   -0.7311353   -0.59158271
  -0.59150158  -0.53433814  -0.46947101  -0.42741172  -0.42628714
  -0.42619165  -0.36703121  -0.36591529  -0.36575372  -0.32957603
  -0.32946269  -0.30576418  -0.2862274   -0.28602631   0.08424411
   0.10361601   0.13363501   0.13371282   0.16104345   0.17368406
   0.17373317   0.17595403   0.18447861   0.18453059   0.18802785
   0.18805645   0.24458137   0.24463299   0.26369146   0.29032941
   0.29045759   0.3034433    0.50890373   0.53895515   0.54153935
   0.54157521   0.5561293    0.57280397   0.5728131    0.64997137
   0.65008036   0.68743969   0.72819761   0.72823427   0.73017644
   0.75405093   0.80437359   0.80466608   0.83157263   0.8316977
   0.83762815   0.8626306    0.88049532   0.8807815    0.89426266
   0.89433779   0.92714368   0.93529552   0.93532671   0.99421196
   1.01579565   1.17470792   1.17480266   1.28047475   1.28075034
   1.37909673   1.37987063   1.45674901   1.53312578   1.60941981
   1.62329674   1.62338137   1.62853721   1.71638369   1.71693347
   1.80746449   1.87742569   1.87754685   1.89464647   1.8949217
   1.91275282   1.94887949   1.9489146    1.95754171   2.07709202
   2.07744325   2.08567654   2.12362925   2.12665343   2.12695102
   2.15335477   2.1536653    2.22774589   2.26670761   2.26702874
   2.30274084   2.35049893   2.35059745   2.37078549   2.37447784
   2.37506917   2.43706709   2.47085729   2.47090234   2.50786756
   2.54571261   2.6026558    2.6027467    2.61871401   2.61911616
   2.73594059   2.73610207   2.79799361   2.80845295   2.80867405
   2.82210436   2.8541695    2.8543532    2.89131611   2.91199994
   2.92706822   2.9273535    3.1475861    3.26332215   3.26339289
   3.26441386   3.29981011   3.29991177   3.44012889   3.44052445
   3.45989202   3.49302574   3.49312492   3.55935069]
nelec by numeric integration = 47.99975789346179
    CPU time for vxc     51.58 sec, wall time      1.08 sec
 Exc = -29.8472436865473
 Exc = -36.92872613134597
E1 = -824.4939831709844  Ecoul = 369.0692889769833  Exc = -36.92872613134597
Extra cycle  E= -235.711881968532  delta_E= -1.36e-12  |g|= 8.06e-07  |ddm|= 1.55e-06
    CPU time for scf_cycle    661.06 sec, wall time     13.92 sec
    CPU time for SCF    661.07 sec, wall time     13.92 sec
converged SCF energy = -235.711881968532
atom C rad-grids = 75, ang-grids = [ 50  50  50  50  50  50  50  50  50  50  50  50  50  50  50  50  50  50
  50  50  50  50  50  86  86  86  86  86  86  86  86  86  86 266 266 266
 266 266 266 266 302 302 302 302 302 302 302 302 302 302 302 302 302 302
 302 302 302 302 302 302 266 266 266 266 266 266 266 266 266 266 266 266
 266 266 266]
atom H rad-grids = 50, ang-grids = [ 50  50  50  50  50  50  50  50  50  50  50  50  50  50  86  86  86  86
 266 266 266 266 302 302 302 302 302 302 302 302 302 302 302 302 302 266
 266 266 266 266 266 266 266 266 266 266 266 266 266 266]
tot grids = 203700
