#INFO: **** input file is /home/wsr/dftpart/test/test_c6h12_m062x.py ****
from pyscf import gto,dft
import numpy as np
#import gen_grid_sep
#import numint_sep
import xceda
import os
import time

name = 'C6H12_m062x'

#baslist = ['6-31+gss','6-31++gss','def2dzvp','def2tzvp','cc-pvdz','cc-pvtz','aug-cc-pvtz']
#xclist = [] 

mol = gto.Mole()
mol.atom = ''' C                 -2.86831901   -0.79141989    0.00000000
 C                 -1.35321301   -0.79141989    0.00000000
 C                 -0.80128201    0.61965811    0.00000000
 C                 -1.35094501    1.42419511    1.16066100
 C                 -2.86607001    1.42485611    1.16017200
 C                 -3.41887001    0.01423511    1.15887600
 H                  0.31731699    0.58566711    0.06271400
 H                 -0.98066401   -1.33705389    0.90656200
 H                 -0.97791901   -1.34127889   -0.90191000
 H                 -3.24100701   -0.35839089   -0.96538500
 H                 -3.24391601   -1.84563989    0.06350200
 H                 -0.97841001    0.98935011    2.12527200
 H                 -0.97492201    2.47833211    1.09866600
 H                 -3.24139001    1.97428411    2.06228600
 H                 -3.23792501    1.97145711    0.25384900
 H                 -3.15286601   -0.49148689    2.12419100
 H                 -4.53741801    0.04929611    1.09393800
 H                 -1.06990001    1.12529111   -0.96454600'''
mol.basis = '6-31gss'
mol.output = name+'-pyscf.log'
mol.verbose = 9
mol.max_memory = 20000
mol.build()

t1 = time.time()
ks = dft.RKS(mol)
ks.xc = 'm062x'
#ks.grids = gen_grid_sep.Grids(ks.mol)
ks.kernel()

t2 = time.time()
#dm = ks.make_rdm1()
os.system("echo '' > %s" % (name+'-xceda.log'))

atom_exc, dexc = xceda.analysis(ks)
os.system("echo \"E_xc of C: %.10f\n\" >> %s" % (np.mean(atom_exc[0:6]), name+'-xceda.log'))
os.system("echo \"E_xc of H: %.10f\n\" >> %s" % (np.mean(atom_exc[6:18]), name+'-xceda.log'))
t3 = time.time()
print(t2-t1, t3-t2)

#INFO: ******************** input file end ********************


System: uname_result(system='Linux', node='lw06', release='3.10.0-957.el7.x86_64', version='#1 SMP Thu Nov 8 23:39:32 UTC 2018', machine='x86_64', processor='x86_64')  Threads 48
Python 3.7.3 (default, Mar 27 2019, 22:11:17) 
[GCC 7.3.0]
numpy 1.16.2  scipy 1.2.1
Date: Tue Jul  2 06:52:35 2019
PySCF version 1.6.2
PySCF path  /home/wsr/pyscf

[CONFIG] DEBUG = False
[CONFIG] MAX_MEMORY = 4000
[CONFIG] TMPDIR = .
[CONFIG] UNIT = angstrom
[CONFIG] VERBOSE = 3
[CONFIG] conf_file = None
[INPUT] verbose = 9
[INPUT] max_memory = 20000 
[INPUT] num. atoms = 18
[INPUT] num. electrons = 48
[INPUT] charge = 0
[INPUT] spin (= nelec alpha-beta = 2S) = 0
[INPUT] symmetry False subgroup None
[INPUT] Mole.unit = angstrom
[INPUT]  1 C     -2.868319010000  -0.791419890000   0.000000000000 AA   -5.420337366784  -1.495566841633   0.000000000000 Bohr
[INPUT]  2 C     -1.353213010000  -0.791419890000   0.000000000000 AA   -2.557201977098  -1.495566841633   0.000000000000 Bohr
[INPUT]  3 C     -0.801282010000   0.619658110000   0.000000000000 AA   -1.514203547441   1.170984118766   0.000000000000 Bohr
[INPUT]  4 C     -1.350945010000   1.424195110000   1.160661000000 AA   -2.552916078248   2.691338705845   2.193331413464 Bohr
[INPUT]  5 C     -2.866070010000   1.424856110000   1.160172000000 AA   -5.416087372729   2.692587814813   2.192407337389 Bohr
[INPUT]  6 C     -3.418870010000   0.014235110000   1.158876000000 AA   -6.460727974389   0.026900459253   2.189958252331 Bohr
[INPUT]  7 H      0.317316990000   0.585667110000   0.062714000000 AA    0.599642205771   1.106750438066   0.118512284176 Bohr
[INPUT]  8 H     -0.980664010000  -1.337053890000   0.906562000000 AA   -1.853186399118  -2.526665665884   1.713153894938 Bohr
[INPUT]  9 H     -0.977919010000  -1.341278890000  -0.901910000000 AA   -1.847999100906  -2.534649758761  -1.704362889006 Bohr
[INPUT] 10 H     -3.241007010000  -0.358390890000  -0.965385000000 AA   -6.124615616695  -0.677260627639  -1.824313254763 Bohr
[INPUT] 11 H     -3.243916010000  -1.845639890000   0.063502000000 AA   -6.130112829992  -3.487753916672   0.120001388362 Bohr
[INPUT] 12 H     -0.978410010000   0.989350110000   2.125272000000 AA   -1.848926956433   1.869600749208   4.016182020207 Bohr
[INPUT] 13 H     -0.974922010000   2.478332110000   1.098666000000 AA   -1.842335591710   4.683368933615   2.076177842371 Bohr
[INPUT] 14 H     -3.241390010000   1.974284110000   2.062286000000 AA   -6.125339381801   3.730856259981   3.897155730525 Bohr
[INPUT] 15 H     -3.237925010000   1.971457110000   0.253849000000 AA   -6.118791480780   3.725514004227   0.479705086995 Bohr
[INPUT] 16 H     -3.152866010000  -0.491486890000   2.124191000000 AA   -5.958053266350  -0.928775615914   4.014139226266 Bohr
[INPUT] 17 H     -4.537418010000   0.049296110000   1.093938000000 AA   -8.574477351569   0.093156146906   2.067243217254 Bohr
[INPUT] 18 H     -1.069900010000   1.125291110000  -0.964546000000 AA   -2.021817999569   2.126492008308  -1.822727774545 Bohr
[INPUT] ---------------- BASIS SET ---------------- 
[INPUT] l, kappa, [nprim/nctr], expnt,             c_1 c_2 ...
[INPUT] C
[INPUT] 0    0    [6    /1   ]  3047.5249         0.0018347
                                457.36951         0.0140373
                                103.94869         0.0688426
                                29.210155         0.2321844
                                9.286663          0.4679413
                                3.163927          0.362312
[INPUT] 0    0    [3    /1   ]  7.8682724         -0.1193324
                                1.8812885         -0.1608542
                                0.5442493         1.1434564
[INPUT] 0    0    [1    /1   ]  0.1687144            1
[INPUT] 1    0    [3    /1   ]  7.8682724         0.0689991
                                1.8812885         0.316424
                                0.5442493         0.7443083
[INPUT] 1    0    [1    /1   ]  0.1687144            1
[INPUT] 2    0    [1    /1   ]  0.8                  1
[INPUT] H
[INPUT] 0    0    [3    /1   ]  18.731137         0.0334946
                                2.8253937         0.23472695
                                0.6401217         0.81375733
[INPUT] 0    0    [1    /1   ]  0.1612778            1
[INPUT] 1    0    [1    /1   ]  1.1                  1

nuclear repulsion = 256.641538356815
number of shells = 72
number of NR pGTOs = 246
number of NR cGTOs = 144
basis = 6-31gss
ecp = {}
bas 0, expnt(s) = [3047.5249    457.36951   103.94869    29.210155    9.286663    3.163927]
bas 1, expnt(s) = [7.8682724 1.8812885 0.5442493]
bas 2, expnt(s) = [0.1687144]
bas 3, expnt(s) = [7.8682724 1.8812885 0.5442493]
bas 4, expnt(s) = [0.1687144]
bas 5, expnt(s) = [0.8]
bas 6, expnt(s) = [3047.5249    457.36951   103.94869    29.210155    9.286663    3.163927]
bas 7, expnt(s) = [7.8682724 1.8812885 0.5442493]
bas 8, expnt(s) = [0.1687144]
bas 9, expnt(s) = [7.8682724 1.8812885 0.5442493]
bas 10, expnt(s) = [0.1687144]
bas 11, expnt(s) = [0.8]
bas 12, expnt(s) = [3047.5249    457.36951   103.94869    29.210155    9.286663    3.163927]
bas 13, expnt(s) = [7.8682724 1.8812885 0.5442493]
bas 14, expnt(s) = [0.1687144]
bas 15, expnt(s) = [7.8682724 1.8812885 0.5442493]
bas 16, expnt(s) = [0.1687144]
bas 17, expnt(s) = [0.8]
bas 18, expnt(s) = [3047.5249    457.36951   103.94869    29.210155    9.286663    3.163927]
bas 19, expnt(s) = [7.8682724 1.8812885 0.5442493]
bas 20, expnt(s) = [0.1687144]
bas 21, expnt(s) = [7.8682724 1.8812885 0.5442493]
bas 22, expnt(s) = [0.1687144]
bas 23, expnt(s) = [0.8]
bas 24, expnt(s) = [3047.5249    457.36951   103.94869    29.210155    9.286663    3.163927]
bas 25, expnt(s) = [7.8682724 1.8812885 0.5442493]
bas 26, expnt(s) = [0.1687144]
bas 27, expnt(s) = [7.8682724 1.8812885 0.5442493]
bas 28, expnt(s) = [0.1687144]
bas 29, expnt(s) = [0.8]
bas 30, expnt(s) = [3047.5249    457.36951   103.94869    29.210155    9.286663    3.163927]
bas 31, expnt(s) = [7.8682724 1.8812885 0.5442493]
bas 32, expnt(s) = [0.1687144]
bas 33, expnt(s) = [7.8682724 1.8812885 0.5442493]
bas 34, expnt(s) = [0.1687144]
bas 35, expnt(s) = [0.8]
bas 36, expnt(s) = [18.731137   2.8253937  0.6401217]
bas 37, expnt(s) = [0.1612778]
bas 38, expnt(s) = [1.1]
bas 39, expnt(s) = [18.731137   2.8253937  0.6401217]
bas 40, expnt(s) = [0.1612778]
bas 41, expnt(s) = [1.1]
bas 42, expnt(s) = [18.731137   2.8253937  0.6401217]
bas 43, expnt(s) = [0.1612778]
bas 44, expnt(s) = [1.1]
bas 45, expnt(s) = [18.731137   2.8253937  0.6401217]
bas 46, expnt(s) = [0.1612778]
bas 47, expnt(s) = [1.1]
bas 48, expnt(s) = [18.731137   2.8253937  0.6401217]
bas 49, expnt(s) = [0.1612778]
bas 50, expnt(s) = [1.1]
bas 51, expnt(s) = [18.731137   2.8253937  0.6401217]
bas 52, expnt(s) = [0.1612778]
bas 53, expnt(s) = [1.1]
bas 54, expnt(s) = [18.731137   2.8253937  0.6401217]
bas 55, expnt(s) = [0.1612778]
bas 56, expnt(s) = [1.1]
bas 57, expnt(s) = [18.731137   2.8253937  0.6401217]
bas 58, expnt(s) = [0.1612778]
bas 59, expnt(s) = [1.1]
bas 60, expnt(s) = [18.731137   2.8253937  0.6401217]
bas 61, expnt(s) = [0.1612778]
bas 62, expnt(s) = [1.1]
bas 63, expnt(s) = [18.731137   2.8253937  0.6401217]
bas 64, expnt(s) = [0.1612778]
bas 65, expnt(s) = [1.1]
bas 66, expnt(s) = [18.731137   2.8253937  0.6401217]
bas 67, expnt(s) = [0.1612778]
bas 68, expnt(s) = [1.1]
bas 69, expnt(s) = [18.731137   2.8253937  0.6401217]
bas 70, expnt(s) = [0.1612778]
bas 71, expnt(s) = [1.1]
CPU time:         0.48
arg.atm = [[ 6 20  1 23  0  0]
 [ 6 24  1 27  0  0]
 [ 6 28  1 31  0  0]
 [ 6 32  1 35  0  0]
 [ 6 36  1 39  0  0]
 [ 6 40  1 43  0  0]
 [ 1 44  1 47  0  0]
 [ 1 48  1 51  0  0]
 [ 1 52  1 55  0  0]
 [ 1 56  1 59  0  0]
 [ 1 60  1 63  0  0]
 [ 1 64  1 67  0  0]
 [ 1 68  1 71  0  0]
 [ 1 72  1 75  0  0]
 [ 1 76  1 79  0  0]
 [ 1 80  1 83  0  0]
 [ 1 84  1 87  0  0]
 [ 1 88  1 91  0  0]]
arg.bas = [[  0   0   6   1   0  92  98   0]
 [  0   0   3   1   0 104 107   0]
 [  0   0   1   1   0 110 111   0]
 [  0   1   3   1   0 112 115   0]
 [  0   1   1   1   0 118 119   0]
 [  0   2   1   1   0 120 121   0]
 [  1   0   6   1   0  92  98   0]
 [  1   0   3   1   0 104 107   0]
 [  1   0   1   1   0 110 111   0]
 [  1   1   3   1   0 112 115   0]
 [  1   1   1   1   0 118 119   0]
 [  1   2   1   1   0 120 121   0]
 [  2   0   6   1   0  92  98   0]
 [  2   0   3   1   0 104 107   0]
 [  2   0   1   1   0 110 111   0]
 [  2   1   3   1   0 112 115   0]
 [  2   1   1   1   0 118 119   0]
 [  2   2   1   1   0 120 121   0]
 [  3   0   6   1   0  92  98   0]
 [  3   0   3   1   0 104 107   0]
 [  3   0   1   1   0 110 111   0]
 [  3   1   3   1   0 112 115   0]
 [  3   1   1   1   0 118 119   0]
 [  3   2   1   1   0 120 121   0]
 [  4   0   6   1   0  92  98   0]
 [  4   0   3   1   0 104 107   0]
 [  4   0   1   1   0 110 111   0]
 [  4   1   3   1   0 112 115   0]
 [  4   1   1   1   0 118 119   0]
 [  4   2   1   1   0 120 121   0]
 [  5   0   6   1   0  92  98   0]
 [  5   0   3   1   0 104 107   0]
 [  5   0   1   1   0 110 111   0]
 [  5   1   3   1   0 112 115   0]
 [  5   1   1   1   0 118 119   0]
 [  5   2   1   1   0 120 121   0]
 [  6   0   3   1   0 122 125   0]
 [  6   0   1   1   0 128 129   0]
 [  6   1   1   1   0 130 131   0]
 [  7   0   3   1   0 122 125   0]
 [  7   0   1   1   0 128 129   0]
 [  7   1   1   1   0 130 131   0]
 [  8   0   3   1   0 122 125   0]
 [  8   0   1   1   0 128 129   0]
 [  8   1   1   1   0 130 131   0]
 [  9   0   3   1   0 122 125   0]
 [  9   0   1   1   0 128 129   0]
 [  9   1   1   1   0 130 131   0]
 [ 10   0   3   1   0 122 125   0]
 [ 10   0   1   1   0 128 129   0]
 [ 10   1   1   1   0 130 131   0]
 [ 11   0   3   1   0 122 125   0]
 [ 11   0   1   1   0 128 129   0]
 [ 11   1   1   1   0 130 131   0]
 [ 12   0   3   1   0 122 125   0]
 [ 12   0   1   1   0 128 129   0]
 [ 12   1   1   1   0 130 131   0]
 [ 13   0   3   1   0 122 125   0]
 [ 13   0   1   1   0 128 129   0]
 [ 13   1   1   1   0 130 131   0]
 [ 14   0   3   1   0 122 125   0]
 [ 14   0   1   1   0 128 129   0]
 [ 14   1   1   1   0 130 131   0]
 [ 15   0   3   1   0 122 125   0]
 [ 15   0   1   1   0 128 129   0]
 [ 15   1   1   1   0 130 131   0]
 [ 16   0   3   1   0 122 125   0]
 [ 16   0   1   1   0 128 129   0]
 [ 16   1   1   1   0 130 131   0]
 [ 17   0   3   1   0 122 125   0]
 [ 17   0   1   1   0 128 129   0]
 [ 17   1   1   1   0 130 131   0]]
arg.env = [ 1.37036000e+02  0.00000000e+00  0.00000000e+00  0.00000000e+00
  0.00000000e+00  0.00000000e+00  0.00000000e+00  0.00000000e+00
  0.00000000e+00  0.00000000e+00  0.00000000e+00  0.00000000e+00
  0.00000000e+00  0.00000000e+00  0.00000000e+00  0.00000000e+00
  0.00000000e+00  0.00000000e+00  0.00000000e+00  0.00000000e+00
 -5.42033737e+00 -1.49556684e+00  0.00000000e+00  0.00000000e+00
 -2.55720198e+00 -1.49556684e+00  0.00000000e+00  0.00000000e+00
 -1.51420355e+00  1.17098412e+00  0.00000000e+00  0.00000000e+00
 -2.55291608e+00  2.69133871e+00  2.19333141e+00  0.00000000e+00
 -5.41608737e+00  2.69258781e+00  2.19240734e+00  0.00000000e+00
 -6.46072797e+00  2.69004593e-02  2.18995825e+00  0.00000000e+00
  5.99642206e-01  1.10675044e+00  1.18512284e-01  0.00000000e+00
 -1.85318640e+00 -2.52666567e+00  1.71315389e+00  0.00000000e+00
 -1.84799910e+00 -2.53464976e+00 -1.70436289e+00  0.00000000e+00
 -6.12461562e+00 -6.77260628e-01 -1.82431325e+00  0.00000000e+00
 -6.13011283e+00 -3.48775392e+00  1.20001388e-01  0.00000000e+00
 -1.84892696e+00  1.86960075e+00  4.01618202e+00  0.00000000e+00
 -1.84233559e+00  4.68336893e+00  2.07617784e+00  0.00000000e+00
 -6.12533938e+00  3.73085626e+00  3.89715573e+00  0.00000000e+00
 -6.11879148e+00  3.72551400e+00  4.79705087e-01  0.00000000e+00
 -5.95805327e+00 -9.28775616e-01  4.01413923e+00  0.00000000e+00
 -8.57447735e+00  9.31561469e-02  2.06724322e+00  0.00000000e+00
 -2.02181800e+00  2.12649201e+00 -1.82272777e+00  0.00000000e+00
  3.04752490e+03  4.57369510e+02  1.03948690e+02  2.92101550e+01
  9.28666300e+00  3.16392700e+00  1.90125588e+00  3.50751108e+00
  5.66221808e+00  7.37052623e+00  6.28928397e+00  2.17153894e+00
  7.86827240e+00  1.88128850e+00  5.44249300e-01 -1.41639039e+00
 -6.52813326e-01  1.83055623e+00  1.68714400e-01  6.65088040e-01
  7.86827240e+00  1.88128850e+00  5.44249300e-01  2.65263212e+00
  2.03386926e+00  1.01504332e+00  1.68714400e-01  3.15445679e-01
  8.00000000e-01  1.76578110e+00  1.87311370e+01  2.82539370e+00
  6.40121700e-01  7.61926220e-01  1.29237100e+00  1.47131900e+00
  1.61277800e-01  6.42977783e-01  1.10000000e+00  3.28643653e+00]
ecpbas  = []


******** <class 'pyscf.dft.rks.RKS'> ********
method = RKS-RHF
initial guess = minao
damping factor = 0
level shift factor = 0
DIIS = <class 'pyscf.scf.diis.CDIIS'>
DIIS start cycle = 1
DIIS space = 8
SCF tol = 1e-09
SCF gradient tol = None
max. SCF cycles = 50
direct_scf = True
direct_scf_tol = 1e-13
chkfile to save SCF result = /home/wsr/dftpart/test/tmphbe_cxk0
max_memory 20000 MB (current use 56 MB)
XC functionals = m062x
small_rho_cutoff = 1e-07
radial grids: 
    Treutler-Ahlrichs (JCP 102, 346 (M4)) radial grids
    
becke partition: Becke, JCP, 88, 2547 (1988)
pruning grids: <function nwchem_prune at 0x2aadeb5592f0>
grids dens level: 3
symmetrized grids: False
atomic radii adjust function: <function treutler_atomic_radii_adjust at 0x2aadeb559268>
atomic_radii : [0.         0.66140414 2.64561657 2.74010288 1.98421243 1.60626721
 1.32280829 1.22832198 1.13383567 0.94486306 2.83458919 3.40150702
 2.83458919 2.36215766 2.07869874 1.88972612 1.88972612 1.88972612
 3.40150702 4.15739747 3.40150702 3.0235618  2.64561657 2.55113027
 2.64561657 2.64561657 2.64561657 2.55113027 2.55113027 2.55113027
 2.55113027 2.45664396 2.36215766 2.17318504 2.17318504 2.17318504
 3.59047964 4.44085639 3.77945225 3.40150702 2.92907549 2.74010288
 2.74010288 2.55113027 2.45664396 2.55113027 2.64561657 3.0235618
 2.92907549 2.92907549 2.74010288 2.74010288 2.64561657 2.64561657
 3.96842486 4.91328792 4.06291117 3.68496594 3.49599333 3.49599333
 3.49599333 3.49599333 3.49599333 3.49599333 3.40150702 3.30702072
 3.30702072 3.30702072 3.30702072 3.30702072 3.30702072 3.30702072
 2.92907549 2.74010288 2.55113027 2.55113027 2.45664396 2.55113027
 2.55113027 2.55113027 2.83458919 3.59047964 3.40150702 3.0235618
 3.59047964 2.74010288 3.96842486 3.40150702 4.06291117 3.68496594
 3.40150702 3.40150702 3.30702072 3.30702072 3.30702072 3.30702072
 3.30702072 3.30702072 3.30702072 3.30702072 3.30702072 3.30702072
 3.30702072 3.30702072 3.30702072 3.30702072 3.30702072 3.30702072
 3.30702072 3.30702072 3.30702072 3.30702072 3.30702072 3.30702072
 3.30702072 3.30702072 3.30702072 3.30702072 3.30702072 3.30702072
 3.30702072 3.30702072 3.30702072 3.30702072 3.30702072 3.30702072
 3.30702072 3.30702072 3.30702072 3.30702072 3.30702072]
Set gradient conv threshold to 3.16228e-05
Nelec from initial guess = 47.97583257514231
cond(S) = 1257.6770135513707
atom C rad-grids = 75, ang-grids = [ 50  50  50  50  50  50  50  50  50  50  50  50  50  50  50  50  50  50
  50  50  50  50  50  86  86  86  86  86  86  86  86  86  86 266 266 266
 266 266 266 266 302 302 302 302 302 302 302 302 302 302 302 302 302 302
 302 302 302 302 302 302 266 266 266 266 266 266 266 266 266 266 266 266
 266 266 266]
atom H rad-grids = 50, ang-grids = [ 50  50  50  50  50  50  50  50  50  50  50  50  50  50  86  86  86  86
 266 266 266 266 302 302 302 302 302 302 302 302 302 302 302 302 302 266
 266 266 266 266 266 266 266 266 266 266 266 266 266 266]
tot grids = 203700
Drop grids 39759
    CPU time for setting up grids     30.26 sec, wall time      0.64 sec
nelec by numeric integration = 47.97540815512417
    CPU time for vxc    161.44 sec, wall time      3.60 sec
 Exc = -17.583860360028584
 Exc = -37.03160923352501
E1 = -817.7487384473302  Ecoul = 361.1917396941566  Exc = -37.03160923352501
init E= -236.947069629884
    CPU time for initialize scf    204.48 sec, wall time      4.54 sec
  HOMO = -0.375267296132087  LUMO = 0.0320005035835598
  mo_energy =
[-10.76575589 -10.76417391 -10.7641729  -10.76292308 -10.76292223
 -10.76258924  -1.34595951  -1.11526364  -1.11511402  -0.83968362
  -0.83956596  -0.73297538  -0.62819312  -0.56219865  -0.556889
  -0.5567706   -0.49719911  -0.47710469  -0.47686848  -0.41714273
  -0.41703656  -0.38149992  -0.37551094  -0.3752673    0.0320005
   0.05545429   0.08808654   0.08814483   0.10805733   0.10824112
   0.11877571   0.12373291   0.12380327   0.13029337   0.13394333
   0.13409635   0.17599269   0.17602202   0.18135287   0.21141555
   0.21714888   0.21727373   0.44771459   0.47656147   0.48792857
   0.48794117   0.48914224   0.51372109   0.51373038   0.56215426
   0.56221157   0.59815244   0.64920737   0.6492922    0.66096634
   0.66871911   0.73398577   0.73424138   0.77870028   0.77882565
   0.78129512   0.80095302   0.83557776   0.83584442   0.83947862
   0.8395543    0.87176696   0.88109039   0.88111787   0.92564954
   0.94799719   1.1097834    1.1098841    1.18353318   1.18380708
   1.28615388   1.28695155   1.36221798   1.45950818   1.51761017
   1.53400521   1.5341055    1.53751837   1.63499347   1.63552435
   1.69179627   1.76959621   1.7698426    1.78289261   1.78306266
   1.81253084   1.84125194   1.84132305   1.84361038   1.98187586
   1.98222289   1.99549255   2.02961044   2.02989725   2.03308295
   2.0647905    2.06507639   2.14622657   2.14660145   2.14695482
   2.20306977   2.27403211   2.27412477   2.28052182   2.28085721
   2.28146348   2.3644532    2.36932649   2.36934889   2.42188262
   2.42813748   2.48321062   2.48335601   2.52527232   2.52566106
   2.62113837   2.6211907    2.67308302   2.68933057   2.68954444
   2.72071938   2.73653174   2.73662757   2.74890039   2.77246911
   2.80869427   2.80892226   3.00859641   3.11425531   3.11669851
   3.11675537   3.15015864   3.15021246   3.27953428   3.27990285
   3.29925596   3.33299962   3.33308354   3.39489836]
nelec by numeric integration = 47.99974597581389
    CPU time for vxc    129.99 sec, wall time      2.87 sec
 Exc = -17.989069060537012
 Exc = -37.24050408595836
E1 = -829.4017992053982  Ecoul = 374.34284809703286  Exc = -37.24050408595836
cycle= 1 E= -235.657916837509  delta_E= 1.29  |g|= 0.603  |ddm|= 3.51
    CPU time for cycle= 1    132.29 sec, wall time      2.94 sec
diis-norm(errvec)=1.28369
diis-c [-1.64786466  1.        ]
  HOMO = -0.24957420507928  LUMO = 0.160241639754945
  mo_energy =
[-10.34851329 -10.34839202 -10.34835583 -10.34806133 -10.34800747
 -10.34780734  -0.82018537  -0.73202519  -0.73192951  -0.59843916
  -0.59833171  -0.54612653  -0.45814562  -0.43584795  -0.42090728
  -0.42076523  -0.3479455   -0.34779631  -0.31707223  -0.31207119
  -0.31184494  -0.29915188  -0.24976435  -0.24957421   0.16024164
   0.18933875   0.20894374   0.20900949   0.2350208    0.25800654
   0.25803111   0.26109158   0.26791501   0.26805064   0.28236047
   0.2823652    0.35099883   0.35104093   0.36227536   0.39555622
   0.39561591   0.41140686   0.62113731   0.64513754   0.64845893
   0.64848553   0.67423485   0.68075256   0.68079058   0.80923561
   0.80940187   0.85601256   0.85748379   0.8737678    0.87386999
   0.90691094   0.92707437   0.92744788   0.95768153   0.95996017
   0.96014223   0.9882359    0.98836379   0.99882517   1.00723408
   1.00740081   1.03684104   1.04615978   1.04633491   1.10441668
   1.12195204   1.26589537   1.26608866   1.42713574   1.42733494
   1.49717109   1.49804913   1.59262472   1.60362186   1.7416773
   1.74529681   1.74542543   1.75510654   1.81421356   1.81474358
   1.95557002   1.99549751   1.99561145   2.03784852   2.03890039
   2.03922585   2.08018753   2.08030697   2.09363628   2.18470039
   2.18764269   2.18788553   2.22134973   2.23594885   2.23618766
   2.23789295   2.23828922   2.31139386   2.3798357    2.38000446
   2.39029391   2.41437259   2.414436     2.44506421   2.45874523
   2.45939954   2.49610939   2.54880495   2.54893435   2.5591259
   2.63201983   2.68153202   2.68185245   2.68432502   2.68439555
   2.81495064   2.8152599    2.87714346   2.87729606   2.87987775
   2.88529368   2.92861587   2.92893585   2.95774445   2.99834177
   2.99855307   3.02196095   3.19312836   3.31628165   3.31654452
   3.32434585   3.35656779   3.35664227   3.49640701   3.4971606
   3.51789515   3.54912115   3.54970502   3.61883954]
nelec by numeric integration = 47.99974737973372
    CPU time for vxc    123.10 sec, wall time      2.73 sec
 Exc = -17.68063426228486
 Exc = -36.628932914334996
E1 = -818.9053391333371  Ecoul = 363.2286667092179  Exc = -36.628932914334996
cycle= 2 E= -235.664066981639  delta_E= -0.00615  |g|= 0.602  |ddm|= 1.08
    CPU time for cycle= 2    125.16 sec, wall time      2.77 sec
diis-norm(errvec)=1.33018
diis-c [-0.06842794  0.5092636   0.4907364 ]
  HOMO = -0.342139884281938  LUMO = 0.121212016568164
  mo_energy =
[-10.5311134  -10.53100012 -10.5309911  -10.53067772 -10.53066899
 -10.53046267  -0.93305397  -0.83012879  -0.8300412   -0.67795841
  -0.67786584  -0.61731     -0.54424797  -0.49825664  -0.49814308
  -0.49808175  -0.43095217  -0.4307403   -0.43060843  -0.39264453
  -0.39252229  -0.36630946  -0.3423591   -0.34213988   0.12121202
   0.14047692   0.17349769   0.17355115   0.19489611   0.21355401
   0.21531317   0.21535379   0.22623151   0.22628026   0.2292691
   0.22929473   0.28426225   0.28430965   0.3002708    0.33221516
   0.33230529   0.34323902   0.55254835   0.57840087   0.58447506
   0.58448739   0.59699609   0.61653705   0.61657411   0.70361479
   0.70375344   0.7417304    0.78251388   0.7866767    0.78669859
   0.81027069   0.85285149   0.85313806   0.89268941   0.89286877
   0.89804261   0.92070123   0.9332149    0.93341092   0.95610558
   0.95625145   0.99259652   1.00070899   1.00083922   1.04546865
   1.05383793   1.21163513   1.21178775   1.33441071   1.33465133
   1.41010735   1.41092581   1.50996987   1.55302109   1.65557187
   1.67075047   1.67085712   1.68123901   1.75557586   1.75610039
   1.84780798   1.9235969    1.92372665   1.9312661    1.93156057
   1.95771509   1.99342886   1.99354964   2.00165851   2.12227282
   2.12257712   2.12912089   2.16502874   2.17255229   2.1728139
   2.18906844   2.18951349   2.26326817   2.29720091   2.29746326
   2.33418287   2.38078645   2.38083761   2.39487207   2.40103899
   2.40158151   2.46342837   2.49745829   2.49754555   2.53419172
   2.55738566   2.61760946   2.61766798   2.63538841   2.63578852
   2.74391309   2.7440672    2.80678433   2.81641244   2.81661312
   2.83005517   2.85949443   2.85974325   2.89510663   2.91592403
   2.92992589   2.93015112   3.12703125   3.24356255   3.24379043
   3.24947009   3.28511032   3.28521901   3.42211679   3.42279971
   3.44068715   3.47143657   3.47193265   3.53824457]
nelec by numeric integration = 47.99974442704714
    CPU time for vxc    123.80 sec, wall time      2.75 sec
 Exc = -17.835065766029903
 Exc = -36.94011219764302
E1 = -824.3413584012189  Ecoul = 368.8826739048984  Exc = -36.94011219764302
cycle= 3 E= -235.757258337149  delta_E= -0.0932  |g|= 0.0279  |ddm|= 0.578
    CPU time for cycle= 3    125.48 sec, wall time      2.78 sec
diis-norm(errvec)=0.0682749
diis-c [-0.00330569  0.02273147  0.04468997  0.93257857]
  HOMO = -0.345077192790958  LUMO = 0.121413572083423
  mo_energy =
[-10.53599079 -10.53588693 -10.53584943 -10.53556325 -10.53552143
 -10.53533038  -0.93187348  -0.83072238  -0.83062     -0.67993943
  -0.67984262  -0.6170063   -0.54531697  -0.50110374  -0.49826492
  -0.49814588  -0.43353252  -0.43238936  -0.43218173  -0.39278896
  -0.39265343  -0.36619512  -0.34529314  -0.34507719   0.12141357
   0.14261494   0.1733815    0.17343382   0.19570169   0.21449169
   0.2150382    0.21506857   0.22732505   0.22739778   0.2299998
   0.23002134   0.28421516   0.28426128   0.30093434   0.33071143
   0.33079921   0.34179128   0.55069173   0.58009022   0.58444914
   0.58446058   0.59787673   0.61637006   0.6164072    0.70348806
   0.70362429   0.74297813   0.78255734   0.78479595   0.78484113
   0.80820788   0.85265048   0.85294246   0.89345174   0.89363096
   0.89919224   0.92310903   0.9344674    0.93466817   0.95595377
   0.95611397   0.99183126   1.00064948   1.0008029    1.04685375
   1.05255062   1.21127116   1.21142899   1.33474189   1.33498358
   1.41330597   1.41414276   1.50910112   1.55377317   1.65777719
   1.67087623   1.67098615   1.68171536   1.75716902   1.75769458
   1.84681182   1.92446294   1.92460578   1.93040076   1.93070552
   1.95829477   1.993168     1.99329714   2.00186722   2.12401924
   2.12431622   2.13028084   2.16663655   2.17330059   2.17356371
   2.18958713   2.19003501   2.26615804   2.29827297   2.29855519
   2.33392818   2.38239142   2.38242233   2.39528681   2.40241414
   2.40294645   2.46709819   2.4994768    2.49956661   2.53342131
   2.558032     2.61753812   2.61760031   2.63629343   2.63670457
   2.74567044   2.74580591   2.80856261   2.81760867   2.81781354
   2.83208263   2.86121573   2.86146027   2.89513308   2.9169503
   2.93156193   2.93179169   3.12737724   3.24379034   3.24402899
   3.24874957   3.2835079    3.28364442   3.42040073   3.42113661
   3.43904031   3.47146047   3.47201339   3.53815714]
nelec by numeric integration = 47.99974684563867
    CPU time for vxc    122.39 sec, wall time      2.71 sec
 Exc = -17.83764806179998
 Exc = -36.94620216935725
E1 = -824.3209943537739  Ecoul = 368.86820298576123  Exc = -36.94620216935725
cycle= 4 E= -235.757455180555  delta_E= -0.000197  |g|= 0.00837  |ddm|= 0.0338
    CPU time for cycle= 4    124.33 sec, wall time      2.75 sec
diis-norm(errvec)=0.0185947
diis-c [-2.72045851e-05 -2.13747758e-02 -1.07513991e-02  1.63329005e-01
  8.68797170e-01]
  HOMO = -0.344212315405126  LUMO = 0.121935465019476
  mo_energy =
[-10.53343636 -10.53331737 -10.53331127 -10.53299111 -10.53298466
 -10.53277598  -0.93131499  -0.82978612  -0.82969497  -0.67876301
  -0.67867014  -0.61643404  -0.54459653  -0.49993193  -0.49773281
  -0.49762107  -0.43252756  -0.43173075  -0.43153442  -0.39233329
  -0.39220644  -0.36588022  -0.34443041  -0.34421232   0.12193547
   0.14274046   0.17395309   0.17400166   0.19599208   0.21488708
   0.21581075   0.21584335   0.22775711   0.22782224   0.23058745
   0.23061179   0.28491846   0.28497022   0.30162583   0.33176453
   0.33184898   0.34283418   0.5515472    0.58046789   0.58503604
   0.5850484    0.59815917   0.61703503   0.61707464   0.70467306
   0.70481247   0.7439908    0.78337097   0.78622947   0.78626873
   0.80968023   0.85350487   0.85378939   0.89420683   0.89439781
   0.89976574   0.92346888   0.93512259   0.93531886   0.95688028
   0.95705381   0.99307095   1.00163408   1.00179844   1.04737381
   1.0534305    1.21220849   1.21236885   1.33594371   1.33618189
   1.41350602   1.41433692   1.51043025   1.55436982   1.65853164
   1.67194567   1.67205937   1.68261845   1.75776091   1.75828705
   1.84787708   1.92532394   1.92546705   1.93157346   1.93187402
   1.95933942   1.99423959   1.99437971   2.0028286    2.12482968
   2.12511805   2.13113124   2.16735129   2.17431567   2.17459012
   2.19048765   2.19094181   2.26666001   2.29965738   2.29993419
   2.33548358   2.38310475   2.38313241   2.39616869   2.40324089
   2.40377358   2.4672719    2.50032693   2.50041729   2.53462648
   2.55927634   2.61891597   2.61897959   2.63715562   2.6375617
   2.74671464   2.74685573   2.8094208    2.81867778   2.81888056
   2.83283436   2.86223602   2.86248938   2.89633427   2.91904848
   2.93241686   2.93265024   3.12808871   3.24464875   3.24490634
   3.25004537   3.28498781   3.28513853   3.42160179   3.42235812
   3.44012725   3.47210057   3.47268452   3.53883902]
nelec by numeric integration = 47.9997461085872
    CPU time for vxc    124.57 sec, wall time      2.76 sec
 Exc = -17.835660754126096
 Exc = -36.942269931742175
E1 = -824.2772828876626  Ecoul = 368.8205395444379  Exc = -36.942269931742175
cycle= 5 E= -235.757474918152  delta_E= -1.97e-05  |g|= 0.000661  |ddm|= 0.0114
    CPU time for cycle= 5    126.73 sec, wall time      2.80 sec
diis-norm(errvec)=0.00150534
diis-c [-3.44837030e-07  2.67435583e-04  6.84819341e-04 -1.52678582e-02
 -6.29479864e-03  1.02061040e+00]
  HOMO = -0.344228997541636  LUMO = 0.121924567647018
  mo_energy =
[-10.53334146 -10.53323325 -10.53320329 -10.53290729 -10.53287444
 -10.53267831  -0.93126871  -0.82976385  -0.82966344  -0.67875685
  -0.67866058  -0.61641831  -0.54458668  -0.4999437   -0.49772041
  -0.49760287  -0.43251838  -0.43173204  -0.43152748  -0.39233063
  -0.39219722  -0.36588111  -0.34444666  -0.344229     0.12192457
   0.14274419   0.17393261   0.17398431   0.19598588   0.21488013
   0.21579707   0.21583124   0.22775283   0.22782037   0.23058717
   0.23060897   0.28491984   0.28496837   0.30164439   0.33176386
   0.3318496    0.34284455   0.55153377   0.58047492   0.58502574
   0.58503828   0.59818419   0.61703389   0.61707199   0.70473115
   0.70486883   0.74405552   0.78337644   0.78625145   0.78629649
   0.80972544   0.85350821   0.85379894   0.89419886   0.89438248
   0.89974449   0.92348986   0.93508846   0.93528883   0.95684517
   0.95701313   0.99302136   1.0015882    1.00174942   1.04735873
   1.05341406   1.21216581   1.21232344   1.33596975   1.33621003
   1.41353516   1.41437044   1.51043918   1.55433867   1.65855304
   1.67194248   1.67205579   1.68261494   1.75772422   1.7582506
   1.84790894   1.92531857   1.92546195   1.93160526   1.93190939
   1.95935029   1.99424201   1.99437718   2.00284139   2.12481577
   2.12510985   2.13110429   2.16732874   2.17429966   2.17456808
   2.19044665   2.1908988    2.26663614   2.29970574   2.29998481
   2.33547355   2.38304734   2.38307689   2.39612751   2.40321533
   2.40375175   2.46722616   2.50032365   2.500416     2.53454621
   2.5592875    2.61890645   2.61896986   2.63710362   2.63751271
   2.74672467   2.74686266   2.8094126    2.81865469   2.81885873
   2.8327867    2.86221991   2.86247066   2.89630406   2.91915827
   2.93239393   2.93262576   3.12806267   3.24465091   3.24490395
   3.25005773   3.28499687   3.28513989   3.42160891   3.42235712
   3.44012782   3.47211168   3.47268962   3.53884909]
nelec by numeric integration = 47.99974611148346
    CPU time for vxc    125.87 sec, wall time      2.79 sec
 Exc = -17.835578795528036
 Exc = -36.942125921672364
E1 = -824.2737033952868  Ecoul = 368.81681592118935  Exc = -36.942125921672364
cycle= 6 E= -235.757475038955  delta_E= -1.21e-07  |g|= 5.19e-05  |ddm|= 0.000943
    CPU time for cycle= 6    127.66 sec, wall time      2.82 sec
diis-norm(errvec)=0.000111629
diis-c [-7.75700582e-09  1.84133434e-04  6.43088517e-05 -2.02704801e-03
 -7.14016623e-03 -1.00723031e-02  1.01899108e+00]
  HOMO = -0.344230025490302  LUMO = 0.121929378539742
  mo_energy =
[-10.53334815 -10.53322983 -10.53322217 -10.53290343 -10.53289535
 -10.53268738  -0.93126458  -0.82975611  -0.82966454  -0.67875189
  -0.67865862  -0.61641046  -0.54458377  -0.49994124  -0.49771176
  -0.49759951  -0.4325198   -0.43172679  -0.43152993  -0.39232172
  -0.39219426  -0.36587535  -0.3444483   -0.34423003   0.12192938
   0.14275081   0.17393821   0.17398701   0.19599202   0.21488471
   0.21580119   0.21583388   0.22775966   0.22782503   0.23059126
   0.23061531   0.28492176   0.28497322   0.30164948   0.33176769
   0.33185216   0.34284911   0.55153438   0.58048284   0.58503019
   0.58504263   0.5981912    0.61703801   0.61707748   0.70473302
   0.70487215   0.7440592    0.78338078   0.7862564    0.78629612
   0.80972765   0.85351592   0.85380081   0.89419949   0.89438973
   0.89975261   0.92349746   0.9350963    0.93529274   0.95684746
   0.95701996   0.99302502   1.00159225   1.00175565   1.04736614
   1.05341793   1.2121698    1.21233028   1.33597782   1.33621614
   1.41354622   1.41437696   1.51044415   1.55434692   1.6585618
   1.67194896   1.6720623    1.68262157   1.75773191   1.75825787
   1.84791268   1.92532617   1.92546904   1.93161071   1.93191159
   1.95935704   1.99424424   1.9943837    2.00284624   2.12482543
   2.12511428   2.13111099   2.16733638   2.17430242   2.17457618
   2.19045242   2.19090635   2.26664644   2.29971451   2.29999161
   2.33547915   2.38305626   2.3830842    2.39613315   2.40322446
   2.4037575    2.46723709   2.50033361   2.50042412   2.53455095
   2.55929483   2.6189117    2.61897527   2.63711157   2.63751798
   2.74673166   2.74687251   2.80941965   2.81866198   2.81886515
   2.83279442   2.86222597   2.8624794    2.89630841   2.91916796
   2.93239959   2.93263292   3.12806955   3.24465587   3.24491263
   3.25006535   3.28499981   3.28514925   3.42161182   3.4223669
   3.44013368   3.47211733   3.47269912   3.53885693]
nelec by numeric integration = 47.99974611164854
    CPU time for vxc    124.84 sec, wall time      2.76 sec
 Exc = -17.835581976669996
 Exc = -36.9421338905607
E1 = -824.2737949477153  Ecoul = 368.8169154416595  Exc = -36.9421338905607
cycle= 7 E= -235.757475039802  delta_E= -8.47e-10  |g|= 3.24e-05  |ddm|= 0.000135
    CPU time for cycle= 7    126.57 sec, wall time      2.80 sec
diis-norm(errvec)=6.72916e-05
diis-c [-5.30874305e-10  7.61776904e-05  1.47558381e-05 -5.82047894e-04
 -3.03995412e-03 -2.47720929e-02  4.42109587e-01  5.86193575e-01]
  HOMO = -0.344230188694348  LUMO = 0.121929517610857
  mo_energy =
[-10.53334917 -10.53323645 -10.5332167  -10.53291027 -10.53288908
 -10.53268744  -0.93126451  -0.82975843  -0.8296621   -0.67875264
  -0.67865777  -0.61641054  -0.54458363  -0.49994101  -0.49771317
  -0.49759806  -0.43251957  -0.43172888  -0.43152785  -0.39232334
  -0.39219271  -0.36587539  -0.34444814  -0.34423019   0.12192952
   0.14275096   0.17393756   0.17398791   0.1959921    0.21488509
   0.21580099   0.21583446   0.22775915   0.22782569   0.23059216
   0.230615     0.28492268   0.28497257   0.30164969   0.33176754
   0.33185268   0.34284922   0.55153447   0.58048293   0.58503027
   0.58504275   0.59819134   0.61703849   0.6170772    0.70473351
   0.70487184   0.74405931   0.78338082   0.78625508   0.78629765
   0.80972769   0.85351448   0.85380251   0.89420146   0.89438814
   0.8997528    0.92349748   0.93509552   0.93529407   0.95684886
   0.95701891   0.99302534   1.00159305   1.00175525   1.04736639
   1.05341818   1.21217086   1.21232981   1.33597755   1.33621692
   1.41354515   1.41437832   1.51044444   1.5543472    1.65856198
   1.67194927   1.6720626    1.68262172   1.75773199   1.75825816
   1.84791267   1.92532624   1.92546938   1.93160989   1.93191252
   1.95935735   1.99424557   1.99438272   2.00284633   2.12482422
   2.12511588   2.1311112    2.16733652   2.17430415   2.17457503
   2.19045322   2.19090619   2.26664661   2.29971417   2.29999236
   2.33547965   2.38305615   2.38308495   2.39613355   2.40322383
   2.40375866   2.46723714   2.50033336   2.50042486   2.53455146
   2.55929492   2.61891202   2.6189755    2.63711114   2.63751899
   2.74673267   2.74687195   2.80941968   2.81866191   2.81886555
   2.83279468   2.86222696   2.86247895   2.89630875   2.91916835
   2.93240018   2.93263271   3.12806937   3.24465677   3.24491155
   3.2500654    3.2850018    3.28514779   3.42161388   3.42236527
   3.44013388   3.47211822   3.47269792   3.53885685]
nelec by numeric integration = 47.99974611189486
    CPU time for vxc    123.83 sec, wall time      2.75 sec
 Exc = -17.83558226224292
 Exc = -36.94213456367042
E1 = -824.2738043537001  Ecoul = 368.81692552049884  Exc = -36.94213456367042
cycle= 8 E= -235.757475040057  delta_E= -2.55e-10  |g|= 3.56e-06  |ddm|= 2.8e-05
    CPU time for cycle= 8    125.43 sec, wall time      2.78 sec
  HOMO = -0.344230045569341  LUMO = 0.121929500635854
  mo_energy =
[-10.53334887 -10.53323523 -10.53321753 -10.532909   -10.53289009
 -10.53268737  -0.93126447  -0.82975798  -0.82966247  -0.6787525
  -0.67865789  -0.61641072  -0.54458355  -0.49994089  -0.49771298
  -0.49759837  -0.43251939  -0.43172841  -0.4315281   -0.39232318
  -0.39219309  -0.36587551  -0.34444806  -0.34423005   0.1219295
   0.14275093   0.17393769   0.17398777   0.19599201   0.21488512
   0.21580122   0.21583454   0.22775919   0.22782553   0.23059219
   0.23061523   0.2849226    0.28497276   0.30164973   0.33176771
   0.33185274   0.34284925   0.55153458   0.5804828    0.58503029
   0.58504276   0.59819128   0.61703845   0.61707728   0.70473355
   0.70487202   0.74405942   0.78338079   0.78625544   0.78629752
   0.80972777   0.85351477   0.85380227   0.89420125   0.89438854
   0.89975273   0.92349737   0.93509579   0.93529397   0.95684869
   0.95701916   0.9930255    1.00159299   1.00175539   1.04736641
   1.05341829   1.21217082   1.21233003   1.33597773   1.33621692
   1.41354528   1.41437804   1.51044457   1.55434718   1.65856196
   1.67194937   1.6720627    1.6826217    1.75773198   1.75825812
   1.84791268   1.92532628   1.92546937   1.9316101    1.93191243
   1.95935746   1.99424544   1.99438299   2.00284635   2.12482446
   2.12511564   2.13111123   2.16733646   2.17430399   2.17457537
   2.19045321   2.19090634   2.26664649   2.2997143    2.2999923
   2.33547989   2.38305624   2.38308489   2.39613362   2.40322404
   2.40375857   2.46723692   2.50033343   2.50042475   2.53455166
   2.55929487   2.61891211   2.61897561   2.63711131   2.63751892
   2.74673253   2.74687208   2.80941961   2.81866192   2.81886549
   2.83279469   2.86222689   2.86247912   2.89630893   2.91916851
   2.93240013   2.9326328    3.12806913   3.24465641   3.24491152
   3.25006535   3.28500156   3.28514815   3.42161358   3.42236562
   3.44013389   3.47211781   3.47269787   3.53885666]
nelec by numeric integration = 47.99974611189697
    CPU time for vxc    119.48 sec, wall time      2.65 sec
 Exc = -17.835582185793143
 Exc = -36.94213444890437
E1 = -824.2738020404001  Ecoul = 368.8169230924316  Exc = -36.94213444890437
Extra cycle  E= -235.757475040058  delta_E= -1.19e-12  |g|= 2.98e-06  |ddm|= 7.55e-06
    CPU time for scf_cycle   1339.54 sec, wall time     29.67 sec
    CPU time for SCF   1339.55 sec, wall time     29.67 sec
converged SCF energy = -235.757475040058
atom C rad-grids = 75, ang-grids = [ 50  50  50  50  50  50  50  50  50  50  50  50  50  50  50  50  50  50
  50  50  50  50  50  86  86  86  86  86  86  86  86  86  86 266 266 266
 266 266 266 266 302 302 302 302 302 302 302 302 302 302 302 302 302 302
 302 302 302 302 302 302 266 266 266 266 266 266 266 266 266 266 266 266
 266 266 266]
atom H rad-grids = 50, ang-grids = [ 50  50  50  50  50  50  50  50  50  50  50  50  50  50  86  86  86  86
 266 266 266 266 302 302 302 302 302 302 302 302 302 302 302 302 302 266
 266 266 266 266 266 266 266 266 266 266 266 266 266 266]
tot grids = 203700
