#INFO: **** input file is /home/liwei01/wsr/dftpart/test_2body/beta/eda_ex.py ****
from dftpart import scfeda
import numpy as np

frg = [
    [33,34,35,36,37,38,59,60,61,62,63,64,65,66,67,68,69],
    [1,2,3,4,5,6,7,8,9,10,28,29,51,52,53,54,55,56,57,58],
    [11,12,13,14,15,16,17,18,19,20,30,31,43,44,45,46,47,48,49,50],
    [21,22,23,24,25,26,27,32,39,40,41,42,70,71]
]


test1 = scfeda.EDA()
test1.gjf = 'beta.gjf'
test1.method = ['hf','6-31gss']
test1.output = 'beta'
#test1.cart = False
#test1.build()
test1.showinter=True
atm_E, totE, conv, inter_terms = test1.kernel()
        
RR1, RR2, RR3, RR4 = inter_terms

E1 = np.zeros((4))
E2 = np.zeros((4,4))
#E3 = np.zeros((4,4,4))
#E4 = np.zeros((4,4,4,4))
E3 = RR3
E4 = RR4

for f in range(4):
    for i in frg[f]:
        E1[f] += RR1[i-1]

for f1 in range(4):
    for f2 in range(f1,4):
        if f2==f1:
            for i in frg[f1]:
                for j in frg[f2]:
                    if i < j:
                        E1[f1] += RR2[i-1,j-1]
                    else:
                        E1[f1] += RR2[j-1,i-1]
        else:
            for i in frg[f1]:
                for j in frg[f2]:
                    if i < j:
                        E2[f1,f2] += RR2[i-1,j-1]
                    else:
                        E2[f1,f2] += RR2[j-1,i-1]
print(E1)
print(E2)
print(E3)
print(E4)
#INFO: ******************** input file end ********************


System: uname_result(system='Linux', node='node08', release='3.10.0-693.el7.x86_64', version='#1 SMP Tue Aug 22 21:09:27 UTC 2017', machine='x86_64', processor='x86_64')  Threads 24
Python 3.6.4 |Anaconda, Inc.| (default, Jan 16 2018, 18:10:19) 
[GCC 7.2.0]
numpy 1.14.0  scipy 1.0.0
Date: Wed Feb 12 16:05:10 2020
PySCF version 1.5.4
PySCF path  /home/liwei01/liaokang/anaconda3/lib/python3.6/site-packages/pyscf

[CONFIG] conf_file None
[INPUT] verbose = 4
[INPUT] num. atoms = 71
[INPUT] num. electrons = 268
[INPUT] charge = 1
[INPUT] spin (= nelec alpha-beta = 2S) = 0
[INPUT] symmetry False subgroup None
[INPUT] Mole.unit = angstrom
[INPUT]  1 C    -28.920111030000  -0.109570750000   0.408427110000 AA  -54.651089338713  -0.207058708763   0.771815379748 Bohr
[INPUT]  2 O    -28.950711060000  -0.892729380000   1.392941890000 AA  -54.708915014817  -1.687014031553   2.632278679534 Bohr
[INPUT]  3 N    -27.797561930000   0.022480950000  -0.306761270000 AA  -52.529778978336   0.042482838520  -0.579694785924 Bohr
[INPUT]  4 H    -27.773911090000   0.644220920000  -1.089624060000 AA  -52.485085368120   1.217401102515  -2.059091052137 Bohr
[INPUT]  5 C    -26.598606480000  -0.745745670000   0.057770730000 AA  -50.264081542282  -1.409255074880   0.109170857716 Bohr
[INPUT]  6 C    -25.340848590000   0.050796840000  -0.335440780000 AA  -47.887263599171   0.095992115593  -0.633891205210 Bohr
[INPUT]  7 O    -25.374537530000   0.833477820000  -1.320246880000 AA  -47.950926469198   1.575044810700  -2.494905020012 Bohr
[INPUT]  8 N    -24.212660430000  -0.088516480000   0.369510110000 AA  -45.755296959794  -0.167271904711   0.698272908158 Bohr
[INPUT]  9 H    -24.184792710000  -0.711669510000   1.151110050000 AA  -45.702634601278  -1.344860465103   2.175282733734 Bohr
[INPUT] 10 C    -23.014004340000   0.675290950000  -0.005131830000 AA  -43.490165232152   1.276114949897  -0.009697753218 Bohr
[INPUT] 11 C    -21.754647470000  -0.124671670000   0.375896940000 AA  -41.110325654762  -0.235595311792   0.710342267662 Bohr
[INPUT] 12 O    -21.780778660000  -0.908886830000   1.359730610000 AA  -41.159706447171  -1.717547186924   2.569518456088 Bohr
[INPUT] 13 N    -20.632814000000   0.014707980000  -0.339145680000 AA  -38.990367639092   0.027794054046  -0.640892451529 Bohr
[INPUT] 14 H    -20.612936100000   0.636844800000  -1.121814250000 AA  -38.952803852160   1.203462255853  -2.119921695134 Bohr
[INPUT] 15 C    -19.429167580000  -0.746117790000   0.025580190000 AA  -36.715805554479  -1.409958279766   0.048339553314 Bohr
[INPUT] 16 C    -18.175880330000   0.058417130000  -0.366338780000 AA  -34.347435896569   0.110392376683  -0.692279963007 Bohr
[INPUT] 17 O    -18.213071120000   0.840796340000  -1.351228050000 AA  -34.417716304025   1.588874809137  -2.553450946330 Bohr
[INPUT] 18 N    -17.047892030000  -0.073972810000   0.340368620000 AA  -32.215846937856  -0.139788351564   0.643203473196 Bohr
[INPUT] 19 H    -17.017825430000  -0.696874980000   1.122050730000 AA  -32.159029298359  -1.316902855262   2.120368577568 Bohr
[INPUT] 20 C    -15.852661120000   0.696599260000  -0.031742890000 AA  -29.957187862341   1.316381819975  -0.059985368502 Bohr
[INPUT] 21 C    -14.589935540000  -0.096501520000   0.353006640000 AA  -27.570982345658  -0.182361443404   0.667085869753 Bohr
[INPUT] 22 O    -14.615160270000  -0.881088620000   1.336541580000 AA  -27.618650176924  -1.665016183271   2.525697540293 Bohr
[INPUT] 23 N    -13.466256970000   0.048825600000  -0.358135010000 AA  -25.447537596315   0.092267011868  -0.676777084518 Bohr
[INPUT] 24 H    -13.446356330000   0.672297800000  -1.139713130000 AA  -25.409930837012   1.270458716148  -2.153745676271 Bohr
[INPUT] 25 C    -12.260607560000  -0.707723580000   0.009336550000 AA  -23.169190409172  -1.337403738097   0.017643522448 Bohr
[INPUT] 26 C    -11.008969580000   0.101886770000  -0.377239030000 AA  -20.803937419868   0.192538091017  -0.712878450197 Bohr
[INPUT] 27 O    -11.046095600000   0.886855840000  -1.360128070000 AA  -20.874095429763   1.675914649571  -2.570269546633 Bohr
[INPUT] 28 H    -26.594407330000  -0.920996050000   1.113347260000 AA  -50.256146298826  -1.740430296306   2.103921402935 Bohr
[INPUT] 29 H    -23.018767620000   0.851409860000  -1.060516680000 AA  -43.499166526806   1.608931455154  -2.004086075733 Bohr
[INPUT] 30 H    -19.424531100000  -0.921751300000   1.081037230000 AA  -36.707043877097  -1.741857511962   2.042864295158 Bohr
[INPUT] 31 H    -15.855739060000   0.872403440000  -1.087205980000 AA  -29.963004325969   1.648603571728  -2.054521543189 Bohr
[INPUT] 32 H    -12.258706360000  -0.885174460000   1.064518740000 AA  -23.165597661864  -1.672737301860   2.011648873067 Bohr
[INPUT] 33 N    -31.377540440000  -0.060045220000   0.402188150000 AA  -59.294957894065  -0.113469020889   0.760025454045 Bohr
[INPUT] 34 H    -30.178931740000   0.872517680000  -1.028827790000 AA  -57.029915720544   1.648819454041  -1.944202752442 Bohr
[INPUT] 35 C    -30.174996150000   0.697264890000   0.026727810000 AA  -57.022478533305   1.317639678375   0.050508240809 Bohr
[INPUT] 36 C    -32.505438290000   0.083620680000  -0.302468230000 AA  -61.426375927050   0.158020183550  -0.571582116082 Bohr
[INPUT] 37 O    -32.536841670000   0.866968140000  -1.286800630000 AA  -61.485719714636   1.638332343324  -2.431700767618 Bohr
[INPUT] 38 H    -31.352435310000  -0.682590630000   1.184380640000 AA  -59.247516074043  -1.289909345894   2.238155036837 Bohr
[INPUT] 39 C    -12.251926190000  -2.054347480000  -0.737724700000 AA  -23.152784997486  -3.882154101890  -1.394097638327 Bohr
[INPUT] 40 H    -13.121560440000  -2.616882950000  -0.469112760000 AA  -24.796155558527  -4.945192075544  -0.886494637939 Bohr
[INPUT] 41 H    -11.374326610000  -2.604944020000  -0.470265160000 AA  -21.494362144253  -4.922630767624  -0.888672358325 Bohr
[INPUT] 42 H    -12.253823950000  -1.876855060000  -1.792896960000 AA  -23.156371244136  -3.546742038904  -3.388084223965 Bohr
[INPUT] 43 C    -15.858912610000   2.044421390000   0.713194590000 AA  -29.969001466311   3.863396510303   1.347742448621 Bohr
[INPUT] 44 H    -16.736251280000   2.595555900000   0.445902080000 AA  -31.626931271101   4.904889791999   0.842632809574 Bohr
[INPUT] 45 H    -14.988984930000   2.605551860000   0.442608720000 AA  -28.325076402933   4.923779418751   0.836409261144 Bohr
[INPUT] 46 H    -15.855922100000   1.868614260000   1.768639820000 AA  -29.963350221439   3.531169183857   3.342244872800 Bohr
[INPUT] 47 C    -19.428198800000  -2.094142990000  -0.719021080000 AA  -36.713974825604  -3.957356716778  -1.358752918989 Bohr
[INPUT] 48 H    -20.299204580000  -2.652729940000  -0.446538790000 AA  -38.359937202717  -5.012933069034  -0.843836017095 Bohr
[INPUT] 49 H    -18.551924290000  -2.647751150000  -0.453376360000 AA  -35.058055991766  -5.003524519502  -0.856757151752 Bohr
[INPUT] 50 H    -19.432823000000  -1.918590110000  -1.774505350000 AA  -36.722713297149  -3.625609853199  -3.353329118075 Bohr
[INPUT] 51 C    -23.010894090000   2.022792080000   0.740370590000 AA  -43.484287711473   3.822523038139   1.399097645783 Bohr
[INPUT] 52 H    -23.885884430000   2.578842260000   0.475622530000 AA  -45.137779815713   4.873305589854   0.898796320373 Bohr
[INPUT] 53 H    -22.138605630000   2.579259960000   0.467736470000 AA  -41.835901420454   4.874094928457   0.883893826771 Bohr
[INPUT] 54 H    -23.006084640000   1.846525520000   1.795751770000 AA  -43.475199168163   3.489427514820   3.393479033003 Bohr
[INPUT] 55 C    -26.606404760000  -2.094047750000  -0.686251870000 AA  -50.278818155724  -3.957176739262  -1.296828086771 Bohr
[INPUT] 56 H    -27.480621710000  -2.647179840000  -0.412949210000 AA  -51.930848764677  -5.002444900070  -0.780360910256 Bohr
[INPUT] 57 H    -25.733347790000  -2.652871910000  -0.420945040000 AA  -48.628979591282  -5.013201353452  -0.795470839094 Bohr
[INPUT] 58 H    -26.610664870000  -1.918884680000  -1.741796320000 AA  -50.286868596885  -3.626166509824  -3.291518009575 Bohr
[INPUT] 59 C    -30.164319540000   2.045480290000   0.770870640000 AA  -57.002302664466   3.865397541296   1.456734387068 Bohr
[INPUT] 60 H    -29.288881960000   2.596749870000   0.497672500000 AA  -55.347965399114   4.907146068300   0.940464724728 Bohr
[INPUT] 61 H    -30.160500490000   1.870257120000   1.826413170000 AA  -56.995085705910   3.534273739318   3.451420681599 Bohr
[INPUT] 62 H    -31.036140710000   2.606227540000   0.505558050000 AA  -58.649805905364   4.925056268899   0.955366254569 Bohr
[INPUT] 63 C    -33.765340900000  -0.709626040000   0.090999030000 AA  -63.807246803575  -1.340998866460   0.171963244301 Bohr
[INPUT] 64 H    -34.341294160000  -0.140328620000   0.790338930000 AA  -64.895640725526  -0.265182659238   1.493524123282 Bohr
[INPUT] 65 H    -33.477086690000  -1.637914520000   0.538357340000 AA  -63.262525292422  -3.095209858248   1.017347929749 Bohr
[INPUT] 66 N    -34.572686960000  -0.973648100000  -1.108711800000 AA  -65.332909744722  -1.839928250703  -2.095161653074 Bohr
[INPUT] 67 H    -34.034330820000  -1.505609110000  -1.762326400000 AA  -64.315564082644  -2.845188868550  -3.330314238091 Bohr
[INPUT] 68 H    -35.390759710000  -1.488847660000  -0.853210490000 AA  -66.878843192192  -2.813514318600  -1.612334152706 Bohr
[INPUT] 69 H    -34.842157950000  -0.106113490000  -1.526730200000 AA  -65.842136114337  -0.200525434222  -2.885101944102 Bohr
[INPUT] 70 O     -9.912954450000  -0.025742760000   0.312544150000 AA  -18.732768995788  -0.048646766090   0.590622845335 Bohr
[INPUT] 71 H     -9.132680890000   0.479060530000   0.071696340000 AA  -17.258265665149   0.905293198789   0.135486446734 Bohr

nuclear repulsion = 3487.20830268771
number of shells = 318
number of NR pGTOs = 1197
number of NR cGTOs = 670
basis = 6-31gss
ecp = {}
CPU time:         3.18


******** <class 'pyscf.scf.hf.RHF'> flags ********
method = RHF
initial guess = minao
damping factor = 0
level shift factor = 0
DIIS = <class 'pyscf.scf.diis.CDIIS'>
DIIS start cycle = 1
DIIS space = 8
SCF tol = 1e-09
SCF gradient tol = None
max. SCF cycles = 50
direct_scf = True
direct_scf_tol = 1e-13
chkfile to save SCF result = /home/liwei01/wsr/dftpart/test_2body/beta/tmp5r6n0ob_
max_memory 4000 MB (current use 77 MB)
Set gradient conv threshold to 3.16228e-05
init E= -1768.76983647339
  HOMO = -0.289229562482384  LUMO = 0.0136851683624427
cycle= 1 E= -1757.30437104422  delta_E= 11.5  |g|= 2.05  |ddm|= 7.98
  HOMO = -0.349630470902236  LUMO = -0.0698151105051163
cycle= 2 E= -1757.83055580106  delta_E= -0.526  |g|=  1.6  |ddm|= 3.09
  HOMO = -0.429113129682346  LUMO = -0.0336893705634939
cycle= 3 E= -1758.31568526148  delta_E= -0.485  |g|= 0.217  |ddm|= 1.44
  HOMO = -0.430551399737354  LUMO = -0.0158421776330808
cycle= 4 E= -1758.3306606903  delta_E= -0.015  |g|= 0.0618  |ddm|= 0.29
  HOMO = -0.431957181331572  LUMO = -0.0199725185350425
cycle= 5 E= -1758.33188004773  delta_E= -0.00122  |g|= 0.0206  |ddm|= 0.0862
  HOMO = -0.431888661138079  LUMO = -0.0200236211741356
cycle= 6 E= -1758.33217012526  delta_E= -0.00029  |g|= 0.00943  |ddm|= 0.0491
  HOMO = -0.43165675664487  LUMO = -0.0199912912509173
cycle= 7 E= -1758.33223453995  delta_E= -6.44e-05  |g|= 0.00453  |ddm|= 0.0246
  HOMO = -0.431649130907118  LUMO = -0.0201360420759716
cycle= 8 E= -1758.33224610702  delta_E= -1.16e-05  |g|= 0.00152  |ddm|= 0.0108
  HOMO = -0.431652807742419  LUMO = -0.0201532403828162
cycle= 9 E= -1758.33224731727  delta_E= -1.21e-06  |g|= 0.000548  |ddm|= 0.00319
  HOMO = -0.431624959884622  LUMO = -0.0201565167267323
cycle= 10 E= -1758.33224745597  delta_E= -1.39e-07  |g|= 0.000172  |ddm|= 0.00096
  HOMO = -0.431618494579613  LUMO = -0.020163507657351
cycle= 11 E= -1758.33224747105  delta_E= -1.51e-08  |g|= 4.97e-05  |ddm|= 0.000308
  HOMO = -0.431619810484461  LUMO = -0.0201650166219891
cycle= 12 E= -1758.33224747237  delta_E= -1.32e-09  |g|= 1.69e-05  |ddm|= 9.17e-05
  HOMO = -0.43161851083919  LUMO = -0.0201651416106932
cycle= 13 E= -1758.33224747252  delta_E= -1.51e-10  |g|= 6.76e-06  |ddm|= 3.04e-05
  HOMO = -0.431618277927414  LUMO = -0.0201651079115225
Extra cycle  E= -1758.33224747255  delta_E= -2.91e-11  |g|= 4.27e-06  |ddm|= 1.11e-05
converged SCF energy = -1758.33224747255
