#INFO: **** input file is /share/home/srwang/dftpart/test_2body/c8b_nofrg/eda_c8.py ****
from dftpart.eda import scfeda
from pyscf import lib

with lib.with_omp_threads(4):
    test1 = scfeda.EDA()
    test1.gjf = 'c8b_nofrg.gjf'
    test1.method = ['pbe0','6-31gss']
    test1.output = 'c8b_nofrg'
    test1.verbose = 9
    #test1.build()
    #test1.showinter=True
    #test1.lso = 'c8b/c8b.lso'
    test1.kernel()
        

#INFO: ******************** input file end ********************


System: uname_result(system='Linux', node='xn01', release='3.10.0-1127.el7.x86_64', version='#1 SMP Tue Feb 18 16:39:12 EST 2020', machine='x86_64', processor='x86_64')  Threads 4
Python 3.7.4 (default, Aug 13 2019, 20:35:49) 
[GCC 7.3.0]
numpy 1.17.2  scipy 1.4.1
Date: Sun Jan 31 22:16:55 2021
PySCF version 1.7.5
PySCF path  /share/home/srwang/pyscf-1.7.5/pyscf

[CONFIG] DEBUG = False
[CONFIG] MAX_MEMORY = 4000
[CONFIG] TMPDIR = .
[CONFIG] UNIT = angstrom
[CONFIG] VERBOSE = 3
[CONFIG] conf_file = None
[INPUT] verbose = 9
[INPUT] max_memory = 4000 
[INPUT] num. atoms = 23
[INPUT] num. electrons = 74
[INPUT] charge = 0
[INPUT] spin (= nelec alpha-beta = 2S) = 0
[INPUT] symmetry False subgroup None
[INPUT] Mole.unit = angstrom
[INPUT]  1 C     -7.241242980000   0.108119710000  -0.522802850000 AA  -13.683966033629   0.204316640567  -0.987954203642 Bohr
[INPUT]  2 H     -7.548001040000   1.132595610000  -0.487467080000 AA  -14.263654753532   2.140295512785  -0.921179275941 Bohr
[INPUT]  3 H     -7.637948220000  -0.352815550000  -1.403179830000 AA  -14.433630289409  -0.666724761988  -2.651625582214 Bohr
[INPUT]  4 C     -5.703344760000   0.033502950000  -0.552826490000 AA  -10.777759590373   0.063311399865  -1.044690660505 Bohr
[INPUT]  5 H     -5.306639520000   0.494438220000   0.327550490000 AA  -10.028095334593   0.934352821317   0.618980718067 Bohr
[INPUT]  6 C     -5.177907760000   0.769963360000  -1.799077680000 AA   -9.784827564660   1.455019876350  -3.399764092018 Bohr
[INPUT]  7 H     -5.484665830000   1.794439260000  -1.763741910000 AA  -10.364516303460   3.390998748567  -3.332989164317 Bohr
[INPUT]  8 H     -5.574613010000   0.309028090000  -2.679454660000 AA  -10.534491839337   0.583978454897  -5.063435470590 Bohr
[INPUT]  9 C     -3.114572550000   1.431807010000  -3.075352510000 AA   -5.885689114588   2.705723112132  -5.811573980394 Bohr
[INPUT] 10 H     -3.421330610000   2.456282910000  -3.040016740000 AA   -6.465377834491   4.641701984350  -5.744799052693 Bohr
[INPUT] 11 H     -3.511277790000   0.970871740000  -3.955729490000 AA   -6.635353370368   1.834681690680  -7.475245358965 Bohr
[INPUT] 12 C     -1.576674330000   1.357190240000  -3.105376150000 AA   -2.979482671332   2.564717852533  -5.868310437256 Bohr
[INPUT] 13 H     -1.269916260000   0.332714340000  -3.140711910000 AA   -2.399793932532   0.628738980315  -5.935085346060 Bohr
[INPUT] 14 H     -1.179969090000   1.818125510000  -2.224999170000 AA   -2.229818415552   3.435759273985  -4.204639058685 Bohr
[INPUT] 15 N     -1.075120830000   2.060175180000  -4.294979550000 AA   -2.031683919515   3.893166858827  -8.116335060108 Bohr
[INPUT] 16 H     -1.361810610000   3.017629290000  -4.261955470000 AA   -2.573449086427   5.702492903566  -8.053928593392 Bohr
[INPUT] 17 H     -0.076485620000   2.011722740000  -4.314475430000 AA   -0.144536874268   3.801605017160  -8.153176933865 Bohr
[INPUT] 18 F     -5.316313560000  -1.259060100000  -0.597409000000 AA  -10.046376620711  -2.379278763367  -1.128939394350 Bohr
[INPUT] 19 O     -7.729148760000  -0.575736380000   0.634430400000 AA  -14.605974332422  -1.087984078149   1.198899701098 Bohr
[INPUT] 20 H     -8.687838560000  -0.529222040000   0.653146440000 AA  -16.417635492836  -1.000084714684   1.234267890835 Bohr
[INPUT] 21 C     -3.640009550000   0.695346600000  -1.829101320000 AA   -6.878621140301   1.314014635647  -3.456500548880 Bohr
[INPUT] 22 H     -3.333251480000  -0.329129310000  -1.864437080000 AA   -6.298932401501  -0.621964255467  -3.523275457684 Bohr
[INPUT] 23 H     -3.243304300000   1.156281860000  -0.948724340000 AA   -6.128956865624   2.185056038203  -1.792829170309 Bohr
[INPUT] ---------------- BASIS SET ---------------- 
[INPUT] l, kappa, [nprim/nctr], expnt,             c_1 c_2 ...
[INPUT] O
[INPUT] 0    0    [6    /1   ]  5484.6717         0.0018311
                                825.23495         0.0139501
                                188.04696         0.0684451
                                52.9645           0.2327143
                                16.89757          0.470193
                                5.7996353         0.3585209
[INPUT] 0    0    [3    /1   ]  15.539616         -0.1107775
                                3.5999336         -0.1480263
                                1.0137618         1.130767
[INPUT] 0    0    [1    /1   ]  0.2700058            1
[INPUT] 1    0    [3    /1   ]  15.539616         0.0708743
                                3.5999336         0.3397528
                                1.0137618         0.7271586
[INPUT] 1    0    [1    /1   ]  0.2700058            1
[INPUT] 2    0    [1    /1   ]  0.8                  1
[INPUT] F
[INPUT] 0    0    [6    /1   ]  7001.71309        0.0018196169
                                1051.36609        0.0139160796
                                239.28569         0.0684053245
                                67.3974453        0.23318576
                                21.5199573        0.471267439
                                7.4031013         0.356618546
[INPUT] 0    0    [3    /1   ]  20.8479528        -0.108506975
                                4.80830834        -0.146451658
                                1.34406986        1.12868858
[INPUT] 0    0    [1    /1   ]  0.358151393          1
[INPUT] 1    0    [3    /1   ]  20.8479528        0.0716287243
                                4.80830834        0.345912103
                                1.34406986        0.722469957
[INPUT] 1    0    [1    /1   ]  0.358151393          1
[INPUT] 2    0    [1    /1   ]  0.8                  1
[INPUT] N
[INPUT] 0    0    [6    /1   ]  4173.511          0.0018348
                                627.4579          0.013995
                                142.9021          0.068587
                                40.23433          0.232241
                                12.82021          0.46907
                                4.390437          0.360455
[INPUT] 0    0    [3    /1   ]  11.626358         -0.114961
                                2.71628           -0.169118
                                0.772218          1.145852
[INPUT] 0    0    [1    /1   ]  0.2120313            1
[INPUT] 1    0    [3    /1   ]  11.626358         0.06758
                                2.71628           0.323907
                                0.772218          0.740895
[INPUT] 1    0    [1    /1   ]  0.2120313            1
[INPUT] 2    0    [1    /1   ]  0.8                  1
[INPUT] C
[INPUT] 0    0    [6    /1   ]  3047.5249         0.0018347
                                457.36951         0.0140373
                                103.94869         0.0688426
                                29.210155         0.2321844
                                9.286663          0.4679413
                                3.163927          0.362312
[INPUT] 0    0    [3    /1   ]  7.8682724         -0.1193324
                                1.8812885         -0.1608542
                                0.5442493         1.1434564
[INPUT] 0    0    [1    /1   ]  0.1687144            1
[INPUT] 1    0    [3    /1   ]  7.8682724         0.0689991
                                1.8812885         0.316424
                                0.5442493         0.7443083
[INPUT] 1    0    [1    /1   ]  0.1687144            1
[INPUT] 2    0    [1    /1   ]  0.8                  1
[INPUT] H
[INPUT] 0    0    [3    /1   ]  18.731137         0.0334946
                                2.8253937         0.23472695
                                0.6401217         0.81375733
[INPUT] 0    0    [1    /1   ]  0.1612778            1
[INPUT] 1    0    [1    /1   ]  1.1                  1

nuclear repulsion = 470.404719938659
number of shells = 96
number of NR pGTOs = 341
number of NR cGTOs = 196
basis = 6-31gss
ecp = {}
bas 0, expnt(s) = [3047.5249    457.36951   103.94869    29.210155    9.286663    3.163927]
bas 1, expnt(s) = [7.8682724 1.8812885 0.5442493]
bas 2, expnt(s) = [0.1687144]
bas 3, expnt(s) = [7.8682724 1.8812885 0.5442493]
bas 4, expnt(s) = [0.1687144]
bas 5, expnt(s) = [0.8]
bas 6, expnt(s) = [18.731137   2.8253937  0.6401217]
bas 7, expnt(s) = [0.1612778]
bas 8, expnt(s) = [1.1]
bas 9, expnt(s) = [18.731137   2.8253937  0.6401217]
bas 10, expnt(s) = [0.1612778]
bas 11, expnt(s) = [1.1]
bas 12, expnt(s) = [3047.5249    457.36951   103.94869    29.210155    9.286663    3.163927]
bas 13, expnt(s) = [7.8682724 1.8812885 0.5442493]
bas 14, expnt(s) = [0.1687144]
bas 15, expnt(s) = [7.8682724 1.8812885 0.5442493]
bas 16, expnt(s) = [0.1687144]
bas 17, expnt(s) = [0.8]
bas 18, expnt(s) = [18.731137   2.8253937  0.6401217]
bas 19, expnt(s) = [0.1612778]
bas 20, expnt(s) = [1.1]
bas 21, expnt(s) = [3047.5249    457.36951   103.94869    29.210155    9.286663    3.163927]
bas 22, expnt(s) = [7.8682724 1.8812885 0.5442493]
bas 23, expnt(s) = [0.1687144]
bas 24, expnt(s) = [7.8682724 1.8812885 0.5442493]
bas 25, expnt(s) = [0.1687144]
bas 26, expnt(s) = [0.8]
bas 27, expnt(s) = [18.731137   2.8253937  0.6401217]
bas 28, expnt(s) = [0.1612778]
bas 29, expnt(s) = [1.1]
bas 30, expnt(s) = [18.731137   2.8253937  0.6401217]
bas 31, expnt(s) = [0.1612778]
bas 32, expnt(s) = [1.1]
bas 33, expnt(s) = [3047.5249    457.36951   103.94869    29.210155    9.286663    3.163927]
bas 34, expnt(s) = [7.8682724 1.8812885 0.5442493]
bas 35, expnt(s) = [0.1687144]
bas 36, expnt(s) = [7.8682724 1.8812885 0.5442493]
bas 37, expnt(s) = [0.1687144]
bas 38, expnt(s) = [0.8]
bas 39, expnt(s) = [18.731137   2.8253937  0.6401217]
bas 40, expnt(s) = [0.1612778]
bas 41, expnt(s) = [1.1]
bas 42, expnt(s) = [18.731137   2.8253937  0.6401217]
bas 43, expnt(s) = [0.1612778]
bas 44, expnt(s) = [1.1]
bas 45, expnt(s) = [3047.5249    457.36951   103.94869    29.210155    9.286663    3.163927]
bas 46, expnt(s) = [7.8682724 1.8812885 0.5442493]
bas 47, expnt(s) = [0.1687144]
bas 48, expnt(s) = [7.8682724 1.8812885 0.5442493]
bas 49, expnt(s) = [0.1687144]
bas 50, expnt(s) = [0.8]
bas 51, expnt(s) = [18.731137   2.8253937  0.6401217]
bas 52, expnt(s) = [0.1612778]
bas 53, expnt(s) = [1.1]
bas 54, expnt(s) = [18.731137   2.8253937  0.6401217]
bas 55, expnt(s) = [0.1612778]
bas 56, expnt(s) = [1.1]
bas 57, expnt(s) = [4173.511     627.4579    142.9021     40.23433    12.82021     4.390437]
bas 58, expnt(s) = [11.626358  2.71628   0.772218]
bas 59, expnt(s) = [0.2120313]
bas 60, expnt(s) = [11.626358  2.71628   0.772218]
bas 61, expnt(s) = [0.2120313]
bas 62, expnt(s) = [0.8]
bas 63, expnt(s) = [18.731137   2.8253937  0.6401217]
bas 64, expnt(s) = [0.1612778]
bas 65, expnt(s) = [1.1]
bas 66, expnt(s) = [18.731137   2.8253937  0.6401217]
bas 67, expnt(s) = [0.1612778]
bas 68, expnt(s) = [1.1]
bas 69, expnt(s) = [7001.71309   1051.36609    239.28569     67.3974453   21.5199573
    7.4031013]
bas 70, expnt(s) = [20.8479528   4.80830834  1.34406986]
bas 71, expnt(s) = [0.35815139]
bas 72, expnt(s) = [20.8479528   4.80830834  1.34406986]
bas 73, expnt(s) = [0.35815139]
bas 74, expnt(s) = [0.8]
bas 75, expnt(s) = [5484.6717     825.23495    188.04696     52.9645      16.89757
    5.7996353]
bas 76, expnt(s) = [15.539616   3.5999336  1.0137618]
bas 77, expnt(s) = [0.2700058]
bas 78, expnt(s) = [15.539616   3.5999336  1.0137618]
bas 79, expnt(s) = [0.2700058]
bas 80, expnt(s) = [0.8]
bas 81, expnt(s) = [18.731137   2.8253937  0.6401217]
bas 82, expnt(s) = [0.1612778]
bas 83, expnt(s) = [1.1]
bas 84, expnt(s) = [3047.5249    457.36951   103.94869    29.210155    9.286663    3.163927]
bas 85, expnt(s) = [7.8682724 1.8812885 0.5442493]
bas 86, expnt(s) = [0.1687144]
bas 87, expnt(s) = [7.8682724 1.8812885 0.5442493]
bas 88, expnt(s) = [0.1687144]
bas 89, expnt(s) = [0.8]
bas 90, expnt(s) = [18.731137   2.8253937  0.6401217]
bas 91, expnt(s) = [0.1612778]
bas 92, expnt(s) = [1.1]
bas 93, expnt(s) = [18.731137   2.8253937  0.6401217]
bas 94, expnt(s) = [0.1612778]
bas 95, expnt(s) = [1.1]
CPU time:         0.50
arg.atm = [[  6  20   1  23   0   0]
 [  1  24   1  27   0   0]
 [  1  28   1  31   0   0]
 [  6  32   1  35   0   0]
 [  1  36   1  39   0   0]
 [  6  40   1  43   0   0]
 [  1  44   1  47   0   0]
 [  1  48   1  51   0   0]
 [  6  52   1  55   0   0]
 [  1  56   1  59   0   0]
 [  1  60   1  63   0   0]
 [  6  64   1  67   0   0]
 [  1  68   1  71   0   0]
 [  1  72   1  75   0   0]
 [  7  76   1  79   0   0]
 [  1  80   1  83   0   0]
 [  1  84   1  87   0   0]
 [  9  88   1  91   0   0]
 [  8  92   1  95   0   0]
 [  1  96   1  99   0   0]
 [  6 100   1 103   0   0]
 [  1 104   1 107   0   0]
 [  1 108   1 111   0   0]]
arg.bas = [[  0   0   6   1   0 202 208   0]
 [  0   0   3   1   0 214 217   0]
 [  0   0   1   1   0 220 221   0]
 [  0   1   3   1   0 222 225   0]
 [  0   1   1   1   0 228 229   0]
 [  0   2   1   1   0 230 231   0]
 [  1   0   3   1   0 232 235   0]
 [  1   0   1   1   0 238 239   0]
 [  1   1   1   1   0 240 241   0]
 [  2   0   3   1   0 232 235   0]
 [  2   0   1   1   0 238 239   0]
 [  2   1   1   1   0 240 241   0]
 [  3   0   6   1   0 202 208   0]
 [  3   0   3   1   0 214 217   0]
 [  3   0   1   1   0 220 221   0]
 [  3   1   3   1   0 222 225   0]
 [  3   1   1   1   0 228 229   0]
 [  3   2   1   1   0 230 231   0]
 [  4   0   3   1   0 232 235   0]
 [  4   0   1   1   0 238 239   0]
 [  4   1   1   1   0 240 241   0]
 [  5   0   6   1   0 202 208   0]
 [  5   0   3   1   0 214 217   0]
 [  5   0   1   1   0 220 221   0]
 [  5   1   3   1   0 222 225   0]
 [  5   1   1   1   0 228 229   0]
 [  5   2   1   1   0 230 231   0]
 [  6   0   3   1   0 232 235   0]
 [  6   0   1   1   0 238 239   0]
 [  6   1   1   1   0 240 241   0]
 [  7   0   3   1   0 232 235   0]
 [  7   0   1   1   0 238 239   0]
 [  7   1   1   1   0 240 241   0]
 [  8   0   6   1   0 202 208   0]
 [  8   0   3   1   0 214 217   0]
 [  8   0   1   1   0 220 221   0]
 [  8   1   3   1   0 222 225   0]
 [  8   1   1   1   0 228 229   0]
 [  8   2   1   1   0 230 231   0]
 [  9   0   3   1   0 232 235   0]
 [  9   0   1   1   0 238 239   0]
 [  9   1   1   1   0 240 241   0]
 [ 10   0   3   1   0 232 235   0]
 [ 10   0   1   1   0 238 239   0]
 [ 10   1   1   1   0 240 241   0]
 [ 11   0   6   1   0 202 208   0]
 [ 11   0   3   1   0 214 217   0]
 [ 11   0   1   1   0 220 221   0]
 [ 11   1   3   1   0 222 225   0]
 [ 11   1   1   1   0 228 229   0]
 [ 11   2   1   1   0 230 231   0]
 [ 12   0   3   1   0 232 235   0]
 [ 12   0   1   1   0 238 239   0]
 [ 12   1   1   1   0 240 241   0]
 [ 13   0   3   1   0 232 235   0]
 [ 13   0   1   1   0 238 239   0]
 [ 13   1   1   1   0 240 241   0]
 [ 14   0   6   1   0 172 178   0]
 [ 14   0   3   1   0 184 187   0]
 [ 14   0   1   1   0 190 191   0]
 [ 14   1   3   1   0 192 195   0]
 [ 14   1   1   1   0 198 199   0]
 [ 14   2   1   1   0 200 201   0]
 [ 15   0   3   1   0 232 235   0]
 [ 15   0   1   1   0 238 239   0]
 [ 15   1   1   1   0 240 241   0]
 [ 16   0   3   1   0 232 235   0]
 [ 16   0   1   1   0 238 239   0]
 [ 16   1   1   1   0 240 241   0]
 [ 17   0   6   1   0 142 148   0]
 [ 17   0   3   1   0 154 157   0]
 [ 17   0   1   1   0 160 161   0]
 [ 17   1   3   1   0 162 165   0]
 [ 17   1   1   1   0 168 169   0]
 [ 17   2   1   1   0 170 171   0]
 [ 18   0   6   1   0 112 118   0]
 [ 18   0   3   1   0 124 127   0]
 [ 18   0   1   1   0 130 131   0]
 [ 18   1   3   1   0 132 135   0]
 [ 18   1   1   1   0 138 139   0]
 [ 18   2   1   1   0 140 141   0]
 [ 19   0   3   1   0 232 235   0]
 [ 19   0   1   1   0 238 239   0]
 [ 19   1   1   1   0 240 241   0]
 [ 20   0   6   1   0 202 208   0]
 [ 20   0   3   1   0 214 217   0]
 [ 20   0   1   1   0 220 221   0]
 [ 20   1   3   1   0 222 225   0]
 [ 20   1   1   1   0 228 229   0]
 [ 20   2   1   1   0 230 231   0]
 [ 21   0   3   1   0 232 235   0]
 [ 21   0   1   1   0 238 239   0]
 [ 21   1   1   1   0 240 241   0]
 [ 22   0   3   1   0 232 235   0]
 [ 22   0   1   1   0 238 239   0]
 [ 22   1   1   1   0 240 241   0]]
arg.env = [ 0.00000000e+00  0.00000000e+00  0.00000000e+00  0.00000000e+00
  0.00000000e+00  0.00000000e+00  0.00000000e+00  0.00000000e+00
  0.00000000e+00  0.00000000e+00  0.00000000e+00  0.00000000e+00
  0.00000000e+00  0.00000000e+00  0.00000000e+00  0.00000000e+00
  0.00000000e+00  0.00000000e+00  0.00000000e+00  0.00000000e+00
 -1.36839660e+01  2.04316641e-01 -9.87954204e-01  0.00000000e+00
 -1.42636548e+01  2.14029551e+00 -9.21179276e-01  0.00000000e+00
 -1.44336303e+01 -6.66724762e-01 -2.65162558e+00  0.00000000e+00
 -1.07777596e+01  6.33113999e-02 -1.04469066e+00  0.00000000e+00
 -1.00280953e+01  9.34352821e-01  6.18980718e-01  0.00000000e+00
 -9.78482756e+00  1.45501988e+00 -3.39976409e+00  0.00000000e+00
 -1.03645163e+01  3.39099875e+00 -3.33298916e+00  0.00000000e+00
 -1.05344918e+01  5.83978455e-01 -5.06343547e+00  0.00000000e+00
 -5.88568911e+00  2.70572311e+00 -5.81157398e+00  0.00000000e+00
 -6.46537783e+00  4.64170198e+00 -5.74479905e+00  0.00000000e+00
 -6.63535337e+00  1.83468169e+00 -7.47524536e+00  0.00000000e+00
 -2.97948267e+00  2.56471785e+00 -5.86831044e+00  0.00000000e+00
 -2.39979393e+00  6.28738980e-01 -5.93508535e+00  0.00000000e+00
 -2.22981842e+00  3.43575927e+00 -4.20463906e+00  0.00000000e+00
 -2.03168392e+00  3.89316686e+00 -8.11633506e+00  0.00000000e+00
 -2.57344909e+00  5.70249290e+00 -8.05392859e+00  0.00000000e+00
 -1.44536874e-01  3.80160502e+00 -8.15317693e+00  0.00000000e+00
 -1.00463766e+01 -2.37927876e+00 -1.12893939e+00  0.00000000e+00
 -1.46059743e+01 -1.08798408e+00  1.19889970e+00  0.00000000e+00
 -1.64176355e+01 -1.00008471e+00  1.23426789e+00  0.00000000e+00
 -6.87862114e+00  1.31401464e+00 -3.45650055e+00  0.00000000e+00
 -6.29893240e+00 -6.21964255e-01 -3.52327546e+00  0.00000000e+00
 -6.12895687e+00  2.18505604e+00 -1.79282917e+00  0.00000000e+00
  5.48467170e+03  8.25234950e+02  1.88046960e+02  5.29645000e+01
  1.68975700e+01  5.79963530e+00  2.94842455e+00  5.42657124e+00
  8.78126489e+00  1.15432129e+01  9.90055015e+00  3.38516599e+00
  1.55396160e+01  3.59993360e+00  1.01376180e+00 -2.19051792e+00
 -9.77405528e-01  2.88629094e+00  2.70005800e-01  9.46334873e-01
  1.55396160e+01  3.59993360e+00  1.01376180e+00  6.37930734e+00
  4.91490975e+00  2.15791055e+00  2.70005800e-01  5.67807022e-01
  8.00000000e-01  1.76578110e+00  7.00171309e+03  1.05136609e+03
  2.39285690e+02  6.73974453e+01  2.15199573e+01  7.40310130e+00
  3.51882946e+00  6.49153500e+00  1.05145933e+01  1.38579703e+01
  1.18963440e+01  4.04370270e+00  2.08479528e+01  4.80830834e+00
  1.34406986e+00 -2.67467022e+00 -1.20144405e+00  3.55963557e+00
  3.58151393e-01  1.16967446e+00  2.08479528e+01  4.80830834e+00
  1.34406986e+00  9.30895386e+00  7.18522772e+00  3.05022227e+00
  3.58151393e-01  8.08290917e-01  8.00000000e-01  1.76578110e+00
  4.17351100e+03  6.27457900e+02  1.42902100e+02  4.02343300e+01
  1.28202100e+01  4.39043700e+00  2.40702054e+00  4.43278063e+00
  7.16202212e+00  9.37349097e+00  8.02923011e+00  2.76214682e+00
  1.16263580e+01  2.71628000e+00  7.72218000e-01 -1.82872504e+00
 -9.04036253e-01  2.38478141e+00  2.12031300e-01  7.89432508e-01
  1.16263580e+01  2.71628000e+00  7.72218000e-01  4.23260113e+00
  3.29513374e+00  1.56464604e+00  2.12031300e-01  4.19743870e-01
  8.00000000e-01  1.76578110e+00  3.04752490e+03  4.57369510e+02
  1.03948690e+02  2.92101550e+01  9.28666300e+00  3.16392700e+00
  1.90125588e+00  3.50751108e+00  5.66221808e+00  7.37052623e+00
  6.28928397e+00  2.17153894e+00  7.86827240e+00  1.88128850e+00
  5.44249300e-01 -1.41639039e+00 -6.52813326e-01  1.83055623e+00
  1.68714400e-01  6.65088040e-01  7.86827240e+00  1.88128850e+00
  5.44249300e-01  2.65263212e+00  2.03386926e+00  1.01504332e+00
  1.68714400e-01  3.15445679e-01  8.00000000e-01  1.76578110e+00
  1.87311370e+01  2.82539370e+00  6.40121700e-01  7.61926220e-01
  1.29237100e+00  1.47131900e+00  1.61277800e-01  6.42977783e-01
  1.10000000e+00  3.28643653e+00]
ecpbas  = []


******** <class 'pyscf.dft.rks.RKS'> ********
method = RKS-RHF
initial guess = minao
damping factor = 0
level_shift factor = 0
DIIS = <class 'pyscf.scf.diis.CDIIS'>
diis_start_cycle = 1
diis_space = 8
SCF conv_tol = 1e-09
SCF conv_tol_grad = None
SCF max_cycles = 50
direct_scf = True
direct_scf_tol = 1e-13
chkfile to save SCF result = /share/home/srwang/dftpart/test_2body/c8b_nofrg/tmpx9attvlp
max_memory 4000 MB (current use 74 MB)
XC functionals = pbe0
small_rho_cutoff = 1e-07
radial grids: 
    Treutler-Ahlrichs [JCP 102, 346 (1995); DOI:10.1063/1.469408] (M4) radial grids
    
becke partition: Becke, JCP 88, 2547 (1988); DOI:10.1063/1.454033
pruning grids: <function nwchem_prune at 0x2aaf6995bb90>
grids dens level: 3
symmetrized grids: False
atomic radii adjust function: <function treutler_atomic_radii_adjust at 0x2aaf69960050>
atomic_radii : [3.77945036 0.66140414 2.64561657 2.74010288 1.98421243 1.60626721
 1.32280829 1.22832198 1.13383567 0.94486306 2.83458919 3.40150702
 2.83458919 2.36215766 2.07869874 1.88972612 1.88972612 1.88972612
 3.40150702 4.15739747 3.40150702 3.0235618  2.64561657 2.55113027
 2.64561657 2.64561657 2.64561657 2.55113027 2.55113027 2.55113027
 2.55113027 2.45664396 2.36215766 2.17318504 2.17318504 2.17318504
 3.59047964 4.44085639 3.77945225 3.40150702 2.92907549 2.74010288
 2.74010288 2.55113027 2.45664396 2.55113027 2.64561657 3.0235618
 2.92907549 2.92907549 2.74010288 2.74010288 2.64561657 2.64561657
 3.96842486 4.91328792 4.06291117 3.68496594 3.49599333 3.49599333
 3.49599333 3.49599333 3.49599333 3.49599333 3.40150702 3.30702072
 3.30702072 3.30702072 3.30702072 3.30702072 3.30702072 3.30702072
 2.92907549 2.74010288 2.55113027 2.55113027 2.45664396 2.55113027
 2.55113027 2.55113027 2.83458919 3.59047964 3.40150702 3.0235618
 3.59047964 2.74010288 3.96842486 3.40150702 4.06291117 3.68496594
 3.40150702 3.40150702 3.30702072 3.30702072 3.30702072 3.30702072
 3.30702072 3.30702072 3.30702072 3.30702072 3.30702072 3.30702072
 3.30702072 3.30702072 3.30702072 3.30702072 3.30702072 3.30702072
 3.30702072 3.30702072 3.30702072 3.30702072 3.30702072 3.30702072
 3.30702072 3.30702072 3.30702072 3.30702072 3.30702072 3.30702072
 3.30702072 3.30702072 3.30702072 3.30702072 3.30702072 3.30702072
 3.30702072 3.30702072 3.30702072 3.30702072 3.30702072]
Set gradient conv threshold to 3.16228e-05
Nelec from initial guess = 73.9557085253353
atom C rad-grids = 75, ang-grids = [ 50  50  50  50  50  50  50  50  50  50  50  50  50  50  50  50  50  50
  50  50  50  50  50  86  86  86  86  86  86  86  86  86  86 266 266 266
 266 266 266 266 302 302 302 302 302 302 302 302 302 302 302 302 302 302
 302 302 302 302 302 302 266 266 266 266 266 266 266 266 266 266 266 266
 266 266 266]
atom H rad-grids = 50, ang-grids = [ 50  50  50  50  50  50  50  50  50  50  50  50  50  50  86  86  86  86
 266 266 266 266 302 302 302 302 302 302 302 302 302 302 302 302 302 266
 266 266 266 266 266 266 266 266 266 266 266 266 266 266]
atom N rad-grids = 75, ang-grids = [ 50  50  50  50  50  50  50  50  50  50  50  50  50  50  50  50  50  50
  50  50  50  50  50  86  86  86  86  86  86  86  86  86 266 266 266 266
 266 266 266 302 302 302 302 302 302 302 302 302 302 302 302 302 302 302
 302 302 302 302 266 266 266 266 266 266 266 266 266 266 266 266 266 266
 266 266 266]
atom F rad-grids = 75, ang-grids = [ 50  50  50  50  50  50  50  50  50  50  50  50  50  50  50  50  50  50
  50  50  50  86  86  86  86  86  86  86  86  86 266 266 266 266 266 266
 302 302 302 302 302 302 302 302 302 302 302 302 302 302 302 302 302 302
 266 266 266 266 266 266 266 266 266 266 266 266 266 266 266 266 266 266
 266 266 266]
atom O rad-grids = 75, ang-grids = [ 50  50  50  50  50  50  50  50  50  50  50  50  50  50  50  50  50  50
  50  50  50  50  86  86  86  86  86  86  86  86  86 266 266 266 266 266
 266 266 302 302 302 302 302 302 302 302 302 302 302 302 302 302 302 302
 302 302 302 266 266 266 266 266 266 266 266 266 266 266 266 266 266 266
 266 266 266]
tot grids = 266498
Drop grids 51513
    CPU time for setting up grids      3.14 sec, wall time      0.81 sec
nelec by numeric integration = 73.95578001887034
    CPU time for vxc      5.17 sec, wall time      1.29 sec
E1 = -1562.80473378302  Ecoul = 688.2443149503428  Exc = -63.049835100585504
init E= -467.205533994603
cond(S) = 2227.7316947206705
    CPU time for initialize scf     21.33 sec, wall time      5.46 sec
  HOMO = -0.298439808875023  LUMO = 0.0191472787018872
  mo_energy =
[-2.49487696e+01 -1.94440336e+01 -1.44760003e+01 -1.03388538e+01
 -1.03380200e+01 -1.03375560e+01 -1.03363467e+01 -1.03353138e+01
 -1.03290994e+01 -1.38163391e+00 -1.22354502e+00 -1.08410099e+00
 -1.01399966e+00 -9.28112036e-01 -8.46388392e-01 -7.56812102e-01
 -7.13815687e-01 -7.09100920e-01 -6.19000082e-01 -6.09783304e-01
 -5.72087146e-01 -5.68755738e-01 -5.57568000e-01 -5.37752767e-01
 -5.17830111e-01 -5.07674540e-01 -4.85933006e-01 -4.77196109e-01
 -4.49696736e-01 -4.29082864e-01 -4.19771216e-01 -3.98436818e-01
 -3.89905333e-01 -3.75799003e-01 -3.63011358e-01 -3.54592366e-01
 -2.98439809e-01  1.91472787e-02  4.21965937e-02  4.81802930e-02
  6.27876187e-02  7.09584416e-02  9.26326329e-02  9.46191104e-02
  1.14771562e-01  1.22347277e-01  1.26312586e-01  1.35058535e-01
  1.40067446e-01  1.46055494e-01  1.55407181e-01  1.61028576e-01
  1.66244831e-01  1.74650941e-01  1.77227549e-01  1.85824845e-01
  1.95071033e-01  2.25500033e-01  2.36939564e-01  4.23257118e-01
  4.69384764e-01  4.74664249e-01  4.94654448e-01  4.96791688e-01
  5.09259073e-01  5.36963304e-01  5.45260081e-01  5.58063070e-01
  5.79807723e-01  6.07309546e-01  6.10512534e-01  6.34953396e-01
  6.58959811e-01  6.71058700e-01  6.88745754e-01  7.02762850e-01
  7.30873850e-01  7.45926968e-01  7.58347556e-01  7.82164072e-01
  8.01420962e-01  8.10019778e-01  8.18988355e-01  8.44611534e-01
  8.60094768e-01  8.64548456e-01  8.81845407e-01  8.88801392e-01
  8.95064090e-01  9.01136490e-01  9.16271164e-01  9.18754599e-01
  9.22123697e-01  9.33822780e-01  9.63637164e-01  1.00341686e+00
  1.04659785e+00  1.12356555e+00  1.14874301e+00  1.18463579e+00
  1.20444694e+00  1.22666695e+00  1.26695283e+00  1.28411698e+00
  1.30132023e+00  1.31667371e+00  1.33375958e+00  1.37461557e+00
  1.39578898e+00  1.46652221e+00  1.47623970e+00  1.48474677e+00
  1.50899905e+00  1.56209308e+00  1.57558969e+00  1.60185831e+00
  1.61651575e+00  1.61985884e+00  1.65414408e+00  1.70381271e+00
  1.73755774e+00  1.75340827e+00  1.76963567e+00  1.79544104e+00
  1.80843771e+00  1.82681914e+00  1.83539914e+00  1.87171392e+00
  1.88350649e+00  1.89490227e+00  1.93493400e+00  1.93713320e+00
  2.01118257e+00  2.02035949e+00  2.03803371e+00  2.04463296e+00
  2.04767084e+00  2.05886363e+00  2.07202060e+00  2.10862666e+00
  2.12876241e+00  2.18083775e+00  2.18979186e+00  2.19529408e+00
  2.22497369e+00  2.23180124e+00  2.25451110e+00  2.26250748e+00
  2.28459572e+00  2.31031616e+00  2.31806532e+00  2.33495004e+00
  2.36153541e+00  2.37007901e+00  2.38182825e+00  2.41571821e+00
  2.43399571e+00  2.52182981e+00  2.52775653e+00  2.56473553e+00
  2.58614672e+00  2.61525221e+00  2.62485858e+00  2.63736256e+00
  2.65108006e+00  2.67889790e+00  2.69724838e+00  2.71561142e+00
  2.75806841e+00  2.78175757e+00  2.80555576e+00  2.82163094e+00
  2.84385873e+00  2.85747996e+00  2.87968952e+00  2.89353331e+00
  2.90450610e+00  2.92969493e+00  2.94418087e+00  2.95812702e+00
  2.97558515e+00  3.09036820e+00  3.22314956e+00  3.25558195e+00
  3.27304328e+00  3.29087444e+00  3.30713409e+00  3.33000401e+00
  3.38204251e+00  3.40519122e+00  3.45089374e+00  3.46438147e+00
  3.50500224e+00  3.51526697e+00  3.55233497e+00  3.55539370e+00]
nelec by numeric integration = 74.00003526504622
    CPU time for vxc      4.73 sec, wall time      1.19 sec
E1 = -1575.2800290444388  Ecoul = 702.7785529599468  Exc = -64.10303027408091
cycle= 1 E= -466.199786419914  delta_E= 1.01  |g|= 0.846  |ddm|= 4.08
    CPU time for cycle= 1      7.23 sec, wall time      1.83 sec
diis-norm(errvec)=1.52433
diis-c [-2.32357084  1.        ]
  HOMO = -0.14566938082683  LUMO = 0.106410433125539
  mo_energy =
[-24.46718861 -18.82107467 -14.16157174 -10.34876712 -10.2644763
 -10.1529305  -10.12915185 -10.10099176 -10.08576466  -1.11800292
  -0.91824163  -0.8310939   -0.79105305  -0.73332409  -0.67397186
  -0.61091135  -0.58471719  -0.5592839   -0.49605065  -0.46601268
  -0.45754518  -0.43641843  -0.42525401  -0.41323475  -0.39565453
  -0.38750542  -0.36708703  -0.34284777  -0.33077096  -0.30693331
  -0.29763949  -0.2712217   -0.25927774  -0.23980073  -0.21930449
  -0.1573939   -0.14566938   0.10641043   0.1204462    0.12855522
   0.1437322    0.14912864   0.16810958   0.18205209   0.18914145
   0.20654169   0.21815797   0.21911403   0.22755677   0.23924053
   0.24438873   0.25075619   0.25932964   0.26786821   0.2789383
   0.29210014   0.31739712   0.35675627   0.38179877   0.53251045
   0.57058391   0.58492939   0.59641174   0.60283571   0.60853506
   0.63690283   0.65190186   0.6652616    0.69922428   0.72296171
   0.74272409   0.7582681    0.77377485   0.7925622    0.81274743
   0.81859838   0.85316851   0.85956397   0.87517308   0.88373868
   0.90585669   0.91581773   0.92254455   0.94702946   0.95881453
   0.97561736   0.98196818   0.99526542   1.00210275   1.01051644
   1.02253283   1.02947667   1.04680397   1.11912496   1.13505638
   1.14669415   1.18984204   1.25669957   1.30498586   1.31619896
   1.3249067    1.37272593   1.39851834   1.43777193   1.44112175
   1.48701148   1.50019822   1.51407342   1.54172303   1.58612708
   1.59833935   1.62529418   1.65802228   1.68709975   1.70020613
   1.73196514   1.74796451   1.77107983   1.78879638   1.83430269
   1.868531     1.87803832   1.9150055    1.92886756   1.94421897
   1.95975405   1.97971561   2.02123372   2.03836547   2.03992299
   2.07200517   2.08488654   2.11619223   2.14423171   2.15329998
   2.16026265   2.16332413   2.18274141   2.19032974   2.22104538
   2.24690432   2.26804015   2.29100226   2.30119035   2.32166326
   2.34040905   2.35611031   2.37061752   2.39340378   2.41779599
   2.42732148   2.46042493   2.47437782   2.49104797   2.49979159
   2.54390658   2.55237924   2.62042903   2.63570296   2.65553487
   2.70955353   2.72464887   2.73928581   2.75600204   2.7716666
   2.79779618   2.81139098   2.83807486   2.86513612   2.88669816
   2.92437873   2.94084337   2.95100071   2.97382184   2.99234815
   3.009271     3.02638395   3.03168371   3.05997556   3.06902181
   3.0860339    3.22471052   3.33439991   3.3531053    3.37321047
   3.4062316    3.42220374   3.44341242   3.4909023    3.53153368
   3.55562457   3.58861621   3.61747031   3.63777232   3.67992538
   3.69828972]
nelec by numeric integration = 74.00003636024458
    CPU time for vxc      6.32 sec, wall time      1.59 sec
E1 = -1563.119133329302  Ecoul = 689.367752467392  Exc = -62.76331489344633
cycle= 2 E= -466.109975816697  delta_E= 0.0898  |g|= 1.12  |ddm|= 1.69
    CPU time for cycle= 2      7.98 sec, wall time      2.01 sec
diis-norm(errvec)=1.9914
diis-c [-0.09837643  0.56865211  0.43134789]
  HOMO = -0.228150695578075  LUMO = 0.0894417005797042
  mo_energy =
[-24.75795277 -19.22675193 -14.35021414 -10.27543128 -10.24096507
 -10.22483892 -10.20077075 -10.19939902 -10.19599411  -1.2221407
  -1.04423818  -0.89630514  -0.8174383   -0.76757862  -0.7077447
  -0.63955031  -0.60569291  -0.59683233  -0.52712319  -0.52173957
  -0.49829221  -0.48319082  -0.4695826   -0.45183766  -0.44625024
  -0.43204965  -0.41796564  -0.38662952  -0.36881887  -0.36528496
  -0.35339984  -0.33906663  -0.33611804  -0.31651754  -0.29414251
  -0.2811082   -0.2281507    0.0894417    0.10224255   0.11394588
   0.13316814   0.13870687   0.1523777    0.16721758   0.18195137
   0.19029806   0.20069527   0.20569531   0.21451833   0.21965713
   0.22669102   0.22887226   0.23814364   0.2497451    0.25399556
   0.27195489   0.27995134   0.32351069   0.34484825   0.50462782
   0.5520693    0.55743586   0.5786304    0.57941236   0.58970522
   0.6183377    0.62783489   0.64137016   0.6758105    0.69469369
   0.70513729   0.72354186   0.74307409   0.7606733    0.77134994
   0.78721587   0.81377587   0.82949693   0.8416768    0.86179371
   0.88525468   0.89118231   0.89486443   0.91901807   0.94220287
   0.94287479   0.96286494   0.96703999   0.97632359   0.98407
   0.99553245   1.00033098   1.00548403   1.03162497   1.05395905
   1.08645041   1.14082979   1.21395443   1.25269525   1.28146192
   1.28793642   1.32426233   1.35957599   1.38052852   1.39271377
   1.42437407   1.43308995   1.45946384   1.49293485   1.5523111
   1.56398645   1.57757658   1.60588138   1.64607734   1.66745828
   1.69800561   1.7143706    1.71678317   1.74822223   1.79494329
   1.83368872   1.85451309   1.8734787    1.89473894   1.90412312
   1.9215383    1.93776297   1.97270691   1.98447076   1.99576054
   2.03626268   2.03795842   2.10402315   2.11387918   2.13071882
   2.1383033    2.13880037   2.14237476   2.16242262   2.19629476
   2.22207079   2.24408462   2.27190174   2.27590336   2.30339596
   2.3163293    2.33556151   2.34395012   2.36947669   2.38920441
   2.40438841   2.4232195    2.44267048   2.46016307   2.46673803
   2.50425992   2.51600017   2.59915835   2.60880736   2.63821375
   2.67306274   2.692536     2.71426778   2.71941696   2.74174045
   2.76956138   2.7834587    2.80713281   2.8458299    2.86500818
   2.89873508   2.90881267   2.93014168   2.95256157   2.96307624
   2.97946956   2.99655898   3.01462928   3.026202     3.03283877
   3.05705485   3.1826089    3.32112855   3.34539927   3.35858434
   3.38127149   3.39659388   3.4140317    3.46805268   3.49851497
   3.52811903   3.55278013   3.59320002   3.60058273   3.64940436
   3.65921793]
nelec by numeric integration = 74.00003365304738
    CPU time for vxc      4.75 sec, wall time      1.19 sec
E1 = -1569.3249646348222  Ecoul = 696.0592501402814  Exc = -63.47983791447011
cycle= 3 E= -466.340832470351  delta_E= -0.231  |g|= 0.0996  |ddm|= 1.02
    CPU time for cycle= 3      6.48 sec, wall time      1.62 sec
diis-norm(errvec)=0.200675
diis-c [-0.01007827  0.19025561  0.16404074  0.64570365]
  HOMO = -0.236254915066788  LUMO = 0.0902586433062103
  mo_energy =
[-24.74636992 -19.20433069 -14.36569818 -10.29990281 -10.27608847
 -10.241131   -10.23343072 -10.22388654 -10.22040846  -1.22081888
  -1.03641881  -0.90193819  -0.83249836  -0.78023491  -0.71917444
  -0.64885794  -0.61527003  -0.60626397  -0.53375443  -0.52538761
  -0.5042354   -0.49011047  -0.47718832  -0.457188    -0.45538246
  -0.43897019  -0.42706328  -0.3957377   -0.37534083  -0.36946972
  -0.36180207  -0.34783043  -0.34561627  -0.32402949  -0.30714527
  -0.27671253  -0.23625492   0.09025864   0.09911577   0.1089113
   0.12715734   0.13179808   0.1480301    0.16163084   0.17710775
   0.18581926   0.19465096   0.20026203   0.20687024   0.21254649
   0.2195648    0.22269669   0.23124845   0.24262706   0.24725804
   0.26302866   0.26887718   0.31266674   0.33373022   0.4956182
   0.54248416   0.54737897   0.56955972   0.57112734   0.58034224
   0.61051037   0.61795738   0.63109859   0.66456113   0.68663406
   0.69551007   0.71273832   0.73397358   0.75535531   0.76307009
   0.7810463    0.80923247   0.82168811   0.8367071    0.8542661
   0.8783641    0.88459261   0.88673473   0.91424608   0.93383541
   0.9358569    0.95628309   0.95984439   0.96912516   0.975149
   0.98937455   0.99386893   1.00017266   1.03647922   1.05176876
   1.08036489   1.13469437   1.20847085   1.24857311   1.27204303
   1.2799609    1.31833635   1.35192691   1.37614998   1.38670765
   1.42138372   1.42997305   1.4523432    1.48528986   1.54702425
   1.55788669   1.57182609   1.6107469    1.63676588   1.65847954
   1.6884448    1.70479327   1.71205994   1.74022139   1.78971655
   1.8270491    1.84457166   1.86219347   1.88549271   1.89499238
   1.91212912   1.92773679   1.96857625   1.98145225   1.98773661
   2.02672137   2.03094553   2.09495738   2.10763541   2.12128555
   2.1305792    2.13147056   2.13427911   2.15295894   2.18862707
   2.21219908   2.24256929   2.26528176   2.26743414   2.29689972
   2.30957668   2.32903361   2.33800636   2.36364321   2.38344547
   2.39646568   2.42048838   2.43685948   2.45198764   2.45992046
   2.49979443   2.50969574   2.59525202   2.60191752   2.63280868
   2.66841042   2.69132492   2.7050982    2.71362753   2.73311984
   2.76249859   2.77757245   2.79794976   2.83761566   2.8568585
   2.8916765    2.90111363   2.92094939   2.94222071   2.95404684
   2.97233709   2.9877359    3.00554043   3.020887     3.0289696
   3.0500187    3.17642367   3.31178573   3.33577654   3.34798556
   3.3742676    3.38804135   3.40723216   3.46039575   3.48976664
   3.53257391   3.54262894   3.58351054   3.59241323   3.63959949
   3.64932178]
nelec by numeric integration = 74.00003442558864
    CPU time for vxc      4.72 sec, wall time      1.18 sec
E1 = -1569.874064770653  Ecoul = 696.6252372281107  Exc = -63.49862103357657
cycle= 4 E= -466.342728637459  delta_E= -0.0019  |g|= 0.0351  |ddm|= 0.109
    CPU time for cycle= 4      6.20 sec, wall time      1.55 sec
diis-norm(errvec)=0.071168
diis-c [-5.70046623e-04  2.37676905e-02  2.55984606e-02  2.81162764e-01
  6.69471085e-01]
  HOMO = -0.233280738849448  LUMO = 0.0912052458905029
  mo_energy =
[-24.75134445 -19.20893804 -14.35609746 -10.29509699 -10.26695976
 -10.23701798 -10.22097797 -10.21666467 -10.21316517  -1.22144851
  -1.03634875  -0.89803799  -0.82775488  -0.77669512  -0.71554574
  -0.64612935  -0.61311728  -0.60367868  -0.53226577  -0.52394952
  -0.50166377  -0.48753786  -0.47544043  -0.4555543   -0.4525087
  -0.43711432  -0.4240522   -0.39290818  -0.3723605   -0.36948118
  -0.35937353  -0.34537367  -0.34291055  -0.32276933  -0.30383454
  -0.27747097  -0.23328074   0.09120525   0.10049766   0.11072595
   0.12905278   0.13381196   0.14948565   0.16331079   0.17855055
   0.18767318   0.19648587   0.20191964   0.20912451   0.21490775
   0.22183015   0.22442229   0.23337553   0.24505035   0.24914026
   0.26582292   0.27221351   0.31621489   0.33749437   0.49826193
   0.54558023   0.55043061   0.5720864    0.57372793   0.58284405
   0.61260092   0.62076363   0.63427111   0.66788892   0.68911924
   0.69853563   0.71633179   0.73696698   0.75812901   0.76582945
   0.78341424   0.81160739   0.82447402   0.83841714   0.85650103
   0.88050486   0.88672858   0.88923929   0.91692101   0.93612852
   0.93798876   0.95845696   0.96204368   0.97131495   0.97802543
   0.99177074   0.99563755   1.00201987   1.03542106   1.05283771
   1.08266054   1.13614997   1.2101503    1.2488931    1.27490287
   1.2823407    1.32022924   1.35452516   1.37746569   1.38874429
   1.42149181   1.43003119   1.45446159   1.48803763   1.54892831
   1.55995499   1.57429437   1.61088987   1.6387791    1.66107893
   1.6912523    1.70776806   1.71367803   1.74314265   1.79176558
   1.82879525   1.84739911   1.86560811   1.88844381   1.89775882
   1.91490327   1.93089409   1.97000591   1.98250519   1.99002952
   2.02966687   2.03305178   2.09713378   2.1093653    2.12393903
   2.13260952   2.13385947   2.13665401   2.15575887   2.19096091
   2.21501049   2.2444395    2.26727611   2.27014887   2.29874702
   2.31147221   2.33072798   2.33964059   2.3657799    2.38543798
   2.3989097    2.42199864   2.43898194   2.4546697    2.46189626
   2.5015452    2.51195442   2.59706936   2.60421633   2.63475317
   2.67064051   2.69299488   2.7078306    2.71556869   2.73564859
   2.76490274   2.77951816   2.80062024   2.8400248    2.85919503
   2.89392753   2.90316892   2.9234085    2.94530888   2.95680739
   2.97450332   2.99046444   3.00813787   3.02286507   3.03110598
   3.05219655   3.17751276   3.31457029   3.33844474   3.35067262
   3.37666278   3.39061891   3.40999542   3.46282279   3.49290742
   3.53331128   3.54526173   3.58612071   3.59549606   3.64261057
   3.65222452]
nelec by numeric integration = 74.00003408784968
    CPU time for vxc      4.66 sec, wall time      1.17 sec
E1 = -1569.6659563328037  Ecoul = 696.4070438103139  Exc = -63.48881139713774
cycle= 5 E= -466.343003980968  delta_E= -0.000275  |g|= 0.00639  |ddm|= 0.0352
    CPU time for cycle= 5      6.01 sec, wall time      1.50 sec
diis-norm(errvec)=0.0125009
diis-c [-2.71428012e-05 -2.63166394e-03 -4.44466160e-04  5.60584171e-02
  2.18241620e-01  7.28776093e-01]
  HOMO = -0.234173725555971  LUMO = 0.0911285169967583
  mo_energy =
[-24.74892401 -19.20840628 -14.35894924 -10.29434821 -10.26645973
 -10.23631513 -10.22186267 -10.2167877  -10.2136074   -1.22053774
  -1.0364078   -0.89899701  -0.82788319  -0.77661231  -0.71562479
  -0.64610213  -0.61287584  -0.60375824  -0.53185935  -0.52387851
  -0.50206251  -0.48774159  -0.4750996   -0.45541134  -0.45269382
  -0.43702659  -0.42425346  -0.39295457  -0.37249117  -0.36915542
  -0.35938731  -0.34548137  -0.34294854  -0.3223848   -0.30373431
  -0.27739999  -0.23417373   0.09112852   0.10031465   0.11059893
   0.12903971   0.13382083   0.14942015   0.16345062   0.17854521
   0.18745294   0.19653675   0.20198362   0.20910544   0.21489235
   0.22179813   0.22443141   0.23331061   0.24492377   0.24920383
   0.26588814   0.2720778    0.31618963   0.33733675   0.49824612
   0.54548604   0.55040099   0.5722156    0.57366455   0.5829633
   0.61269605   0.62081593   0.63425401   0.66782402   0.68904946
   0.69850507   0.71615575   0.73686813   0.75739919   0.76568471
   0.78329709   0.81142082   0.82432079   0.83837282   0.85651865
   0.88047736   0.88662214   0.88912364   0.91632759   0.93615833
   0.9379252    0.95830528   0.96201078   0.97125666   0.97792664
   0.99145567   0.99564912   1.00197073   1.03559378   1.05278908
   1.08236266   1.13626372   1.21025184   1.24932859   1.27485948
   1.28227135   1.320228     1.35431382   1.37764023   1.3886184
   1.42201924   1.43056846   1.45444221   1.48785042   1.5488757
   1.55993156   1.5741504    1.61084259   1.63905839   1.66105164
   1.69117323   1.70763524   1.71372455   1.74295699   1.79151111
   1.82899473   1.84736623   1.86556612   1.88834638   1.89770162
   1.91489539   1.93080372   1.97010841   1.9826825    1.99007388
   2.02974985   2.03306701   2.09735607   2.10938589   2.12393431
   2.13269018   2.13372293   2.13649984   2.15577464   2.19089383
   2.21502371   2.24397951   2.26721538   2.27009848   2.29869884
   2.31155913   2.33080326   2.33968944   2.36559048   2.38533458
   2.39891773   2.42189248   2.43880886   2.4545346    2.46195345
   2.50144103   2.51180827   2.59683446   2.60411334   2.63467726
   2.67048654   2.69290682   2.70776477   2.7154596    2.73561037
   2.76474005   2.77947426   2.80054121   2.83999882   2.85919338
   2.89388329   2.90327491   2.92346496   2.94521399   2.95674424
   2.97441521   2.99038905   3.0081569    3.02274978   3.03061088
   3.05228024   3.1780675    3.3144912    3.33842108   3.35069526
   3.37647119   3.39052396   3.40962517   3.46270752   3.49262312
   3.53319673   3.54526732   3.58613125   3.59515065   3.64251056
   3.65213163]
nelec by numeric integration = 74.00003412199464
    CPU time for vxc      4.66 sec, wall time      1.18 sec
E1 = -1569.6648298631235  Ecoul = 696.4054827528636  Exc = -63.4883836955654
cycle= 6 E= -466.343010867166  delta_E= -6.89e-06  |g|= 0.00255  |ddm|= 0.00677
    CPU time for cycle= 6      6.37 sec, wall time      1.61 sec
diis-norm(errvec)=0.00478305
diis-c [-1.41888531e-06 -2.63744065e-03 -1.53301673e-03  1.42297088e-02
  7.67287978e-02  3.63072219e-01  5.50139732e-01]
  HOMO = -0.233875474783994  LUMO = 0.0910547251695106
  mo_energy =
[-24.74985897 -19.20852407 -14.35797127 -10.29468128 -10.26689074
 -10.23675339 -10.22192373 -10.21698611 -10.21370948  -1.22099816
  -1.03655755  -0.89880209  -0.82798297  -0.77674254  -0.71572198
  -0.6462017   -0.61302587  -0.6038059   -0.53208495  -0.52401943
  -0.50201972  -0.48779327  -0.4753262   -0.45558019  -0.45274281
  -0.43715969  -0.42430929  -0.39306762  -0.37255014  -0.36934348
  -0.35951488  -0.34553587  -0.3430608   -0.32260116  -0.30393429
  -0.27750817  -0.23387547   0.09105473   0.10032959   0.11059052
   0.12899914   0.13375739   0.14940145   0.16334256   0.17850081
   0.18748293   0.19645317   0.20191797   0.20904932   0.21481833
   0.22174315   0.22436636   0.2332545    0.24489633   0.24912683
   0.265759     0.27201476   0.31607234   0.33726714   0.4981708
   0.54540275   0.5503002    0.5720736    0.57358788   0.58282746
   0.61257236   0.62069666   0.63413013   0.6677358    0.68898153
   0.69839931   0.71609091   0.73679384   0.75761169   0.76564331
   0.7832407    0.81139508   0.82425998   0.83830433   0.85644075
   0.88042159   0.88659987   0.88907867   0.91648694   0.93610308
   0.93788797   0.95830944   0.96196156   0.97123035   0.97787224
   0.99150417   0.99560515   1.00190467   1.03555237   1.05273633
   1.08239582   1.1361725    1.21012732   1.24915053   1.27474775
   1.28221222   1.32014829   1.35429055   1.37750601   1.38858536
   1.42177787   1.43032046   1.45436023   1.4878037    1.54880831
   1.55984035   1.57407288   1.6107534    1.63885911   1.6609523
   1.69110217   1.707568     1.7136071    1.74290104   1.79151727
   1.82882533   1.8472674    1.86544339   1.88826433   1.89760896
   1.91478903   1.93071114   1.96998927   1.98253018   1.9899535
   2.02959831   2.03295256   2.09720159   2.10931267   2.12384696
   2.1325903    2.1336989    2.13646568   2.155659     2.19083335
   2.21492593   2.24405737   2.26717934   2.27000802   2.29865846
   2.31145056   2.33072286   2.33960818   2.36558482   2.38529911
   2.39881682   2.4218462    2.43879626   2.45448525   2.46186065
   2.5013965    2.51177403   2.59685224   2.60405878   2.63461764
   2.67043967   2.69282062   2.70768723   2.71540009   2.73554173
   2.76471079   2.77939421   2.80048804   2.83993004   2.85912124
   2.89381826   2.90316155   2.92337011   2.94513671   2.95668274
   2.97437148   2.99032688   3.00807185   3.02271846   3.03071671
   3.0521588    3.17779501   3.31444255   3.33835622   3.35061897
   3.3764639    3.39048616   3.40968692   3.46267278   3.49264633
   3.5331214    3.54518338   3.58605374   3.5951836    3.64244868
   3.65206635]
nelec by numeric integration = 74.00003411995135
    CPU time for vxc      4.61 sec, wall time      1.17 sec
E1 = -1569.6728598869472  Ecoul = 696.4139880854365  Exc = -63.48886030389674
cycle= 7 E= -466.343012166748  delta_E= -1.3e-06  |g|= 0.000319  |ddm|= 0.00235
    CPU time for cycle= 7      6.35 sec, wall time      1.61 sec
diis-norm(errvec)=0.000648952
diis-c [-7.49627591e-08 -7.55530242e-04 -4.77066346e-04  1.50200377e-03
  1.38252466e-02  7.94885368e-02  1.80440294e-01  7.25976515e-01]
  HOMO = -0.233901792404218  LUMO = 0.0910494575028557
  mo_energy =
[-24.74980317 -19.20854305 -14.35807593 -10.29471266 -10.26687972
 -10.23667867 -10.22190382 -10.216925   -10.21364372  -1.22097606
  -1.03656832  -0.89881616  -0.82797197  -0.77673883  -0.71571404
  -0.6461922   -0.61301835  -0.60378147  -0.53208092  -0.52402522
  -0.50201762  -0.48778941  -0.47531978  -0.45557388  -0.45273462
  -0.43715644  -0.4243008   -0.39304768  -0.37253869  -0.36934056
  -0.35949466  -0.345514    -0.34304488  -0.32260041  -0.30392951
  -0.27752117  -0.23390179   0.09104946   0.10033462   0.11058894
   0.12900241   0.13376366   0.14940548   0.16334529   0.17850321
   0.18747695   0.1964617    0.20191555   0.20904794   0.21483134
   0.22174611   0.22437431   0.23326675   0.24490166   0.2491303
   0.2657679    0.27202342   0.31608165   0.33727571   0.49818139
   0.54540941   0.55030996   0.57207985   0.57360309   0.58283161
   0.61257662   0.62070404   0.63413842   0.66773914   0.68898284
   0.69841657   0.71610134   0.73680233   0.75759036   0.76564494
   0.78324815   0.81139515   0.82426689   0.83831767   0.85644131
   0.88042343   0.88660696   0.88908927   0.91646607   0.93610488
   0.93788682   0.95830928   0.96196965   0.97123697   0.97788221
   0.99151341   0.99561645   1.00190996   1.0355402    1.05273486
   1.08239433   1.13617767   1.21012417   1.2491621    1.27475535
   1.28221567   1.32014963   1.35429309   1.37750497   1.38858644
   1.42178994   1.4303316    1.45437124   1.48780736   1.54881068
   1.55984819   1.57407271   1.61074295   1.63885789   1.66096331
   1.69112163   1.70758447   1.71361201   1.74290399   1.79151875
   1.82883118   1.84727245   1.86546401   1.88827813   1.89761457
   1.91480039   1.93072899   1.96998753   1.98253219   1.98995953
   2.02959918   2.03295955   2.09720472   2.10931629   2.12386063
   2.1326076    2.13369829   2.13646469   2.15566361   2.19084659
   2.21493643   2.24404916   2.26718941   2.27001489   2.29867159
   2.31145151   2.33073074   2.33961355   2.36558607   2.38529648
   2.39882177   2.42184812   2.43880256   2.45449421   2.46185799
   2.50140053   2.51177525   2.59685087   2.60406453   2.63462036
   2.67044059   2.69281741   2.70770039   2.71540283   2.73554993
   2.76471146   2.77939729   2.80049602   2.8399335    2.85912428
   2.89382612   2.90316358   2.92337009   2.94515234   2.95668838
   2.97438967   2.99034435   3.00807007   3.02272361   3.03070744
   3.05215347   3.17779761   3.31445917   3.33836488   3.35062636
   3.37647755   3.39049152   3.40967766   3.46267835   3.4926451
   3.53311353   3.54519416   3.58605455   3.59517872   3.64246449
   3.65209262]
nelec by numeric integration = 74.00003412175909
    CPU time for vxc      4.73 sec, wall time      1.18 sec
E1 = -1569.6722738017247  Ecoul = 696.413366277242  Exc = -63.48882460115969
cycle= 8 E= -466.343012186983  delta_E= -2.02e-08  |g|= 0.000101  |ddm|= 0.000351
    CPU time for cycle= 8      6.48 sec, wall time      1.62 sec
diis-norm(errvec)=0.00020431
diis-c [-6.64190254e-09 -1.86486733e-04 -1.19120074e-04 -1.82667316e-04
  1.89831052e-03  1.46131440e-02  4.80936750e-02  3.08918517e-01
  6.26964628e-01]
  HOMO = -0.233898107514784  LUMO = 0.0910531904181343
  mo_energy =
[-24.749789   -19.20850761 -14.35806065 -10.29467466 -10.2668645
 -10.23668887 -10.22191148 -10.21694809 -10.21366922  -1.22096421
  -1.03655409  -0.89881372  -0.82797446  -0.7767368   -0.71571337
  -0.64619072  -0.61301302  -0.60378835  -0.53207269  -0.52401633
  -0.50201838  -0.48778824  -0.47531198  -0.45556823  -0.4527342
  -0.43715012  -0.42430219  -0.39305137  -0.37254255  -0.3693323
  -0.35949859  -0.34552115  -0.34304803  -0.32259227  -0.30392601
  -0.2775089   -0.23389811   0.09105319   0.10033296   0.1105889
   0.12900185   0.13376402   0.14940419   0.16334834   0.17850422
   0.1874778    0.19646202   0.20191808   0.20904965   0.21482942
   0.22174706   0.22437361   0.23326464   0.24490045   0.24913127
   0.26576997   0.27202339   0.316082     0.33727488   0.49817949
   0.54540926   0.55030925   0.57208348   0.57359882   0.58283579
   0.61258086   0.62070555   0.63414015   0.66774137   0.68898553
   0.6984131    0.71609921   0.73680051   0.7575934    0.7656466
   0.78324731   0.8113956    0.82426537   0.83831574   0.8564439
   0.88042501   0.88660629   0.88908711   0.91646965   0.93610746
   0.93788922   0.95830939   0.96196761   0.97123533   0.97787972
   0.99150892   0.9956143    1.00191073   1.03554784   1.05273827
   1.08239394   1.13617967   1.21013021   1.24916546   1.27475638
   1.28221639   1.32015201   1.35429371   1.37751024   1.38858777
   1.42179529   1.43033773   1.45436976   1.48780785   1.54881159
   1.55984875   1.57407532   1.61074927   1.63886713   1.66096259
   1.6911148    1.70757964   1.71361552   1.74290408   1.79152012
   1.82883688   1.84727572   1.86546057   1.88827555   1.89761543
   1.91480018   1.93072517   1.96999327   1.98253871   1.98996293
   2.02960511   2.03296193   2.09720947   2.10931885   2.12385864
   2.13260523   2.13370031   2.13646723   2.15566582   2.19084383
   2.21493431   2.24404921   2.2671854    2.27001458   2.29866763
   2.31145434   2.33072969   2.33961472   2.36558673   2.38530016
   2.39882382   2.42184879   2.43880052   2.45449201   2.46186145
   2.50140093   2.51177563   2.59685045   2.60406512   2.63462168
   2.67044219   2.69282075   2.70769656   2.71540377   2.73554875
   2.76471373   2.7794008    2.80049577   2.83993419   2.85912524
   2.89382652   2.90316767   2.92337318   2.94514818   2.95668726
   2.97438408   2.99033823   3.00807329   3.02272331   3.0307081
   3.05215942   3.1778094    3.31445399   3.33836548   3.35062731
   3.37647438   3.39049105   3.40967826   3.46267869   3.49264263
   3.53311769   3.54519511   3.58605891   3.59517949   3.64246047
   3.65208391]
nelec by numeric integration = 74.00003412156265
    CPU time for vxc      4.69 sec, wall time      1.17 sec
E1 = -1569.6719932868239  Ecoul = 696.4130571352808  Exc = -63.48879597627305
cycle= 9 E= -466.343012189157  delta_E= -2.17e-09  |g|= 2.65e-05  |ddm|= 0.000108
    CPU time for cycle= 9      5.83 sec, wall time      1.46 sec
diis-norm(errvec)=5.51848e-05
diis-c [-3.10189879e-10  6.94439458e-01  1.25345547e-06 -2.15463281e-04
 -5.03015605e-04 -1.77198256e-03  1.40645819e-03  5.20984673e-02
  2.54544824e-01]
  HOMO = -0.233898703980838  LUMO = 0.0910517952892824
  mo_energy =
[-24.7497876  -19.20851439 -14.35806237 -10.29468577 -10.26687095
 -10.23669124 -10.2219113  -10.21694436 -10.21366476  -1.22096597
  -1.03655777  -0.89881421  -0.82797429  -0.77673745  -0.71571419
  -0.64619158  -0.61301452  -0.60378764  -0.53207447  -0.52401884
  -0.50201838  -0.48778862  -0.47531385  -0.45556942  -0.45273501
  -0.43715193  -0.42430215  -0.39305116  -0.3725419   -0.36933438
  -0.35949793  -0.34552003  -0.34304802  -0.32259414  -0.30392733
  -0.27751222  -0.2338987    0.0910518    0.1003331    0.11058884
   0.12900181   0.13376323   0.14940434   0.16334751   0.17850355
   0.18747766   0.19646151   0.20191723   0.20904905   0.21482921
   0.2217464    0.22437358   0.2332644    0.24490022   0.24913092
   0.26576891   0.27202264   0.31608136   0.33727423   0.4981792
   0.5454086    0.55030847   0.57208194   0.57359938   0.58283426
   0.61257936   0.62070432   0.63413878   0.66774024   0.68898455
   0.69841317   0.7160989    0.73680035   0.75759283   0.76564569
   0.78324691   0.81139521   0.82426513   0.83831551   0.85644303
   0.88042407   0.88660593   0.88908699   0.916469     0.93610613
   0.93788838   0.95830915   0.96196791   0.9712354    0.97787962
   0.99150935   0.9956143    1.00191007   1.03554566   1.05273695
   1.0823938    1.13617895   1.21012832   1.24916451   1.27475561
   1.2822158    1.32015096   1.35429315   1.37750871   1.3885874
   1.42179426   1.43033632   1.45436974   1.48780698   1.5488113
   1.55984804   1.57407402   1.61074716   1.63886459   1.66096228
   1.6911159    1.70758022   1.71361431   1.74290351   1.79151948
   1.82883528   1.84727422   1.86546052   1.88827555   1.89761478
   1.91479966   1.93072535   1.96999143   1.98253668   1.98996145
   2.02960305   2.03296107   2.0972081    2.10931804   2.12385843
   2.13260503   2.13369939   2.13646617   2.15566466   2.19084384
   2.21493443   2.24404907   2.26718599   2.27001407   2.29866791
   2.31145339   2.33072968   2.33961421   2.36558614   2.38529861
   2.39882269   2.42184792   2.43880063   2.45449201   2.46186055
   2.50140009   2.5117753    2.59685038   2.60406443   2.63462066
   2.67044133   2.69281943   2.7076968    2.71540279   2.73554845
   2.76471249   2.77939914   2.80049503   2.8399337    2.85912474
   2.89382553   2.90316605   2.92337224   2.94514864   2.95668692
   2.97438461   2.99033914   3.00807211   3.022723     3.03070769
   3.05215718   3.17780647   3.31445453   3.33836441   3.35062616
   3.37647432   3.39049064   3.40967823   3.46267799   3.49264334
   3.53311594   3.54519381   3.58605716   3.59517908   3.6424607
   3.65208522]
nelec by numeric integration = 74.0000341215697
    CPU time for vxc      4.69 sec, wall time      1.17 sec
E1 = -1569.6720698108406  Ecoul = 696.4131380259553  Exc = -63.488800343097694
cycle= 10 E= -466.343012189324  delta_E= -1.67e-10  |g|= 4.85e-06  |ddm|= 3.13e-05
    CPU time for cycle= 10      5.83 sec, wall time      1.46 sec
  HOMO = -0.23389869791586  LUMO = 0.0910519660878548
  mo_energy =
[-24.74979142 -19.20851201 -14.35806295 -10.29468565 -10.26687096
 -10.23668924 -10.22191186 -10.21694488 -10.21366581  -1.22096721
  -1.03655681  -0.89881397  -0.82797447  -0.77673754  -0.71571407
  -0.64619152  -0.61301481  -0.60378762  -0.53207488  -0.52401846
  -0.50201832  -0.4877887   -0.47531416  -0.4555698   -0.45273489
  -0.43715201  -0.42430211  -0.39305133  -0.37254189  -0.36933426
  -0.35949827  -0.34552011  -0.34304796  -0.32259448  -0.3039275
  -0.27751138  -0.2338987    0.09105197   0.10033314   0.1105888
   0.1290018    0.13376328   0.14940437   0.16334738   0.17850359
   0.18747766   0.1964615    0.20191731   0.20904899   0.21482928
   0.22174643   0.22437364   0.23326444   0.2449003    0.24913084
   0.26576885   0.27202267   0.31608138   0.33727431   0.49817919
   0.54540859   0.55030859   0.57208191   0.57359929   0.58283424
   0.61257938   0.62070445   0.6341389    0.66774023   0.68898458
   0.69841322   0.71609888   0.73680034   0.75759286   0.76564572
   0.78324699   0.8113953    0.82426517   0.83831579   0.856443
   0.88042413   0.88660597   0.88908694   0.91646901   0.93610615
   0.93788842   0.95830911   0.96196786   0.97123536   0.97787968
   0.99150933   0.99561433   1.00191024   1.03554634   1.0527373
   1.0823938    1.1361788    1.21012844   1.24916408   1.27475559
   1.28221581   1.32015106   1.35429323   1.37750876   1.38858727
   1.42179364   1.43033577   1.45436965   1.48780707   1.54881132
   1.55984813   1.57407417   1.61074778   1.63886437   1.66096224
   1.69111575   1.70758012   1.71361444   1.74290357   1.79151954
   1.82883509   1.84727426   1.86546052   1.88827554   1.89761473
   1.9147996    1.93072536   1.96999155   1.98253673   1.98996148
   2.02960312   2.032961     2.09720788   2.1093179    2.12385835
   2.13260521   2.13369938   2.13646618   2.15566464   2.19084384
   2.21493426   2.24404916   2.26718591   2.27001404   2.29866794
   2.31145323   2.33072957   2.33961407   2.36558618   2.38529868
   2.39882272   2.42184817   2.43880064   2.454492     2.46186045
   2.50140029   2.51177531   2.59685039   2.6040645    2.63462073
   2.67044143   2.69281962   2.70769672   2.71540297   2.73554845
   2.76471263   2.77939926   2.80049512   2.83993366   2.8591247
   2.89382574   2.90316612   2.92337215   2.94514857   2.95668691
   2.97438459   2.99033905   3.00807211   3.02272315   3.03070784
   3.05215734   3.17780598   3.31445447   3.33836449   3.35062618
   3.3764744    3.39049069   3.40967819   3.462678     3.49264317
   3.53311646   3.54519386   3.5860572    3.59517915   3.64246082
   3.65208509]
nelec by numeric integration = 74.00003412155742
    CPU time for vxc      4.73 sec, wall time      1.18 sec
E1 = -1569.6720754362973  Ecoul = 696.4131450062497  Exc = -63.4888016979353
Extra cycle  E= -466.343012189323  delta_E= 1.14e-13  |g|= 5.73e-06  |ddm|= 8.27e-06
    CPU time for scf_cycle     92.19 sec, wall time     23.25 sec
    CPU time for SCF     92.20 sec, wall time     23.25 sec
converged SCF energy = -466.343012189323
atom C rad-grids = 75, ang-grids = [ 50  50  50  50  50  50  50  50  50  50  50  50  50  50  50  50  50  50
  50  50  50  50  50  86  86  86  86  86  86  86  86  86  86 266 266 266
 266 266 266 266 302 302 302 302 302 302 302 302 302 302 302 302 302 302
 302 302 302 302 302 302 266 266 266 266 266 266 266 266 266 266 266 266
 266 266 266]
atom H rad-grids = 50, ang-grids = [ 50  50  50  50  50  50  50  50  50  50  50  50  50  50  86  86  86  86
 266 266 266 266 302 302 302 302 302 302 302 302 302 302 302 302 302 266
 266 266 266 266 266 266 266 266 266 266 266 266 266 266]
atom N rad-grids = 75, ang-grids = [ 50  50  50  50  50  50  50  50  50  50  50  50  50  50  50  50  50  50
  50  50  50  50  50  86  86  86  86  86  86  86  86  86 266 266 266 266
 266 266 266 302 302 302 302 302 302 302 302 302 302 302 302 302 302 302
 302 302 302 302 266 266 266 266 266 266 266 266 266 266 266 266 266 266
 266 266 266]
atom F rad-grids = 75, ang-grids = [ 50  50  50  50  50  50  50  50  50  50  50  50  50  50  50  50  50  50
  50  50  50  86  86  86  86  86  86  86  86  86 266 266 266 266 266 266
 302 302 302 302 302 302 302 302 302 302 302 302 302 302 302 302 302 302
 266 266 266 266 266 266 266 266 266 266 266 266 266 266 266 266 266 266
 266 266 266]
atom O rad-grids = 75, ang-grids = [ 50  50  50  50  50  50  50  50  50  50  50  50  50  50  50  50  50  50
  50  50  50  50  86  86  86  86  86  86  86  86  86 266 266 266 266 266
 266 266 302 302 302 302 302 302 302 302 302 302 302 302 302 302 302 302
 302 302 302 266 266 266 266 266 266 266 266 266 266 266 266 266 266 266
 266 266 266]
tot grids = 266498
