#INFO: **** input file is /home/wsr/dftpart/test_hfeda/test_c4h10_basis.py ****
from dftpart import scfeda

mollist = [
#'c12h26'
'c2h6','c4h10','c6h14'
]
basislist = [
'6-31g',
'6-31gss','6-311gss','6-311+gss',
'cc-pvdz','cc-pvtz',
'def2-svp','def2-tzvp']
for mol in mollist:
    for basis in basislist:
        test1 = scfeda.EDA()
        test1.gjf = './'+mol+'.xyz'
        test1.method = ['m062x',basis]
        test1.output = mol.upper()+'_'+basis
        #test1.build()
        test1.kernel()
        

#INFO: ******************** input file end ********************


System: uname_result(system='Linux', node='lw06', release='3.10.0-957.el7.x86_64', version='#1 SMP Thu Nov 8 23:39:32 UTC 2018', machine='x86_64', processor='x86_64')  Threads 48
Python 3.7.3 (default, Mar 27 2019, 22:11:17) 
[GCC 7.3.0]
numpy 1.16.2  scipy 1.2.1
Date: Fri Jul 12 09:05:16 2019
PySCF version 1.6.2
PySCF path  /home/wsr/pyscf

[CONFIG] conf_file None
[INPUT] verbose = 4
[INPUT] num. atoms = 8
[INPUT] num. electrons = 18
[INPUT] charge = 0
[INPUT] spin (= nelec alpha-beta = 2S) = 0
[INPUT] symmetry False subgroup None
[INPUT] Mole.unit = angstrom
[INPUT]  1 C     -2.749648430000  -1.202428580000  -0.015740650000 AA   -5.196082471540  -2.272260700550  -0.029745517523 Bohr
[INPUT]  2 H     -2.392994000000  -2.211238580000  -0.015740650000 AA   -4.522103277727  -4.178635312272  -0.029745517523 Bohr
[INPUT]  3 H     -2.392975590000  -0.698030390000  -0.889392160000 AA   -4.522068487869  -1.319086263723  -1.680707599735 Bohr
[INPUT]  4 H     -3.819648430000  -1.202415400000  -0.015740650000 AA   -7.218089424825  -2.272235793959  -0.029745517523 Bohr
[INPUT]  5 C     -2.236306210000  -0.476472310000   1.241664320000 AA   -4.226006267564  -0.900402171839   2.346405503444 Bohr
[INPUT]  6 H     -1.166308020000  -0.478179370000   1.242642670000 AA   -2.204002734684  -0.903628047717   2.348254316998 Bohr
[INPUT]  7 H     -2.591362770000   0.532900710000   1.240686930000 AA   -4.896965924694   1.007036393486   2.344558504027 Bohr
[INPUT]  8 H     -2.594575170000  -0.979740300000   2.115314520000 AA   -4.903036480897  -1.851440840199   3.997365110116 Bohr

nuclear repulsion = 42.6703219875163
number of shells = 28
number of NR pGTOs = 94
number of NR cGTOs = 58
basis = cc-pvdz
ecp = {}
CPU time:      1412.87


******** <class 'pyscf.dft.rks.RKS'> ********
method = RKS-RHF
initial guess = minao
damping factor = 0
level shift factor = 0
DIIS = <class 'pyscf.scf.diis.CDIIS'>
DIIS start cycle = 1
DIIS space = 8
SCF tol = 1e-09
SCF gradient tol = None
max. SCF cycles = 50
direct_scf = True
direct_scf_tol = 1e-13
chkfile to save SCF result = /home/wsr/dftpart/test_hfeda/tmpbmilkalc
max_memory 4000 MB (current use 161 MB)
XC functionals = m062x
small_rho_cutoff = 1e-07
radial grids: 
    Treutler-Ahlrichs (JCP 102, 346 (M4)) radial grids
    
becke partition: Becke, JCP, 88, 2547 (1988)
pruning grids: <function nwchem_prune at 0x2abf6e3f7378>
grids dens level: 3
symmetrized grids: False
atomic radii adjust function: <function treutler_atomic_radii_adjust at 0x2abf6e3f72f0>
Set gradient conv threshold to 3.16228e-05
tot grids = 87948
init E= -79.8994731265226
  HOMO = -0.433206593571859  LUMO = 0.0408202140800225
cycle= 1 E= -79.7301205926504  delta_E= 0.169  |g|= 0.388  |ddm|= 2.26
  HOMO = -0.325555433527436  LUMO = 0.131311817501973
cycle= 2 E= -79.742921641043  delta_E= -0.0128  |g|= 0.316  |ddm|= 0.522
  HOMO = -0.407142637628056  LUMO = 0.110520436387382
cycle= 3 E= -79.7690709809764  delta_E= -0.0261  |g|= 0.0104  |ddm|= 0.241
  HOMO = -0.405922335495407  LUMO = 0.111888841390272
cycle= 4 E= -79.7691030985983  delta_E= -3.21e-05  |g|= 0.00241  |ddm|= 0.00795
  HOMO = -0.405509579865279  LUMO = 0.112076750004751
cycle= 5 E= -79.7691046291536  delta_E= -1.53e-06  |g|= 0.00017  |ddm|= 0.00201
  HOMO = -0.405516552284982  LUMO = 0.112059127677987
cycle= 6 E= -79.7691046383168  delta_E= -9.16e-09  |g|= 1.96e-05  |ddm|= 0.00023
  HOMO = -0.40551972968918  LUMO = 0.112059103739668
cycle= 7 E= -79.7691046384548  delta_E= -1.38e-10  |g|= 9.95e-07  |ddm|= 2.85e-05
  HOMO = -0.40551972202848  LUMO = 0.112059018798799
Extra cycle  E= -79.7691046384553  delta_E= -4.97e-13  |g|= 4.32e-07  |ddm|= 2.38e-06
converged SCF energy = -79.7691046384553
tot grids = 87948
