#INFO: **** input file is /home/wsr/dftpart/test_hfeda/test_c4h10_basis.py ****
from dftpart import scfeda

basislist = ['sto-3g','6-31g','6-31gss','6-311gss','6-311+gss','cc-pvdz','cc-pvtz']
for basis in basislist:
    test1 = scfeda.EDA()
    test1.gjf = './c6h14.xyz'
    test1.method = ['m062x',basis]
    test1.output = 'C6H14_'+basis
    #test1.build()
    test1.kernel()

#INFO: ******************** input file end ********************


System: uname_result(system='Linux', node='lw06', release='3.10.0-957.el7.x86_64', version='#1 SMP Thu Nov 8 23:39:32 UTC 2018', machine='x86_64', processor='x86_64')  Threads 48
Python 3.7.3 (default, Mar 27 2019, 22:11:17) 
[GCC 7.3.0]
numpy 1.16.2  scipy 1.2.1
Date: Thu Jul 11 03:06:57 2019
PySCF version 1.6.2
PySCF path  /home/wsr/pyscf

[CONFIG] conf_file None
[INPUT] verbose = 4
[INPUT] num. atoms = 20
[INPUT] num. electrons = 50
[INPUT] charge = 0
[INPUT] spin (= nelec alpha-beta = 2S) = 0
[INPUT] symmetry False subgroup None
[INPUT] Mole.unit = angstrom
[INPUT]  1 C     -7.842326140000  -0.306396840000   1.374805980000 AA  -14.819848584117  -0.579006113032   2.598006776614 Bohr
[INPUT]  2 H     -7.485671720000  -1.315206840000   1.374805980000 AA  -14.145869409202  -2.485380724755   2.598006776614 Bohr
[INPUT]  3 H     -7.485653300000   0.198001350000   2.248457480000 AA  -14.145834600447   0.374168323794   4.248968839930 Bohr
[INPUT]  4 H     -8.912326140000  -0.306383660000   1.374805980000 AA  -16.841855537402  -0.578981206442   2.598006776614 Bohr
[INPUT]  5 C     -7.328983920000   0.419559430000   0.117401010000 AA  -13.849772380141   0.792852415679   0.221855755647 Bohr
[INPUT]  6 H     -7.687234850000   1.427803110000   0.116422260000 AA  -14.526768521712   2.698156837702   0.220006186203 Bohr
[INPUT]  7 H     -7.684058560000  -0.085967360000  -0.756249190000 AA  -14.520766203520  -0.162454766052  -1.429103851024 Bohr
[INPUT]  8 C     -5.788986470000   0.421978900000   0.118808280000 AA  -10.939598967113   0.797424551345   0.224515110531 Bohr
[INPUT]  9 H     -5.430736730000  -0.586264770000   0.120163980000 AA  -10.262605074316  -1.107879851781   0.227077012238 Bohr
[INPUT] 10 H     -5.433911940000   0.927831610000   0.992269850000 AA  -10.268605351604   1.753347632614   1.875118258163 Bohr
[INPUT] 11 C     -5.275643260000   1.147465740000  -1.138867190000 AA   -9.969520892308   2.168395985921  -2.152147081353 Bohr
[INPUT] 12 H     -5.633960990000   2.155685190000  -1.140263580000 AA  -10.646643267583   4.073654619881  -2.154785876016 Bohr
[INPUT] 13 H     -5.630650260000   0.641565680000  -2.012328790000 AA  -10.640386894611   1.212383426120  -3.802750285677 Bohr
[INPUT] 14 C     -3.735646030000   1.149987890000  -1.137400780000 AA   -7.059347895019   2.173162158666  -2.149375968067 Bohr
[INPUT] 15 H     -3.377329160000   0.141768150000  -1.135994420000 AA   -6.382227144907   0.267902976686  -2.146718332834 Bohr
[INPUT] 16 H     -3.380638810000   1.655896210000  -0.263944050000 AA   -6.388481476976   3.129190327605  -0.498781966709 Bohr
[INPUT] 17 C     -3.222302800000   1.875462950000  -2.395083040000 AA   -6.089269782419   3.544111332269  -4.526050991191 Bohr
[INPUT] 18 H     -3.580621950000   2.883681880000  -2.396489750000 AA   -6.766394841106   5.449368983571  -4.528709287827 Bohr
[INPUT] 19 H     -2.152304720000   1.877216870000  -2.394063290000 AA   -4.067266457409   3.547425760713  -4.524123942975 Bohr
[INPUT] 20 H     -3.577308360000   1.369553700000  -3.268539900000 AA   -6.760133063517   2.588081405885  -6.176645238213 Bohr

nuclear repulsion = 246.44696916288
number of shells = 32
number of NR pGTOs = 132
number of NR cGTOs = 44
basis = sto-3g
ecp = {}
CPU time:         0.48


******** <class 'pyscf.dft.rks.RKS'> ********
method = RKS-RHF
initial guess = minao
damping factor = 0
level shift factor = 0
DIIS = <class 'pyscf.scf.diis.CDIIS'>
DIIS start cycle = 1
DIIS space = 8
SCF tol = 1e-09
SCF gradient tol = None
max. SCF cycles = 50
direct_scf = True
direct_scf_tol = 1e-13
chkfile to save SCF result = /home/wsr/dftpart/test_hfeda/tmpvg_cq2tl
max_memory 4000 MB (current use 58 MB)
XC functionals = m062x
small_rho_cutoff = 1e-07
radial grids: 
    Treutler-Ahlrichs (JCP 102, 346 (M4)) radial grids
    
becke partition: Becke, JCP, 88, 2547 (1988)
pruning grids: <function nwchem_prune at 0x2ad7e4a14510>
grids dens level: 3
symmetrized grids: False
atomic radii adjust function: <function treutler_atomic_radii_adjust at 0x2ad7e4a14488>
Set gradient conv threshold to 3.16228e-05
tot grids = 223748
init E= -235.354204256383
  HOMO = -0.353757410120588  LUMO = 0.24223206130193
cycle= 1 E= -234.211932364563  delta_E= 1.14  |g|= 0.297  |ddm|= 4.78
  HOMO = -0.256987332992141  LUMO = 0.464757658410782
cycle= 2 E= -234.236336753654  delta_E= -0.0244  |g|= 0.125  |ddm|= 0.612
  HOMO = -0.306141813626823  LUMO = 0.422144717103275
cycle= 3 E= -234.241469158124  delta_E= -0.00513  |g|= 0.0109  |ddm|= 0.183
  HOMO = -0.30486749665866  LUMO = 0.424555061372665
cycle= 4 E= -234.241515341482  delta_E= -4.62e-05  |g|= 0.0014  |ddm|= 0.0227
  HOMO = -0.30474193099224  LUMO = 0.424682367078873
cycle= 5 E= -234.241515913594  delta_E= -5.72e-07  |g|= 0.000159  |ddm|= 0.00195
  HOMO = -0.304735321320528  LUMO = 0.424688112795823
cycle= 6 E= -234.241515921528  delta_E= -7.93e-09  |g|= 9.28e-06  |ddm|= 0.00021
  HOMO = -0.304737373325666  LUMO = 0.424685733639709
cycle= 7 E= -234.241515921555  delta_E= -2.7e-11  |g|= 4.57e-06  |ddm|= 1.88e-05
  HOMO = -0.304736834198189  LUMO = 0.424686182317723
Extra cycle  E= -234.24151592156  delta_E= -4.89e-12  |g|= 2.67e-06  |ddm|= 9.56e-06
converged SCF energy = -234.24151592156
tot grids = 223748
