Atom number=18                                                          
SP        RHF                                                         3-21G               
Number of atoms                            I               18
Info1-9                                    I   N=           9
          35          34           0           0           0         111
           1           1           2
Full Title                                 C   N=           2
Atom number=18          
Route                                      C   N=           3
#p hf/3-21g pop=npa charge nosymm   
Charge                                     I                0
Multiplicity                               I                1
Number of electrons                        I               58
Number of alpha electrons                  I               29
Number of beta electrons                   I               29
Number of basis functions                  I               85
Number of independent functions            I               85
Number of point charges in /Mol/           I                0
Number of translation vectors              I                0
Atomic numbers                             I   N=          18
           6           8           6           6           9           6
           6           1           1           1           1           1
           1           1           1           1           1           1
Nuclear charges                            R   N=          18
  6.00000000E+00  8.00000000E+00  6.00000000E+00  6.00000000E+00  9.00000000E+00
  6.00000000E+00  6.00000000E+00  1.00000000E+00  1.00000000E+00  1.00000000E+00
  1.00000000E+00  1.00000000E+00  1.00000000E+00  1.00000000E+00  1.00000000E+00
  1.00000000E+00  1.00000000E+00  1.00000000E+00
Current cartesian coordinates              R   N=          54
 -1.36839660E+01  2.04316641E-01 -9.87954204E-01 -1.46059743E+01 -1.08798408E+00
  1.19889970E+00 -1.07777596E+01  6.33113999E-02 -1.04469066E+00 -9.78482756E+00
  1.45501988E+00 -3.39976409E+00 -1.00463766E+01 -2.37927876E+00 -1.12893939E+00
 -5.88568911E+00  2.70572311E+00 -5.81157398E+00 -6.87862114E+00  1.31401464E+00
 -3.45650055E+00 -1.42636548E+01  2.14029551E+00 -9.21179276E-01 -1.44336303E+01
 -6.66724762E-01 -2.65162558E+00 -1.00280953E+01  9.34352821E-01  6.18980718E-01
 -1.03645163E+01  3.39099875E+00 -3.33298916E+00 -1.05344918E+01  5.83978455E-01
 -5.06343547E+00 -6.46537783E+00  4.64170198E+00 -5.74479905E+00 -6.63535337E+00
  1.83468169E+00 -7.47524536E+00 -3.86644179E+00  2.60775192E+00 -5.85099476E+00
 -1.64176355E+01 -1.00008471E+00  1.23426789E+00 -6.29893240E+00 -6.21964255E-01
 -3.52327546E+00 -6.12895687E+00  2.18505604E+00 -1.79282917E+00
Number of symbols in /Mol/                 I                0
Force Field                                I                0
Atom Types                                 C   N=          18
                                                            
                                                            
                                                            
                                    
Int Atom Types                             I   N=          18
           0           0           0           0           0           0
           0           0           0           0           0           0
           0           0           0           0           0           0
MM charges                                 R   N=          18
  0.00000000E+00  0.00000000E+00  0.00000000E+00  0.00000000E+00  0.00000000E+00
  0.00000000E+00  0.00000000E+00  0.00000000E+00  0.00000000E+00  0.00000000E+00
  0.00000000E+00  0.00000000E+00  0.00000000E+00  0.00000000E+00  0.00000000E+00
  0.00000000E+00  0.00000000E+00  0.00000000E+00
Integer atomic weights                     I   N=          18
          12          16          12          12          19          12
          12           1           1           1           1           1
           1           1           1           1           1           1
Real atomic weights                        R   N=          18
  1.20000000E+01  1.59949146E+01  1.20000000E+01  1.20000000E+01  1.89984032E+01
  1.20000000E+01  1.20000000E+01  1.00782504E+00  1.00782504E+00  1.00782504E+00
  1.00782504E+00  1.00782504E+00  1.00782504E+00  1.00782504E+00  1.00782504E+00
  1.00782504E+00  1.00782504E+00  1.00782504E+00
Atom fragment info                         I   N=          18
           0           0           0           0           0           0
           0           0           0           0           0           0
           0           0           0           0           0           0
Atom residue num                           I   N=          18
           0           0           0           0           0           0
           0           0           0           0           0           0
           0           0           0           0           0           0
Nuclear spins                              I   N=          18
           0           0           0           0           1           0
           0           1           1           1           1           1
           1           1           1           1           1           1
Nuclear ZEff                               R   N=          18
 -3.60000000E+00 -5.60000000E+00 -3.60000000E+00 -3.60000000E+00 -6.75000000E+00
 -3.60000000E+00 -3.60000000E+00 -1.00000000E+00 -1.00000000E+00 -1.00000000E+00
 -1.00000000E+00 -1.00000000E+00 -1.00000000E+00 -1.00000000E+00 -1.00000000E+00
 -1.00000000E+00 -1.00000000E+00 -1.00000000E+00
Nuclear ZNuc                               R   N=          18
  6.00000000E+00  8.00000000E+00  6.00000000E+00  6.00000000E+00  9.00000000E+00
  6.00000000E+00  6.00000000E+00  1.00000000E+00  1.00000000E+00  1.00000000E+00
  1.00000000E+00  1.00000000E+00  1.00000000E+00  1.00000000E+00  1.00000000E+00
  1.00000000E+00  1.00000000E+00  1.00000000E+00
Nuclear QMom                               R   N=          18
  0.00000000E+00  0.00000000E+00  0.00000000E+00  0.00000000E+00  0.00000000E+00
  0.00000000E+00  0.00000000E+00  0.00000000E+00  0.00000000E+00  0.00000000E+00
  0.00000000E+00  0.00000000E+00  0.00000000E+00  0.00000000E+00  0.00000000E+00
  0.00000000E+00  0.00000000E+00  0.00000000E+00
Nuclear GFac                               R   N=          18
  0.00000000E+00  0.00000000E+00  0.00000000E+00  0.00000000E+00  2.62886700E+00
  0.00000000E+00  0.00000000E+00  2.79284600E+00  2.79284600E+00  2.79284600E+00
  2.79284600E+00  2.79284600E+00  2.79284600E+00  2.79284600E+00  2.79284600E+00
  2.79284600E+00  2.79284600E+00  2.79284600E+00
MicOpt                                     I   N=          18
          -1          -1          -1          -1          -1          -1
          -1          -1          -1          -1          -1          -1
          -1          -1          -1          -1          -1          -1
Number of residues                         I                0
Number of secondary structures             I                0
Number of contracted shells                I               43
Number of primitive shells                 I               75
Pure/Cartesian d shells                    I                1
Pure/Cartesian f shells                    I                0
Highest angular momentum                   I                1
Largest degree of contraction              I                3
Shell types                                I   N=          43
           0          -1          -1           0          -1          -1
           0          -1          -1           0          -1          -1
           0          -1          -1           0          -1          -1
           0          -1          -1           0           0           0
           0           0           0           0           0           0
           0           0           0           0           0           0
           0           0           0           0           0           0
           0
Number of primitives per shell             I   N=          43
           3           2           1           3           2           1
           3           2           1           3           2           1
           3           2           1           3           2           1
           3           2           1           2           1           2
           1           2           1           2           1           2
           1           2           1           2           1           2
           1           2           1           2           1           2
           1
Shell to atom map                          I   N=          43
           1           1           1           2           2           2
           3           3           3           4           4           4
           5           5           5           6           6           6
           7           7           7           8           8           9
           9          10          10          11          11          12
          12          13          13          14          14          15
          15          16          16          17          17          18
          18
Primitive exponents                        R   N=          75
  1.72256000E+02  2.59109000E+01  5.53335000E+00  3.66498000E+00  7.70545000E-01
  1.95857000E-01  3.22037000E+02  4.84308000E+01  1.04206000E+01  7.40294000E+00
  1.57620000E+00  3.73684000E-01  1.72256000E+02  2.59109000E+01  5.53335000E+00
  3.66498000E+00  7.70545000E-01  1.95857000E-01  1.72256000E+02  2.59109000E+01
  5.53335000E+00  3.66498000E+00  7.70545000E-01  1.95857000E-01  4.13801000E+02
  6.22446000E+01  1.34340000E+01  9.77759000E+00  2.08617000E+00  4.82383000E-01
  1.72256000E+02  2.59109000E+01  5.53335000E+00  3.66498000E+00  7.70545000E-01
  1.95857000E-01  1.72256000E+02  2.59109000E+01  5.53335000E+00  3.66498000E+00
  7.70545000E-01  1.95857000E-01  5.44717800E+00  8.24547240E-01  1.83191580E-01
  5.44717800E+00  8.24547240E-01  1.83191580E-01  5.44717800E+00  8.24547240E-01
  1.83191580E-01  5.44717800E+00  8.24547240E-01  1.83191580E-01  5.44717800E+00
  8.24547240E-01  1.83191580E-01  5.44717800E+00  8.24547240E-01  1.83191580E-01
  5.44717800E+00  8.24547240E-01  1.83191580E-01  5.44717800E+00  8.24547240E-01
  1.83191580E-01  5.44717800E+00  8.24547240E-01  1.83191580E-01  5.44717800E+00
  8.24547240E-01  1.83191580E-01  5.44717800E+00  8.24547240E-01  1.83191580E-01
Contraction coefficients                   R   N=          75
  6.17669074E-02  3.58794043E-01  7.00713084E-01 -3.95895162E-01  1.21583436E+00
  1.00000000E+00  5.92393934E-02  3.51499961E-01  7.07657921E-01 -4.04453583E-01
  1.22156176E+00  1.00000000E+00  6.17669074E-02  3.58794043E-01  7.00713084E-01
 -3.95895162E-01  1.21583436E+00  1.00000000E+00  6.17669074E-02  3.58794043E-01
  7.00713084E-01 -3.95895162E-01  1.21583436E+00  1.00000000E+00  5.85483029E-02
  3.49308017E-01  7.09632036E-01 -4.07326278E-01  1.22313783E+00  1.00000000E+00
  6.17669074E-02  3.58794043E-01  7.00713084E-01 -3.95895162E-01  1.21583436E+00
  1.00000000E+00  6.17669074E-02  3.58794043E-01  7.00713084E-01 -3.95895162E-01
  1.21583436E+00  1.00000000E+00  1.56284979E-01  9.04690877E-01  1.00000000E+00
  1.56284979E-01  9.04690877E-01  1.00000000E+00  1.56284979E-01  9.04690877E-01
  1.00000000E+00  1.56284979E-01  9.04690877E-01  1.00000000E+00  1.56284979E-01
  9.04690877E-01  1.00000000E+00  1.56284979E-01  9.04690877E-01  1.00000000E+00
  1.56284979E-01  9.04690877E-01  1.00000000E+00  1.56284979E-01  9.04690877E-01
  1.00000000E+00  1.56284979E-01  9.04690877E-01  1.00000000E+00  1.56284979E-01
  9.04690877E-01  1.00000000E+00  1.56284979E-01  9.04690877E-01  1.00000000E+00
P(S=P) Contraction coefficients            R   N=          75
  0.00000000E+00  0.00000000E+00  0.00000000E+00  2.36459947E-01  8.60618806E-01
  1.00000000E+00  0.00000000E+00  0.00000000E+00  0.00000000E+00  2.44586107E-01
  8.53955373E-01  1.00000000E+00  0.00000000E+00  0.00000000E+00  0.00000000E+00
  2.36459947E-01  8.60618806E-01  1.00000000E+00  0.00000000E+00  0.00000000E+00
  0.00000000E+00  2.36459947E-01  8.60618806E-01  1.00000000E+00  0.00000000E+00
  0.00000000E+00  0.00000000E+00  2.46680003E-01  8.52321011E-01  1.00000000E+00
  0.00000000E+00  0.00000000E+00  0.00000000E+00  2.36459947E-01  8.60618806E-01
  1.00000000E+00  0.00000000E+00  0.00000000E+00  0.00000000E+00  2.36459947E-01
  8.60618806E-01  1.00000000E+00  0.00000000E+00  0.00000000E+00  0.00000000E+00
  0.00000000E+00  0.00000000E+00  0.00000000E+00  0.00000000E+00  0.00000000E+00
  0.00000000E+00  0.00000000E+00  0.00000000E+00  0.00000000E+00  0.00000000E+00
  0.00000000E+00  0.00000000E+00  0.00000000E+00  0.00000000E+00  0.00000000E+00
  0.00000000E+00  0.00000000E+00  0.00000000E+00  0.00000000E+00  0.00000000E+00
  0.00000000E+00  0.00000000E+00  0.00000000E+00  0.00000000E+00  0.00000000E+00
  0.00000000E+00  0.00000000E+00  0.00000000E+00  0.00000000E+00  0.00000000E+00
Coordinates of each shell                  R   N=         129
 -1.36839660E+01  2.04316641E-01 -9.87954204E-01 -1.36839660E+01  2.04316641E-01
 -9.87954204E-01 -1.36839660E+01  2.04316641E-01 -9.87954204E-01 -1.46059743E+01
 -1.08798408E+00  1.19889970E+00 -1.46059743E+01 -1.08798408E+00  1.19889970E+00
 -1.46059743E+01 -1.08798408E+00  1.19889970E+00 -1.07777596E+01  6.33113999E-02
 -1.04469066E+00 -1.07777596E+01  6.33113999E-02 -1.04469066E+00 -1.07777596E+01
  6.33113999E-02 -1.04469066E+00 -9.78482756E+00  1.45501988E+00 -3.39976409E+00
 -9.78482756E+00  1.45501988E+00 -3.39976409E+00 -9.78482756E+00  1.45501988E+00
 -3.39976409E+00 -1.00463766E+01 -2.37927876E+00 -1.12893939E+00 -1.00463766E+01
 -2.37927876E+00 -1.12893939E+00 -1.00463766E+01 -2.37927876E+00 -1.12893939E+00
 -5.88568911E+00  2.70572311E+00 -5.81157398E+00 -5.88568911E+00  2.70572311E+00
 -5.81157398E+00 -5.88568911E+00  2.70572311E+00 -5.81157398E+00 -6.87862114E+00
  1.31401464E+00 -3.45650055E+00 -6.87862114E+00  1.31401464E+00 -3.45650055E+00
 -6.87862114E+00  1.31401464E+00 -3.45650055E+00 -1.42636548E+01  2.14029551E+00
 -9.21179276E-01 -1.42636548E+01  2.14029551E+00 -9.21179276E-01 -1.44336303E+01
 -6.66724762E-01 -2.65162558E+00 -1.44336303E+01 -6.66724762E-01 -2.65162558E+00
 -1.00280953E+01  9.34352821E-01  6.18980718E-01 -1.00280953E+01  9.34352821E-01
  6.18980718E-01 -1.03645163E+01  3.39099875E+00 -3.33298916E+00 -1.03645163E+01
  3.39099875E+00 -3.33298916E+00 -1.05344918E+01  5.83978455E-01 -5.06343547E+00
 -1.05344918E+01  5.83978455E-01 -5.06343547E+00 -6.46537783E+00  4.64170198E+00
 -5.74479905E+00 -6.46537783E+00  4.64170198E+00 -5.74479905E+00 -6.63535337E+00
  1.83468169E+00 -7.47524536E+00 -6.63535337E+00  1.83468169E+00 -7.47524536E+00
 -3.86644179E+00  2.60775192E+00 -5.85099476E+00 -3.86644179E+00  2.60775192E+00
 -5.85099476E+00 -1.64176355E+01 -1.00008471E+00  1.23426789E+00 -1.64176355E+01
 -1.00008471E+00  1.23426789E+00 -6.29893240E+00 -6.21964255E-01 -3.52327546E+00
 -6.29893240E+00 -6.21964255E-01 -3.52327546E+00 -6.12895687E+00  2.18505604E+00
 -1.79282917E+00 -6.12895687E+00  2.18505604E+00 -1.79282917E+00
Num ILSW                                   I              100
ILSW                                       I   N=         100
           0           1           0           0           2           0
           0           0           0           0           0          -1
           5           0           0           0           0           0
           0           0           0           0           0           0
           1           1           0           0           0           0
           0           0      100000           0          -1           0
           0           0           0           0           0           0
           0           0           0           1           0           0
           0 -2000000000           1           0           0           0
           0           0           4          52           0           0
           0           1           0           0           0           0
           0           0           0          18           0           1
           0           0           0           0           0           0
           0           0           0           0           0           0
           0           0           0           0           0           0
           0           0           0           0           0           0
           0           0           0           0
Num RLSW                                   I               52
RLSW                                       R   N=          52
  1.00000000E+00  1.00000000E+00  1.00000000E+00  1.00000000E+00  1.00000000E+00
  0.00000000E+00  0.00000000E+00  1.00000000E+00  0.00000000E+00  0.00000000E+00
  0.00000000E+00  0.00000000E+00  1.00000000E+00  0.00000000E+00  0.00000000E+00
  0.00000000E+00  0.00000000E+00  1.00000000E+00  0.00000000E+00  0.00000000E+00
  0.00000000E+00  0.00000000E+00  1.00000000E+00  0.00000000E+00  0.00000000E+00
  0.00000000E+00  0.00000000E+00  1.00000000E+00  0.00000000E+00  0.00000000E+00
  0.00000000E+00  0.00000000E+00  1.00000000E+00  0.00000000E+00  0.00000000E+00
  0.00000000E+00  0.00000000E+00  0.00000000E+00  1.00000000E+00  1.00000000E+00
  0.00000000E+00  1.00000000E+00  0.00000000E+00  0.00000000E+00  0.00000000E+00
  0.00000000E+00  0.00000000E+00  0.00000000E+00  0.00000000E+00  0.00000000E+00
  0.00000000E+00  0.00000000E+00
MxBond                                     I                4
NBond                                      I   N=          18
           4           2           4           4           1           4
           4           1           1           1           1           1
           1           1           1           1           1           1
IBond                                      I   N=          72
           2           3           8           9           1          16
           0           0           1           4           5          10
           3           7          11          12           3           0
           0           0           7          13          14          15
           4           6          17          18           1           0
           0           0           1           0           0           0
           3           0           0           0           4           0
           0           0           4           0           0           0
           6           0           0           0           6           0
           0           0           6           0           0           0
           2           0           0           0           7           0
           0           0           7           0           0           0
RBond                                      R   N=          72
  1.00000000E+00  1.00000000E+00  1.00000000E+00  1.00000000E+00  1.00000000E+00
  1.00000000E+00  0.00000000E+00  0.00000000E+00  1.00000000E+00  1.00000000E+00
  1.00000000E+00  1.00000000E+00  1.00000000E+00  1.00000000E+00  1.00000000E+00
  1.00000000E+00  1.00000000E+00  0.00000000E+00  0.00000000E+00  0.00000000E+00
  1.00000000E+00  1.00000000E+00  1.00000000E+00  1.00000000E+00  1.00000000E+00
  1.00000000E+00  1.00000000E+00  1.00000000E+00  1.00000000E+00  0.00000000E+00
  0.00000000E+00  0.00000000E+00  1.00000000E+00  0.00000000E+00  0.00000000E+00
  0.00000000E+00  1.00000000E+00  0.00000000E+00  0.00000000E+00  0.00000000E+00
  1.00000000E+00  0.00000000E+00  0.00000000E+00  0.00000000E+00  1.00000000E+00
  0.00000000E+00  0.00000000E+00  0.00000000E+00  1.00000000E+00  0.00000000E+00
  0.00000000E+00  0.00000000E+00  1.00000000E+00  0.00000000E+00  0.00000000E+00
  0.00000000E+00  1.00000000E+00  0.00000000E+00  0.00000000E+00  0.00000000E+00
  1.00000000E+00  0.00000000E+00  0.00000000E+00  0.00000000E+00  1.00000000E+00
  0.00000000E+00  0.00000000E+00  0.00000000E+00  1.00000000E+00  0.00000000E+00
  0.00000000E+00  0.00000000E+00
Virial Ratio                               R      2.002393897160929E+00
SCF Energy                                 R     -3.683999445364872E+02
Total Energy                               R     -3.683999445364872E+02
RMS Density                                R      9.079148402593766E-09
Job Status                                 I                1
Nuclear derivative order                   I                0
External E-field                           R   N=          35
  0.00000000E+00  0.00000000E+00  0.00000000E+00  0.00000000E+00  0.00000000E+00
  0.00000000E+00  0.00000000E+00  0.00000000E+00  0.00000000E+00  0.00000000E+00
  0.00000000E+00  0.00000000E+00  0.00000000E+00  0.00000000E+00  0.00000000E+00
  0.00000000E+00  0.00000000E+00  0.00000000E+00  0.00000000E+00  0.00000000E+00
  0.00000000E+00  0.00000000E+00  0.00000000E+00  0.00000000E+00  0.00000000E+00
  0.00000000E+00  0.00000000E+00  0.00000000E+00  0.00000000E+00  0.00000000E+00
  0.00000000E+00  0.00000000E+00  0.00000000E+00  0.00000000E+00  0.00000000E+00
IOpCl                                      I                0
IROHF                                      I                0
Alpha Orbital Energies                     R   N=          85
 -2.61237557E+01 -2.04344998E+01 -1.12416778E+01 -1.12150911E+01 -1.11563090E+01
 -1.11468574E+01 -1.11075235E+01 -1.57363224E+00 -1.34465277E+00 -1.08114898E+00
 -1.00705060E+00 -9.13065317E-01 -8.23087041E-01 -7.99136295E-01 -7.07514704E-01
 -6.90903875E-01 -6.48669633E-01 -6.39268790E-01 -6.20654753E-01 -6.03921749E-01
 -5.53934092E-01 -5.32465884E-01 -5.20455983E-01 -5.01100609E-01 -4.69310241E-01
 -4.67117486E-01 -4.56615737E-01 -4.34820730E-01 -4.16623975E-01  2.59880219E-01
  2.74496902E-01  2.98060748E-01  3.03782078E-01  3.37667588E-01  3.48579115E-01
  3.65769528E-01  3.78091689E-01  3.83614879E-01  3.96379573E-01  4.01985756E-01
  4.05549112E-01  4.28431551E-01  4.55149384E-01  4.83693917E-01  5.00557792E-01
  5.30996525E-01  9.13453770E-01  9.34720309E-01  9.41799701E-01  9.60439441E-01
  9.78325091E-01  1.01843537E+00  1.03043211E+00  1.05570292E+00  1.06527863E+00
  1.09885209E+00  1.15983194E+00  1.19716057E+00  1.21762652E+00  1.26446935E+00
  1.29265917E+00  1.31672432E+00  1.35925344E+00  1.38446395E+00  1.42121831E+00
  1.43209027E+00  1.43453480E+00  1.45276634E+00  1.46149072E+00  1.51394158E+00
  1.52009417E+00  1.65646897E+00  1.83609798E+00  1.96581267E+00  2.00101943E+00
  2.12400725E+00  2.17993811E+00  2.28935084E+00  2.34054200E+00  2.45775978E+00
  2.47251050E+00  2.51162397E+00  2.70165583E+00  3.44713082E+00  4.18619787E+00
Alpha MO coefficients                      R   N=        7225
  2.26776325E-04  8.74742777E-04 -7.48781608E-04 -8.99972735E-05 -1.83814186E-04
 -5.77905704E-03 -1.70686981E-03  4.73208670E-03  2.11505007E-03 -3.04381998E-05
 -1.37031970E-04  2.59832189E-04  1.80791280E-04  1.08510309E-04  1.03936060E-03
 -5.82214515E-04 -5.94499116E-04 -8.83761290E-04 -9.98243285E-04 -4.17213094E-03
  6.76993120E-04 -1.46122177E-03  5.05568637E-04  2.12682214E-02  1.71862263E-03
 -1.23404104E-02 -4.65491938E-03  2.31169756E-04  9.20952459E-04  1.98277195E-04
  3.99971737E-05 -7.96662743E-04 -6.24871059E-03  2.97836824E-04  6.46109577E-03
  1.20009860E-03  9.82142112E-01  9.77640260E-02 -8.97682618E-04  3.05381174E-03
  6.92015323E-05 -3.94267497E-02  2.65197552E-03 -8.49576709E-03 -1.96317202E-05
  5.58218531E-05  3.38802622E-04 -3.60158224E-05 -8.44856718E-05 -5.47764622E-05
 -1.78004044E-03  7.72054999E-04  1.54085098E-03 -1.30119325E-04  1.41484449E-05
  3.25451928E-04 -2.30262689E-04  1.29330356E-04  5.35303258E-04  7.38303620E-04
 -3.89905069E-04 -1.53830415E-03 -3.55487824E-03 -5.37587506E-04 -5.24605525E-04
  1.02199687E-03  1.61131097E-03 -9.74533453E-04  2.00029168E-04 -7.19972745E-04
 -7.90444904E-04  1.22290771E-03  1.62121088E-03  9.64373040E-05 -6.85369828E-04
  2.34428138E-04  5.32464774E-04  5.72070698E-05 -1.44980329E-04 -3.08922372E-04
 -2.12551102E-04 -5.16586613E-04 -9.70802449E-05  5.41541920E-04  1.55223286E-03
 -8.61203077E-04 -3.37642657E-03 -9.01504188E-04 -6.89318175E-04  1.21448228E-03
  2.18631001E-02 -5.15264136E-04 -5.45409251E-03  8.73768192E-03  9.83480340E-01
  9.80594994E-02 -1.54593156E-03  1.92456075E-03 -2.93324183E-03 -4.53398585E-02
  1.48764502E-03 -5.17818929E-03  8.26908325E-03  3.25354130E-04  1.52395431E-03
  2.16774310E-04  9.19986611E-05 -1.62824437E-04 -9.43087238E-03  4.46271079E-03
  2.82675908E-04 -4.68007311E-04 -1.07797497E-04 -6.86016706E-04  6.22083206E-04
  9.07884067E-05 -1.89278305E-04  1.53731255E-03 -4.14273484E-03 -7.91021876E-04
  1.45918426E-03 -1.99548471E-05 -1.10410412E-04 -8.11340148E-05 -1.60870601E-05
 -2.24777707E-05  8.59618206E-04 -8.59756453E-05  4.23495673E-04  9.34391159E-05
  1.42445959E-05  2.40674976E-05  1.91909784E-04  3.93577668E-05 -7.95530894E-05
 -1.18548403E-03 -5.06386551E-04  2.93723495E-04 -4.73891375E-04 -4.16358378E-05
 -2.43008971E-04 -1.53310549E-04 -1.20697891E-04  1.94722578E-04  2.40726724E-03
 -5.91816800E-04  8.93888423E-04 -1.25873945E-03 -1.42445482E-03 -1.31163991E-03
 -1.45201393E-03 -1.34121531E-03  6.25541640E-04  5.39188067E-05 -4.23072645E-04
  6.84533392E-06 -4.61024946E-04 -4.23044819E-05 -1.79800876E-05 -3.75716144E-05
 -2.07432323E-05 -6.01507009E-05  1.09326228E-04  4.93824891E-04  3.07592888E-03
  5.28074386E-03  1.22115852E-05  1.55493720E-04 -3.90447015E-06  1.03324282E-04
 -5.32662571E-03 -3.53405697E-03  3.16447922E-04  3.37287563E-04 -2.65727655E-04
  2.52388130E-02  1.46693487E-02 -1.09871888E-03 -2.89871993E-04  8.33404509E-05
  4.53996330E-04 -2.11381799E-04 -1.68917334E-05  1.47953918E-04 -2.69025525E-03
 -5.89362522E-04 -3.75676915E-04  4.45470942E-04  9.88014387E-01  1.04035979E-01
 -2.33010190E-04 -1.08129284E-05 -4.84937185E-04 -9.06138326E-02  6.62054662E-03
 -9.43984207E-03  7.45014694E-03 -1.92192946E-03 -3.11934309E-03 -4.29077514E-04
  1.50351176E-04 -2.35740652E-05  2.55004405E-02 -5.39769683E-03 -7.67854705E-03
  1.28595499E-02 -1.91635195E-04 -5.06192226E-04 -1.47391492E-04  8.69952938E-04
  2.31727518E-04  7.56870693E-03 -5.50885822E-04 -6.80773274E-05 -1.07861893E-03
 -8.89384747E-04 -1.25103284E-03  4.13874810E-04 -4.95697444E-05 -8.88963692E-05
  4.26388970E-03 -3.35017501E-03 -4.74184313E-04  1.66677342E-03 -9.63008477E-04
 -3.50553224E-04  6.09767860E-04  3.54030085E-04 -6.00896905E-04 -2.91110808E-03
  3.97884748E-04 -1.24688456E-03  2.35758153E-03 -1.46416701E-03  1.05120502E-03
 -1.59209677E-03  6.54428281E-04  4.99339407E-04  1.53683859E-02 -1.43877736E-03
  1.21207119E-03 -1.50874221E-03  1.04643934E-03 -5.65547455E-04 -4.36847709E-04
 -5.03220248E-04 -1.65662332E-04  6.40554730E-06  1.28074576E-03  1.63659090E-04
  1.07343498E-03 -2.65785533E-04  9.19443985E-05  1.97621268E-04 -1.51967738E-03
  9.87594761E-01  1.01754368E-01  1.82180555E-04  3.19626193E-04 -4.10773955E-04
 -8.03036823E-02 -7.87820803E-03 -1.55079964E-03  3.76498004E-03 -1.49479109E-04
 -2.49573657E-04 -7.60324234E-05  3.60695351E-04 -5.46901638E-04  7.24894880E-03
  2.23206394E-03  7.05382240E-04 -1.48900247E-03  4.36537156E-03 -2.02267271E-03
  6.37363595E-05  2.08975708E-04  2.91217421E-05  2.06866545E-02 -1.39278694E-02
 -1.35924473E-03  1.09252671E-03 -3.09305797E-03 -1.53837948E-03  1.19688751E-03
  7.14580065E-05 -3.49118215E-04  1.17329819E-03 -5.56684884E-03  8.94173580E-04
  2.58387008E-04  3.57850710E-05  8.21129628E-05  1.77293187E-04 -8.27924982E-05
  2.46899144E-05 -1.46392940E-03  4.48398184E-04 -4.25460306E-04 -1.88922493E-04
 -2.28340052E-04 -2.29668571E-04  1.01551307E-04  3.92097817E-05 -9.47864091E-05
  9.30278624E-04 -1.88720917E-04 -4.33391117E-04  9.59746678E-04 -1.56228558E-03
 -1.27852361E-03  2.47916740E-04  1.56026100E-04 -2.12657625E-04  4.73582509E-03
 -3.70687257E-03 -1.20437597E-03  1.75099743E-03  1.86194777E-05  1.59360453E-02
  1.19450187E-04  1.59643299E-02 -1.32662984E-03  1.42499439E-03 -3.81991442E-04
 -1.95460892E-03 -2.27847178E-04 -1.62593107E-03 -1.12274382E-04  2.70454627E-04
 -9.43207289E-05  3.77975554E-04 -1.07908766E-04  3.06467634E-04 -1.62395077E-05
  1.85416118E-03 -5.16662932E-04 -1.11071749E-04 -4.22194987E-04  8.61543657E-06
  2.91173209E-03 -8.31032745E-04 -5.46435741E-04 -2.27323317E-04  3.53574123E-04
  9.42760538E-04 -7.27266090E-04  1.08260818E-03 -9.07722287E-04 -3.08116839E-05
 -3.40285052E-04 -3.20681727E-04  9.47281277E-07  6.81782770E-05  9.31790882E-04
  1.40875518E-03  5.17262984E-05 -3.91520853E-04  9.21866974E-04 -2.58258522E-03
  5.06803295E-04  3.01139048E-04 -2.48824596E-04  2.34266710E-02  4.72855630E-03
  5.21066112E-03 -1.08444534E-02  9.87937266E-01  1.05202699E-01  4.22497801E-05
 -1.06999477E-04  2.56903631E-04 -9.49870023E-02 -4.13824403E-03  3.57685491E-03
 -4.87097061E-03  3.94997661E-05  1.06926535E-04  3.43449882E-05 -1.47355543E-04
  1.56562169E-04 -1.59838213E-03 -9.85505299E-05 -6.26376473E-04  3.89473260E-05
 -3.32640618E-03 -1.40807808E-03  8.13916129E-04  1.79912749E-04 -3.89836289E-04
  1.12794720E-03 -1.39323077E-03  4.13773445E-04 -3.80544243E-04 -9.43401227E-03
 -3.24255499E-03 -5.90821773E-04 -2.00155301E-04  4.17758508E-04  2.23765812E-02
 -1.29674854E-02  4.05679871E-04  3.67321695E-04 -1.41989943E-04 -1.46178510E-03
 -4.07945426E-05 -1.23025861E-03 -1.38050880E-03  9.35461187E-04  6.73161175E-04
  1.55576602E-02  7.84303507E-04  1.56057388E-02 -4.73605805E-05 -1.52620499E-03
 -3.93716715E-05 -1.44212531E-03 -1.56810626E-04  1.85633898E-03  2.68998613E-04
  4.57850942E-04 -1.35131799E-03  6.43064182E-04 -1.26732371E-03  6.00752848E-04
  1.24387662E-03 -1.03908876E-03 -1.75412696E-04 -1.71309613E-04  1.75416175E-04
  4.74341503E-03  3.07331404E-03  9.80786253E-04 -1.57946061E-03 -1.09622556E-05
 -1.13777547E-04  6.99555453E-06 -3.02330165E-05  4.73721596E-05  5.01153083E-04
 -1.08521319E-04  1.49551450E-04 -2.59265495E-04  1.04964262E-03 -3.09198624E-04
 -8.82439915E-04 -2.40408411E-04  2.19420441E-04 -2.33237538E-03  3.48770411E-03