#INFO: **** input file is /home/liwei01/wsr/dftpart/test_2body/c8/gfea_c8.py ****
from dftpart import gfea3

fr0 = gfea3.GFEA()
fr0.inputstyle = 'frg'
fr0.method = ['hf', '3-21g','charge']
fr0.gjfname = 'c8'
fr0.showinter = True
fr0.kernel()

#INFO: ******************** input file end ********************


System: uname_result(system='Linux', node='master', release='3.10.0-693.el7.x86_64', version='#1 SMP Tue Aug 22 21:09:27 UTC 2017', machine='x86_64', processor='x86_64')  Threads 20
Python 3.6.4 |Anaconda, Inc.| (default, Jan 16 2018, 18:10:19) 
[GCC 7.2.0]
numpy 1.14.0  scipy 1.0.0
Date: Sun Feb  9 20:54:02 2020
PySCF version 1.5.4
PySCF path  /home/liwei01/liaokang/anaconda3/lib/python3.6/site-packages/pyscf

[CONFIG] conf_file None
[INPUT] verbose = 4
[INPUT] num. atoms = 18
[INPUT] num. electrons = 58
[INPUT] charge = 0
[INPUT] spin (= nelec alpha-beta = 2S) = 0
[INPUT] symmetry False subgroup None
[INPUT] Mole.unit = angstrom
[INPUT]  1 C     -7.241242980000   0.108119710000  -0.522802850000 AA  -13.683966033629   0.204316640567  -0.987954203642 Bohr
[INPUT]  2 O     -7.729148760000  -0.575736380000   0.634430400000 AA  -14.605974332422  -1.087984078149   1.198899701098 Bohr
[INPUT]  3 C     -5.703344760000   0.033502950000  -0.552826490000 AA  -10.777759590373   0.063311399865  -1.044690660505 Bohr
[INPUT]  4 C     -5.177907760000   0.769963360000  -1.799077680000 AA   -9.784827564660   1.455019876350  -3.399764092018 Bohr
[INPUT]  5 F     -5.316313560000  -1.259060100000  -0.597409000000 AA  -10.046376620711  -2.379278763367  -1.128939394350 Bohr
[INPUT]  6 C     -3.114572550000   1.431807010000  -3.075352510000 AA   -5.885689114588   2.705723112132  -5.811573980394 Bohr
[INPUT]  7 C     -3.640009550000   0.695346600000  -1.829101320000 AA   -6.878621140301   1.314014635647  -3.456500548880 Bohr
[INPUT]  8 H     -7.548001040000   1.132595610000  -0.487467080000 AA  -14.263654753532   2.140295512785  -0.921179275941 Bohr
[INPUT]  9 H     -7.637948220000  -0.352815550000  -1.403179830000 AA  -14.433630289409  -0.666724761988  -2.651625582214 Bohr
[INPUT] 10 H     -5.306639520000   0.494438220000   0.327550490000 AA  -10.028095334593   0.934352821317   0.618980718067 Bohr
[INPUT] 11 H     -5.484665830000   1.794439260000  -1.763741910000 AA  -10.364516303460   3.390998748567  -3.332989164317 Bohr
[INPUT] 12 H     -5.574613010000   0.309028090000  -2.679454660000 AA  -10.534491839337   0.583978454897  -5.063435470590 Bohr
[INPUT] 13 H     -3.421330610000   2.456282910000  -3.040016740000 AA   -6.465377834491   4.641701984350  -5.744799052693 Bohr
[INPUT] 14 H     -3.511277790000   0.970871740000  -3.955729490000 AA   -6.635353370368   1.834681690680  -7.475245358965 Bohr
[INPUT] 15 H     -2.046032880000   1.379962890000  -3.096213090000 AA   -3.866441785055   2.607751924163  -5.850994763393 Bohr
[INPUT] 16 H     -8.687838560000  -0.529222040000   0.653146440000 AA  -16.417635492836  -1.000084714684   1.234267890835 Bohr
[INPUT] 17 H     -3.333251480000  -0.329129310000  -1.864437080000 AA   -6.298932401501  -0.621964255467  -3.523275457684 Bohr
[INPUT] 18 H     -3.243304300000   1.156281860000  -0.948724340000 AA   -6.128956865624   2.185056038203  -1.792829170309 Bohr

nuclear repulsion = 326.446241199013
number of shells = 57
number of NR pGTOs = 138
number of NR cGTOs = 85
basis = 3-21g
ecp = {}
CPU time:         3.06


******** <class 'pyscf.qmmm.itrf.mm_charge.<locals>.QMMM'> flags ********
method = QMMM-RHF
initial guess = minao
damping factor = 0
level shift factor = 0
DIIS = <class 'pyscf.scf.diis.CDIIS'>
DIIS start cycle = 1
DIIS space = 8
SCF tol = 1e-09
SCF gradient tol = None
max. SCF cycles = 50
direct_scf = True
direct_scf_tol = 1e-13
chkfile to save SCF result = /home/liwei01/wsr/dftpart/test_2body/c8/tmp8158tzac
max_memory 4000 MB (current use 77 MB)
** Add background charges for <class 'pyscf.scf.hf.RHF'> **
Set gradient conv threshold to 3.16228e-05
init E= -369.6079650392
  HOMO = -0.333715239519229  LUMO = 0.130608673016832
cycle= 1 E= -367.968037023605  delta_E= 1.64  |g|= 0.648  |ddm|= 3.66
  HOMO = -0.374107850265283  LUMO = 0.24387578453756
cycle= 2 E= -368.050865723576  delta_E= -0.0828  |g|= 0.332  |ddm|= 0.768
  HOMO = -0.41331603128736  LUMO = 0.255673519601693
cycle= 3 E= -368.068387370817  delta_E= -0.0175  |g|= 0.0624  |ddm|= 0.322
  HOMO = -0.416851634218944  LUMO = 0.260204726570115
cycle= 4 E= -368.06942873931  delta_E= -0.00104  |g|= 0.00791  |ddm|= 0.0761
  HOMO = -0.416269923002689  LUMO = 0.259937653211968
cycle= 5 E= -368.069456314362  delta_E= -2.76e-05  |g|= 0.00295  |ddm|= 0.0191
  HOMO = -0.416683019566794  LUMO = 0.259833558957421
cycle= 6 E= -368.06945990232  delta_E= -3.59e-06  |g|= 0.000649  |ddm|= 0.00589
  HOMO = -0.41662171511394  LUMO = 0.259884391341181
cycle= 7 E= -368.069460120486  delta_E= -2.18e-07  |g|= 0.000132  |ddm|= 0.00162
  HOMO = -0.416626417986119  LUMO = 0.259882561350565
cycle= 8 E= -368.069460127367  delta_E= -6.88e-09  |g|= 4.6e-05  |ddm|= 0.000234
  HOMO = -0.416624255625692  LUMO = 0.259881330718095
cycle= 9 E= -368.069460127927  delta_E= -5.6e-10  |g|= 9.84e-06  |ddm|= 5.85e-05
  HOMO = -0.416623847428629  LUMO = 0.259880865790931
Extra cycle  E= -368.069460127975  delta_E= -4.82e-11  |g|= 5.05e-06  |ddm|= 1.8e-05
converged SCF energy = -368.069460127975
