Atom number=19                                                          
SP        RHF                                                         3-21G               
Number of atoms                            I               19
Info1-9                                    I   N=           9
          35          34           0           0           0         111
           1           1           2
Full Title                                 C   N=           2
Atom number=19          
Route                                      C   N=           3
#p hf/3-21g pop=npa charge nosymm   
Charge                                     I                0
Multiplicity                               I                1
Number of electrons                        I               58
Number of alpha electrons                  I               29
Number of beta electrons                   I               29
Number of basis functions                  I               87
Number of independent functions            I               87
Number of point charges in /Mol/           I                0
Number of translation vectors              I                0
Atomic numbers                             I   N=          19
           6           6           9           6           6           6
           7           1           1           1           1           1
           1           1           1           1           1           1
           1
Nuclear charges                            R   N=          19
  6.00000000E+00  6.00000000E+00  9.00000000E+00  6.00000000E+00  6.00000000E+00
  6.00000000E+00  7.00000000E+00  1.00000000E+00  1.00000000E+00  1.00000000E+00
  1.00000000E+00  1.00000000E+00  1.00000000E+00  1.00000000E+00  1.00000000E+00
  1.00000000E+00  1.00000000E+00  1.00000000E+00  1.00000000E+00
Current cartesian coordinates              R   N=          57
 -1.07777596E+01  6.33113999E-02 -1.04469066E+00 -9.78482756E+00  1.45501988E+00
 -3.39976409E+00 -1.00463766E+01 -2.37927876E+00 -1.12893939E+00 -5.88568911E+00
  2.70572311E+00 -5.81157398E+00 -6.87862114E+00  1.31401464E+00 -3.45650055E+00
 -2.97948267E+00  2.56471785E+00 -5.86831044E+00 -2.03168392E+00  3.89316686E+00
 -8.11633506E+00 -1.27970069E+01  1.61282569E-01 -1.00526988E+00 -1.00280953E+01
  9.34352821E-01  6.18980718E-01 -1.03645163E+01  3.39099875E+00 -3.33298916E+00
 -1.05344918E+01  5.83978455E-01 -5.06343547E+00 -6.46537783E+00  4.64170198E+00
 -5.74479905E+00 -6.63535337E+00  1.83468169E+00 -7.47524536E+00 -2.39979393E+00
  6.28738980E-01 -5.93508535E+00 -2.22981842E+00  3.43575927E+00 -4.20463906E+00
 -2.57344909E+00  5.70249290E+00 -8.05392859E+00 -1.44536874E-01  3.80160502E+00
 -8.15317693E+00 -6.29893240E+00 -6.21964255E-01 -3.52327546E+00 -6.12895687E+00
  2.18505604E+00 -1.79282917E+00
Number of symbols in /Mol/                 I                0
Force Field                                I                0
Atom Types                                 C   N=          19
                                                            
                                                            
                                                            
                                                
Int Atom Types                             I   N=          19
           0           0           0           0           0           0
           0           0           0           0           0           0
           0           0           0           0           0           0
           0
MM charges                                 R   N=          19
  0.00000000E+00  0.00000000E+00  0.00000000E+00  0.00000000E+00  0.00000000E+00
  0.00000000E+00  0.00000000E+00  0.00000000E+00  0.00000000E+00  0.00000000E+00
  0.00000000E+00  0.00000000E+00  0.00000000E+00  0.00000000E+00  0.00000000E+00
  0.00000000E+00  0.00000000E+00  0.00000000E+00  0.00000000E+00
Integer atomic weights                     I   N=          19
          12          12          19          12          12          12
          14           1           1           1           1           1
           1           1           1           1           1           1
           1
Real atomic weights                        R   N=          19
  1.20000000E+01  1.20000000E+01  1.89984032E+01  1.20000000E+01  1.20000000E+01
  1.20000000E+01  1.40030740E+01  1.00782504E+00  1.00782504E+00  1.00782504E+00
  1.00782504E+00  1.00782504E+00  1.00782504E+00  1.00782504E+00  1.00782504E+00
  1.00782504E+00  1.00782504E+00  1.00782504E+00  1.00782504E+00
Atom fragment info                         I   N=          19
           0           0           0           0           0           0
           0           0           0           0           0           0
           0           0           0           0           0           0
           0
Atom residue num                           I   N=          19
           0           0           0           0           0           0
           0           0           0           0           0           0
           0           0           0           0           0           0
           0
Nuclear spins                              I   N=          19
           0           0           1           0           0           0
           2           1           1           1           1           1
           1           1           1           1           1           1
           1
Nuclear ZEff                               R   N=          19
 -3.60000000E+00 -3.60000000E+00 -6.75000000E+00 -3.60000000E+00 -3.60000000E+00
 -3.60000000E+00 -4.55000000E+00 -1.00000000E+00 -1.00000000E+00 -1.00000000E+00
 -1.00000000E+00 -1.00000000E+00 -1.00000000E+00 -1.00000000E+00 -1.00000000E+00
 -1.00000000E+00 -1.00000000E+00 -1.00000000E+00 -1.00000000E+00
Nuclear ZNuc                               R   N=          19
  6.00000000E+00  6.00000000E+00  9.00000000E+00  6.00000000E+00  6.00000000E+00
  6.00000000E+00  7.00000000E+00  1.00000000E+00  1.00000000E+00  1.00000000E+00
  1.00000000E+00  1.00000000E+00  1.00000000E+00  1.00000000E+00  1.00000000E+00
  1.00000000E+00  1.00000000E+00  1.00000000E+00  1.00000000E+00
Nuclear QMom                               R   N=          19
  0.00000000E+00  0.00000000E+00  0.00000000E+00  0.00000000E+00  0.00000000E+00
  0.00000000E+00  2.04400000E+00  0.00000000E+00  0.00000000E+00  0.00000000E+00
  0.00000000E+00  0.00000000E+00  0.00000000E+00  0.00000000E+00  0.00000000E+00
  0.00000000E+00  0.00000000E+00  0.00000000E+00  0.00000000E+00
Nuclear GFac                               R   N=          19
  0.00000000E+00  0.00000000E+00  2.62886700E+00  0.00000000E+00  0.00000000E+00
  0.00000000E+00  4.03761000E-01  2.79284600E+00  2.79284600E+00  2.79284600E+00
  2.79284600E+00  2.79284600E+00  2.79284600E+00  2.79284600E+00  2.79284600E+00
  2.79284600E+00  2.79284600E+00  2.79284600E+00  2.79284600E+00
MicOpt                                     I   N=          19
          -1          -1          -1          -1          -1          -1
          -1          -1          -1          -1          -1          -1
          -1          -1          -1          -1          -1          -1
          -1
Number of residues                         I                0
Number of secondary structures             I                0
Number of contracted shells                I               45
Number of primitive shells                 I               78
Pure/Cartesian d shells                    I                1
Pure/Cartesian f shells                    I                0
Highest angular momentum                   I                1
Largest degree of contraction              I                3
Shell types                                I   N=          45
           0          -1          -1           0          -1          -1
           0          -1          -1           0          -1          -1
           0          -1          -1           0          -1          -1
           0          -1          -1           0           0           0
           0           0           0           0           0           0
           0           0           0           0           0           0
           0           0           0           0           0           0
           0           0           0
Number of primitives per shell             I   N=          45
           3           2           1           3           2           1
           3           2           1           3           2           1
           3           2           1           3           2           1
           3           2           1           2           1           2
           1           2           1           2           1           2
           1           2           1           2           1           2
           1           2           1           2           1           2
           1           2           1
Shell to atom map                          I   N=          45
           1           1           1           2           2           2
           3           3           3           4           4           4
           5           5           5           6           6           6
           7           7           7           8           8           9
           9          10          10          11          11          12
          12          13          13          14          14          15
          15          16          16          17          17          18
          18          19          19
Primitive exponents                        R   N=          78
  1.72256000E+02  2.59109000E+01  5.53335000E+00  3.66498000E+00  7.70545000E-01
  1.95857000E-01  1.72256000E+02  2.59109000E+01  5.53335000E+00  3.66498000E+00
  7.70545000E-01  1.95857000E-01  4.13801000E+02  6.22446000E+01  1.34340000E+01
  9.77759000E+00  2.08617000E+00  4.82383000E-01  1.72256000E+02  2.59109000E+01
  5.53335000E+00  3.66498000E+00  7.70545000E-01  1.95857000E-01  1.72256000E+02
  2.59109000E+01  5.53335000E+00  3.66498000E+00  7.70545000E-01  1.95857000E-01
  1.72256000E+02  2.59109000E+01  5.53335000E+00  3.66498000E+00  7.70545000E-01
  1.95857000E-01  2.42766000E+02  3.64851000E+01  7.81449000E+00  5.42522000E+00
  1.14915000E+00  2.83205000E-01  5.44717800E+00  8.24547240E-01  1.83191580E-01
  5.44717800E+00  8.24547240E-01  1.83191580E-01  5.44717800E+00  8.24547240E-01
  1.83191580E-01  5.44717800E+00  8.24547240E-01  1.83191580E-01  5.44717800E+00
  8.24547240E-01  1.83191580E-01  5.44717800E+00  8.24547240E-01  1.83191580E-01
  5.44717800E+00  8.24547240E-01  1.83191580E-01  5.44717800E+00  8.24547240E-01
  1.83191580E-01  5.44717800E+00  8.24547240E-01  1.83191580E-01  5.44717800E+00
  8.24547240E-01  1.83191580E-01  5.44717800E+00  8.24547240E-01  1.83191580E-01
  5.44717800E+00  8.24547240E-01  1.83191580E-01
Contraction coefficients                   R   N=          78
  6.17669074E-02  3.58794043E-01  7.00713084E-01 -3.95895162E-01  1.21583436E+00
  1.00000000E+00  6.17669074E-02  3.58794043E-01  7.00713084E-01 -3.95895162E-01
  1.21583436E+00  1.00000000E+00  5.85483029E-02  3.49308017E-01  7.09632036E-01
 -4.07326278E-01  1.22313783E+00  1.00000000E+00  6.17669074E-02  3.58794043E-01
  7.00713084E-01 -3.95895162E-01  1.21583436E+00  1.00000000E+00  6.17669074E-02
  3.58794043E-01  7.00713084E-01 -3.95895162E-01  1.21583436E+00  1.00000000E+00
  6.17669074E-02  3.58794043E-01  7.00713084E-01 -3.95895162E-01  1.21583436E+00
  1.00000000E+00  5.98657005E-02  3.52955003E-01  7.06513006E-01 -4.13300077E-01
  1.22441727E+00  1.00000000E+00  1.56284979E-01  9.04690877E-01  1.00000000E+00
  1.56284979E-01  9.04690877E-01  1.00000000E+00  1.56284979E-01  9.04690877E-01
  1.00000000E+00  1.56284979E-01  9.04690877E-01  1.00000000E+00  1.56284979E-01
  9.04690877E-01  1.00000000E+00  1.56284979E-01  9.04690877E-01  1.00000000E+00
  1.56284979E-01  9.04690877E-01  1.00000000E+00  1.56284979E-01  9.04690877E-01
  1.00000000E+00  1.56284979E-01  9.04690877E-01  1.00000000E+00  1.56284979E-01
  9.04690877E-01  1.00000000E+00  1.56284979E-01  9.04690877E-01  1.00000000E+00
  1.56284979E-01  9.04690877E-01  1.00000000E+00
P(S=P) Contraction coefficients            R   N=          78
  0.00000000E+00  0.00000000E+00  0.00000000E+00  2.36459947E-01  8.60618806E-01
  1.00000000E+00  0.00000000E+00  0.00000000E+00  0.00000000E+00  2.36459947E-01
  8.60618806E-01  1.00000000E+00  0.00000000E+00  0.00000000E+00  0.00000000E+00
  2.46680003E-01  8.52321011E-01  1.00000000E+00  0.00000000E+00  0.00000000E+00
  0.00000000E+00  2.36459947E-01  8.60618806E-01  1.00000000E+00  0.00000000E+00
  0.00000000E+00  0.00000000E+00  2.36459947E-01  8.60618806E-01  1.00000000E+00
  0.00000000E+00  0.00000000E+00  0.00000000E+00  2.36459947E-01  8.60618806E-01
  1.00000000E+00  0.00000000E+00  0.00000000E+00  0.00000000E+00  2.37972016E-01
  8.58953059E-01  1.00000000E+00  0.00000000E+00  0.00000000E+00  0.00000000E+00
  0.00000000E+00  0.00000000E+00  0.00000000E+00  0.00000000E+00  0.00000000E+00
  0.00000000E+00  0.00000000E+00  0.00000000E+00  0.00000000E+00  0.00000000E+00
  0.00000000E+00  0.00000000E+00  0.00000000E+00  0.00000000E+00  0.00000000E+00
  0.00000000E+00  0.00000000E+00  0.00000000E+00  0.00000000E+00  0.00000000E+00
  0.00000000E+00  0.00000000E+00  0.00000000E+00  0.00000000E+00  0.00000000E+00
  0.00000000E+00  0.00000000E+00  0.00000000E+00  0.00000000E+00  0.00000000E+00
  0.00000000E+00  0.00000000E+00  0.00000000E+00
Coordinates of each shell                  R   N=         135
 -1.07777596E+01  6.33113999E-02 -1.04469066E+00 -1.07777596E+01  6.33113999E-02
 -1.04469066E+00 -1.07777596E+01  6.33113999E-02 -1.04469066E+00 -9.78482756E+00
  1.45501988E+00 -3.39976409E+00 -9.78482756E+00  1.45501988E+00 -3.39976409E+00
 -9.78482756E+00  1.45501988E+00 -3.39976409E+00 -1.00463766E+01 -2.37927876E+00
 -1.12893939E+00 -1.00463766E+01 -2.37927876E+00 -1.12893939E+00 -1.00463766E+01
 -2.37927876E+00 -1.12893939E+00 -5.88568911E+00  2.70572311E+00 -5.81157398E+00
 -5.88568911E+00  2.70572311E+00 -5.81157398E+00 -5.88568911E+00  2.70572311E+00
 -5.81157398E+00 -6.87862114E+00  1.31401464E+00 -3.45650055E+00 -6.87862114E+00
  1.31401464E+00 -3.45650055E+00 -6.87862114E+00  1.31401464E+00 -3.45650055E+00
 -2.97948267E+00  2.56471785E+00 -5.86831044E+00 -2.97948267E+00  2.56471785E+00
 -5.86831044E+00 -2.97948267E+00  2.56471785E+00 -5.86831044E+00 -2.03168392E+00
  3.89316686E+00 -8.11633506E+00 -2.03168392E+00  3.89316686E+00 -8.11633506E+00
 -2.03168392E+00  3.89316686E+00 -8.11633506E+00 -1.27970069E+01  1.61282569E-01
 -1.00526988E+00 -1.27970069E+01  1.61282569E-01 -1.00526988E+00 -1.00280953E+01
  9.34352821E-01  6.18980718E-01 -1.00280953E+01  9.34352821E-01  6.18980718E-01
 -1.03645163E+01  3.39099875E+00 -3.33298916E+00 -1.03645163E+01  3.39099875E+00
 -3.33298916E+00 -1.05344918E+01  5.83978455E-01 -5.06343547E+00 -1.05344918E+01
  5.83978455E-01 -5.06343547E+00 -6.46537783E+00  4.64170198E+00 -5.74479905E+00
 -6.46537783E+00  4.64170198E+00 -5.74479905E+00 -6.63535337E+00  1.83468169E+00
 -7.47524536E+00 -6.63535337E+00  1.83468169E+00 -7.47524536E+00 -2.39979393E+00
  6.28738980E-01 -5.93508535E+00 -2.39979393E+00  6.28738980E-01 -5.93508535E+00
 -2.22981842E+00  3.43575927E+00 -4.20463906E+00 -2.22981842E+00  3.43575927E+00
 -4.20463906E+00 -2.57344909E+00  5.70249290E+00 -8.05392859E+00 -2.57344909E+00
  5.70249290E+00 -8.05392859E+00 -1.44536874E-01  3.80160502E+00 -8.15317693E+00
 -1.44536874E-01  3.80160502E+00 -8.15317693E+00 -6.29893240E+00 -6.21964255E-01
 -3.52327546E+00 -6.29893240E+00 -6.21964255E-01 -3.52327546E+00 -6.12895687E+00
  2.18505604E+00 -1.79282917E+00 -6.12895687E+00  2.18505604E+00 -1.79282917E+00
Num ILSW                                   I              100
ILSW                                       I   N=         100
           0           1           0           0           2           0
           0           0           0           0           0          -1
           5           0           0           0           0           0
           0           0           0           0           0           0
           1           1           0           0           0           0
           0           0      100000           0          -1           0
           0           0           0           0           0           0
           0           0           0           1           0           0
           0 -2000000000           1           0           0           0
           0           0           4          52           0           0
           0           1           0           0           0           0
           0           0           0          19           0           1
           0           0           0           0           0           0
           0           0           0           0           0           0
           0           0           0           0           0           0
           0           0           0           0           0           0
           0           0           0           0
Num RLSW                                   I               52
RLSW                                       R   N=          52
  1.00000000E+00  1.00000000E+00  1.00000000E+00  1.00000000E+00  1.00000000E+00
  0.00000000E+00  0.00000000E+00  1.00000000E+00  0.00000000E+00  0.00000000E+00
  0.00000000E+00  0.00000000E+00  1.00000000E+00  0.00000000E+00  0.00000000E+00
  0.00000000E+00  0.00000000E+00  1.00000000E+00  0.00000000E+00  0.00000000E+00
  0.00000000E+00  0.00000000E+00  1.00000000E+00  0.00000000E+00  0.00000000E+00
  0.00000000E+00  0.00000000E+00  1.00000000E+00  0.00000000E+00  0.00000000E+00
  0.00000000E+00  0.00000000E+00  1.00000000E+00  0.00000000E+00  0.00000000E+00
  0.00000000E+00  0.00000000E+00  0.00000000E+00  1.00000000E+00  1.00000000E+00
  0.00000000E+00  1.00000000E+00  0.00000000E+00  0.00000000E+00  0.00000000E+00
  0.00000000E+00  0.00000000E+00  0.00000000E+00  0.00000000E+00  0.00000000E+00
  0.00000000E+00  0.00000000E+00
MxBond                                     I                4
NBond                                      I   N=          19
           4           4           1           4           4           4
           3           1           1           1           1           1
           1           1           1           1           1           1
           1
IBond                                      I   N=          76
           2           3           8           9           1           5
          10          11           1           0           0           0
           5           6          12          13           2           4
          18          19           4           7          14          15
           6          16          17           0           1           0
           0           0           1           0           0           0
           2           0           0           0           2           0
           0           0           4           0           0           0
           4           0           0           0           6           0
           0           0           6           0           0           0
           7           0           0           0           7           0
           0           0           5           0           0           0
           5           0           0           0
RBond                                      R   N=          76
  1.00000000E+00  1.00000000E+00  1.00000000E+00  1.00000000E+00  1.00000000E+00
  1.00000000E+00  1.00000000E+00  1.00000000E+00  1.00000000E+00  0.00000000E+00
  0.00000000E+00  0.00000000E+00  1.00000000E+00  1.00000000E+00  1.00000000E+00
  1.00000000E+00  1.00000000E+00  1.00000000E+00  1.00000000E+00  1.00000000E+00
  1.00000000E+00  1.00000000E+00  1.00000000E+00  1.00000000E+00  1.00000000E+00
  1.00000000E+00  1.00000000E+00  0.00000000E+00  1.00000000E+00  0.00000000E+00
  0.00000000E+00  0.00000000E+00  1.00000000E+00  0.00000000E+00  0.00000000E+00
  0.00000000E+00  1.00000000E+00  0.00000000E+00  0.00000000E+00  0.00000000E+00
  1.00000000E+00  0.00000000E+00  0.00000000E+00  0.00000000E+00  1.00000000E+00
  0.00000000E+00  0.00000000E+00  0.00000000E+00  1.00000000E+00  0.00000000E+00
  0.00000000E+00  0.00000000E+00  1.00000000E+00  0.00000000E+00  0.00000000E+00
  0.00000000E+00  1.00000000E+00  0.00000000E+00  0.00000000E+00  0.00000000E+00
  1.00000000E+00  0.00000000E+00  0.00000000E+00  0.00000000E+00  1.00000000E+00
  0.00000000E+00  0.00000000E+00  0.00000000E+00  1.00000000E+00  0.00000000E+00
  0.00000000E+00  0.00000000E+00  1.00000000E+00  0.00000000E+00  0.00000000E+00
  0.00000000E+00
Virial Ratio                               R      2.001614872304367E+00
SCF Energy                                 R     -3.485153966159087E+02
Total Energy                               R     -3.485153966159087E+02
RMS Density                                R      4.714067544086011E-09
Job Status                                 I                1
Nuclear derivative order                   I                0
External E-field                           R   N=          35
  0.00000000E+00  0.00000000E+00  0.00000000E+00  0.00000000E+00  0.00000000E+00
  0.00000000E+00  0.00000000E+00  0.00000000E+00  0.00000000E+00  0.00000000E+00
  0.00000000E+00  0.00000000E+00  0.00000000E+00  0.00000000E+00  0.00000000E+00
  0.00000000E+00  0.00000000E+00  0.00000000E+00  0.00000000E+00  0.00000000E+00
  0.00000000E+00  0.00000000E+00  0.00000000E+00  0.00000000E+00  0.00000000E+00
  0.00000000E+00  0.00000000E+00  0.00000000E+00  0.00000000E+00  0.00000000E+00
  0.00000000E+00  0.00000000E+00  0.00000000E+00  0.00000000E+00  0.00000000E+00
IOpCl                                      I                0
IROHF                                      I                0
Alpha Orbital Energies                     R   N=          87
 -2.61033829E+01 -1.54386256E+01 -1.12099692E+01 -1.11774895E+01 -1.11547351E+01
 -1.11505209E+01 -1.11493689E+01 -1.55168119E+00 -1.17193997E+00 -1.07794545E+00
 -9.96160952E-01 -8.93609861E-01 -8.16057417E-01 -7.99366182E-01 -6.81797544E-01
 -6.66136740E-01 -6.61011861E-01 -6.30511918E-01 -6.20365676E-01 -5.95489969E-01
 -5.66324553E-01 -5.36945980E-01 -5.07304718E-01 -5.00221384E-01 -4.82554846E-01
 -4.73655348E-01 -4.56465173E-01 -4.18591605E-01 -3.65424064E-01  2.64957539E-01
  2.77391482E-01  2.97572892E-01  3.12956313E-01  3.18834279E-01  3.56713363E-01
  3.63846406E-01  3.69544970E-01  3.80517211E-01  3.83595028E-01  3.98269008E-01
  3.99257874E-01  4.17736524E-01  4.29834848E-01  4.34748527E-01  4.76434974E-01
  5.05252546E-01  5.43978106E-01  9.09174627E-01  9.30892533E-01  9.46112307E-01
  9.60297926E-01  9.77841112E-01  1.02582128E+00  1.04277850E+00  1.04526804E+00
  1.06733616E+00  1.09210139E+00  1.17628984E+00  1.20483736E+00  1.21078121E+00
  1.27449159E+00  1.28923105E+00  1.29916825E+00  1.33333694E+00  1.37047971E+00
  1.37873237E+00  1.40759277E+00  1.42808195E+00  1.44970326E+00  1.45490502E+00
  1.46350469E+00  1.47050931E+00  1.51586041E+00  1.55196803E+00  1.65952278E+00
  1.73509547E+00  1.80138093E+00  1.88381536E+00  2.10767503E+00  2.26751337E+00
  2.38214900E+00  2.42603581E+00  2.46373044E+00  2.52293240E+00  2.69018047E+00
  2.97896002E+00  4.11592439E+00
Alpha MO coefficients                      R   N=        7569
 -8.84155332E-04 -3.42906939E-03  2.91367254E-04 -1.98138999E-03  2.27479840E-04
  1.84231713E-02  4.23027268E-03 -8.14080981E-03 -2.50553171E-03  2.27973157E-04
  9.55541573E-04  2.23458742E-04  2.89031095E-04 -6.09210811E-04 -6.36840535E-03
 -2.57347096E-04  3.99408192E-03 -1.95171409E-04  9.82072637E-01  9.71876333E-02
 -8.67258842E-04  2.98768968E-03  1.01267277E-04 -3.70610240E-02  2.23876590E-03
 -7.81080320E-03 -2.43802851E-04  7.06124088E-05  4.24281786E-04 -2.53091220E-05
 -1.24469922E-04 -3.73387029E-05 -2.40838597E-03  7.13141287E-04  1.69884526E-03
 -5.45861568E-04  1.22470457E-05  3.34751766E-04 -2.55144706E-04  7.17852303E-06
  5.36370191E-04  1.10509751E-03 -2.88482510E-04 -2.17885769E-04 -3.44872923E-03
 -1.43191468E-05 -6.74481120E-05 -3.03975680E-05  2.54110869E-05  1.24076025E-05
  3.95112099E-04 -7.67254640E-05 -4.49499417E-04 -9.59962635E-05  4.51414679E-06
  3.57597394E-05 -4.44516414E-05 -1.20834711E-05  1.37006621E-06 -4.93451101E-05
  1.94591266E-04  7.98970285E-05 -3.68699806E-06 -1.29801981E-03 -8.39438444E-04
 -1.40594873E-03 -1.18747139E-03 -4.37037753E-04  2.36825325E-04  8.80154918E-04
  6.87482467E-04  9.91380920E-05 -6.77806939E-04  2.52899656E-04  4.31725038E-04
 -3.32560805E-05 -3.44719879E-04  5.15520397E-06  8.49787757E-05  2.10576243E-05
 -2.62722891E-05 -4.37385835E-05 -4.58075600E-05 -4.11153710E-04  5.21421642E-04
  4.74417955E-04  1.13830240E-03 -3.99540889E-06 -6.66630064E-05 -1.99414102E-04
 -3.89449071E-05  6.65513920E-05 -6.79477197E-04  6.90763463E-04 -1.35287276E-04
  3.54314686E-04 -3.25672013E-05 -1.85683348E-04  9.64518168E-05  1.08075007E-04
 -1.20633591E-04  1.87467952E-03  6.88023349E-04 -9.79601884E-04  7.67756610E-04
  3.04532606E-06  2.94644596E-05  6.10426137E-06  8.97093920E-06  6.29511324E-06
 -1.14286109E-04 -5.86034955E-05 -6.04663665E-05 -2.60665222E-05  1.84912324E-04
  5.94800474E-04 -4.18869662E-04 -1.18061888E-04  4.71547559E-04 -6.44217595E-03
 -3.16144048E-03  3.34874044E-05 -1.48417115E-03 -1.41849663E-04 -8.48009291E-04
 -5.89243046E-04 -1.95269228E-04  1.71818742E-04  2.48518683E-03  4.16899937E-03
  1.64123059E-03 -1.53630832E-03 -7.05545275E-04 -3.06263683E-03  6.48846492E-04
  5.63285864E-04 -9.70274173E-04  2.34175521E-02  2.53325546E-03  7.42151534E-03
 -9.14875946E-03  9.85902206E-01  1.00844593E-01  9.35093224E-04  9.87676272E-04
  3.46641904E-03 -5.97792429E-02 -4.12157332E-05  2.08310529E-04 -1.13193203E-02
  9.42964019E-05  5.24143295E-04 -6.44258745E-05 -1.31733325E-04 -1.89673155E-05
  4.58978859E-04 -3.20439863E-05  3.45246907E-06  6.94946407E-04 -1.07485806E-03
  8.20387841E-05 -5.31295252E-04 -1.24706248E-03 -5.71892601E-04 -1.78404025E-03
 -1.50842503E-03  2.28084460E-03  7.94100884E-03  2.32841969E-03  7.82529411E-03
 -3.95572729E-04  3.56402653E-04 -5.58726070E-04 -2.54516308E-04  9.87405302E-01
  1.00583899E-01  6.29630417E-04 -1.31530282E-04 -2.83375652E-04 -7.49773989E-02
 -2.13960446E-03 -8.70397072E-03  4.80627200E-03 -2.08239335E-03 -2.24555385E-03
 -9.74401808E-05  1.51753539E-04 -1.99988287E-04  1.91796889E-02 -5.02053989E-03
 -5.77645208E-03  1.11368301E-02 -1.38687930E-04 -1.08614768E-04 -3.70634414E-04
  9.08721077E-04  1.54610165E-04  5.93507038E-03  8.14211064E-04 -7.42623584E-04
 -7.18302454E-04 -1.74762241E-03 -1.35690620E-03  3.13370528E-04 -3.24796394E-05
 -1.50715457E-04  5.43079777E-03 -3.05921852E-03 -8.57080012E-04  2.80788652E-03
 -2.46912043E-03 -1.11230897E-03  8.02780269E-04  5.63782243E-04 -8.60925731E-04
 -9.01302996E-04 -1.80234144E-03 -2.86933337E-03  4.27565266E-03 -7.61261508E-04
 -2.60551223E-04  9.72289080E-05  3.63232109E-05 -1.21893047E-05  7.50795246E-04
 -7.19064363E-04 -2.08784234E-04 -2.17506463E-04 -6.02680766E-06 -8.45723949E-05
  1.07994855E-04  1.74836289E-05 -3.23559702E-05  8.35769652E-05 -4.11503165E-04
 -2.01001636E-05  1.45738528E-04 -4.24425173E-04  1.43487863E-02 -1.97166874E-04
  1.57440269E-02 -1.27612107E-03  1.24384579E-03 -1.14008941E-03  1.43964929E-03
 -5.12678278E-04 -4.21206803E-04 -4.02111246E-04  7.04765448E-05 -7.15800534E-05
 -1.77482780E-05 -7.54079657E-05  4.12909679E-04 -1.11877785E-04  1.44809176E-04
  8.37842014E-05  1.82115831E-04 -6.13003258E-04 -3.98761932E-04 -9.06219617E-05
 -1.56119911E-03  6.84514465E-04 -1.75588111E-04 -2.25055154E-05 -1.32168449E-05
  8.55246783E-05  1.36460553E-03 -1.07552059E-04  3.64799108E-04 -1.10748105E-03
 -4.06340630E-03 -1.46230937E-03 -2.76903171E-04 -1.45824006E-04  2.65957621E-04
  4.20880105E-03  3.48240324E-03  1.19930050E-03 -2.21184922E-03  4.95847275E-08
 -5.92792130E-06 -3.41639057E-05  7.06645024E-06 -2.42216292E-05 -1.52293075E-05
  1.22270798E-04 -5.25187248E-05  1.22254669E-04 -4.02142248E-03 -2.87582991E-03
  5.26118843E-05  7.03081433E-05 -1.36973354E-04  2.28990120E-02  1.47861706E-02
 -2.49764017E-04 -7.58848452E-04 -5.44700873E-03 -1.44561055E-03 -9.95694366E-04
 -9.25852256E-05  2.34075287E-04 -2.78489618E-06  4.10024109E-03 -8.11743721E-04
  9.20287316E-04  9.87797962E-01  1.03269713E-01 -3.41248790E-04 -1.07775120E-04
  4.52983626E-04 -8.75680794E-02  7.38879516E-03 -5.52129621E-04 -2.37045240E-04
 -2.15444073E-04 -9.68745975E-04  6.84571053E-05  1.44618476E-04  1.28898458E-04
  1.16700463E-02 -3.40619107E-03 -3.74515994E-03  5.09439671E-03 -1.69669895E-04
  8.12885230E-05 -7.47409322E-05  4.53627794E-04 -4.73989499E-04 -1.15099970E-04
 -4.42121586E-04 -1.64343396E-04 -1.33254122E-03  7.47815262E-04 -1.41406399E-03
  1.17576387E-03  4.46545198E-04  1.59462800E-02  4.71262149E-04  1.61069860E-02
 -6.42400123E-04  2.23860723E-03 -4.28793889E-04  1.62513333E-03 -1.30758751E-04
 -1.80468139E-03 -1.22076528E-04 -1.84680753E-03  1.19389680E-03 -2.39182113E-03
  3.97819960E-04  3.48518702E-04 -4.78386608E-04  2.28905821E-02  4.95384427E-03
  5.14081777E-03 -9.85050914E-03  9.87560393E-01  1.05272289E-01  1.07861592E-04
 -2.51206327E-05  1.38284145E-04 -9.56531258E-02 -5.48616418E-03  3.18254218E-03
 -4.40413036E-03  4.37176382E-05  1.54408715E-04  3.40416296E-06 -1.39738227E-04
  1.94389391E-04 -1.68399087E-03  2.44660835E-06 -6.40466513E-04 -1.40113524E-04
 -2.14926079E-02 -2.76468855E-03  8.04593909E-04  7.18905944E-05 -2.09520059E-04
 -1.72223066E-04 -2.41051177E-03  1.27918952E-03 -1.73131698E-03 -2.04961736E-02
 -4.54275898E-03 -2.78908840E-04 -1.88134373E-04  3.50941202E-04  2.50286957E-02
 -1.41962875E-02  8.59128695E-04 -1.15403063E-04  3.57947847E-03 -5.95090817E-04
  2.32989459E-04  1.18709414E-04 -2.03290777E-04  3.00933581E-03 -2.67450009E-03
 -1.00796190E-03  1.89542986E-03 -1.43118368E-05 -1.16035353E-04 -5.07100307E-05