#INFO: **** input file is /home/liwei01/wsr/dftpart/test_2body/c8/gfea_c8.py ****
from dftpart import gfea3

fr0 = gfea3.GFEA()
fr0.inputstyle = 'frg'
fr0.method = ['hf', '3-21g','charge']
fr0.gjfname = 'c8'
fr0.showinter = True
fr0.kernel()

#INFO: ******************** input file end ********************


System: uname_result(system='Linux', node='master', release='3.10.0-693.el7.x86_64', version='#1 SMP Tue Aug 22 21:09:27 UTC 2017', machine='x86_64', processor='x86_64')  Threads 20
Python 3.6.4 |Anaconda, Inc.| (default, Jan 16 2018, 18:10:19) 
[GCC 7.2.0]
numpy 1.14.0  scipy 1.0.0
Date: Sun Feb  9 20:54:03 2020
PySCF version 1.5.4
PySCF path  /home/liwei01/liaokang/anaconda3/lib/python3.6/site-packages/pyscf

[CONFIG] conf_file None
[INPUT] verbose = 4
[INPUT] num. atoms = 19
[INPUT] num. electrons = 58
[INPUT] charge = 0
[INPUT] spin (= nelec alpha-beta = 2S) = 0
[INPUT] symmetry False subgroup None
[INPUT] Mole.unit = angstrom
[INPUT]  1 C     -5.703344760000   0.033502950000  -0.552826490000 AA  -10.777759590373   0.063311399865  -1.044690660505 Bohr
[INPUT]  2 C     -5.177907760000   0.769963360000  -1.799077680000 AA   -9.784827564660   1.455019876350  -3.399764092018 Bohr
[INPUT]  3 F     -5.316313560000  -1.259060100000  -0.597409000000 AA  -10.046376620711  -2.379278763367  -1.128939394350 Bohr
[INPUT]  4 C     -3.114572550000   1.431807010000  -3.075352510000 AA   -5.885689114588   2.705723112132  -5.811573980394 Bohr
[INPUT]  5 C     -3.640009550000   0.695346600000  -1.829101320000 AA   -6.878621140301   1.314014635647  -3.456500548880 Bohr
[INPUT]  6 C     -1.576674330000   1.357190240000  -3.105376150000 AA   -2.979482671332   2.564717852533  -5.868310437256 Bohr
[INPUT]  7 N     -1.075120830000   2.060175180000  -4.294979550000 AA   -2.031683919515   3.893166858827  -8.116335060108 Bohr
[INPUT]  8 H     -6.771884430000   0.085347060000  -0.531965910000 AA  -12.797006919906   0.161282568937  -1.005269877505 Bohr
[INPUT]  9 H     -5.306639520000   0.494438220000   0.327550490000 AA  -10.028095334593   0.934352821317   0.618980718067 Bohr
[INPUT] 10 H     -5.484665830000   1.794439260000  -1.763741910000 AA  -10.364516303460   3.390998748567  -3.332989164317 Bohr
[INPUT] 11 H     -5.574613010000   0.309028090000  -2.679454660000 AA  -10.534491839337   0.583978454897  -5.063435470590 Bohr
[INPUT] 12 H     -3.421330610000   2.456282910000  -3.040016740000 AA   -6.465377834491   4.641701984350  -5.744799052693 Bohr
[INPUT] 13 H     -3.511277790000   0.970871740000  -3.955729490000 AA   -6.635353370368   1.834681690680  -7.475245358965 Bohr
[INPUT] 14 H     -1.269916260000   0.332714340000  -3.140711910000 AA   -2.399793932532   0.628738980315  -5.935085346060 Bohr
[INPUT] 15 H     -1.179969090000   1.818125510000  -2.224999170000 AA   -2.229818415552   3.435759273985  -4.204639058685 Bohr
[INPUT] 16 H     -1.361810610000   3.017629290000  -4.261955470000 AA   -2.573449086427   5.702492903566  -8.053928593392 Bohr
[INPUT] 17 H     -0.076485620000   2.011722740000  -4.314475430000 AA   -0.144536874268   3.801605017160  -8.153176933865 Bohr
[INPUT] 18 H     -3.333251480000  -0.329129310000  -1.864437080000 AA   -6.298932401501  -0.621964255467  -3.523275457684 Bohr
[INPUT] 19 H     -3.243304300000   1.156281860000  -0.948724340000 AA   -6.128956865624   2.185056038203  -1.792829170309 Bohr

nuclear repulsion = 314.639349650099
number of shells = 59
number of NR pGTOs = 141
number of NR cGTOs = 87
basis = 3-21g
ecp = {}
CPU time:        15.73


******** <class 'pyscf.qmmm.itrf.mm_charge.<locals>.QMMM'> flags ********
method = QMMM-RHF
initial guess = minao
damping factor = 0
level shift factor = 0
DIIS = <class 'pyscf.scf.diis.CDIIS'>
DIIS start cycle = 1
DIIS space = 8
SCF tol = 1e-09
SCF gradient tol = None
max. SCF cycles = 50
direct_scf = True
direct_scf_tol = 1e-13
chkfile to save SCF result = /home/liwei01/wsr/dftpart/test_2body/c8/tmp4_8nl7xq
max_memory 4000 MB (current use 308 MB)
** Add background charges for <class 'pyscf.scf.hf.RHF'> **
Set gradient conv threshold to 3.16228e-05
init E= -349.914267056376
  HOMO = -0.274452807424315  LUMO = 0.160758070575753
cycle= 1 E= -348.232138710109  delta_E= 1.68  |g|= 0.529  |ddm|= 3.75
  HOMO = -0.348561258021285  LUMO = 0.26097605747061
cycle= 2 E= -348.297736929126  delta_E= -0.0656  |g|= 0.228  |ddm|= 0.625
  HOMO = -0.366854092915695  LUMO = 0.262346793308926
cycle= 3 E= -348.306204533694  delta_E= -0.00847  |g|= 0.0631  |ddm|= 0.213
  HOMO = -0.365221780812719  LUMO = 0.264760977373147
cycle= 4 E= -348.307100775667  delta_E= -0.000896  |g|= 0.00825  |ddm|= 0.0696
  HOMO = -0.364952050124413  LUMO = 0.265054691524267
cycle= 5 E= -348.307131053488  delta_E= -3.03e-05  |g|= 0.00325  |ddm|= 0.0191
  HOMO = -0.365403741936935  LUMO = 0.264920184992204
cycle= 6 E= -348.307136768625  delta_E= -5.72e-06  |g|= 0.000738  |ddm|= 0.00855
  HOMO = -0.365404062655629  LUMO = 0.264961249983266
cycle= 7 E= -348.307137193749  delta_E= -4.25e-07  |g|= 0.000172  |ddm|= 0.00272
  HOMO = -0.365428093378389  LUMO = 0.264957505578541
cycle= 8 E= -348.307137212967  delta_E= -1.92e-08  |g|= 5.17e-05  |ddm|= 0.000551
  HOMO = -0.365422028634246  LUMO = 0.26495719894549
cycle= 9 E= -348.307137214581  delta_E= -1.61e-09  |g|= 1.52e-05  |ddm|= 0.000153
  HOMO = -0.365424238871408  LUMO = 0.264958360589218
cycle= 10 E= -348.307137214758  delta_E= -1.78e-10  |g|= 5.41e-06  |ddm|= 5.16e-05
  HOMO = -0.365423507969176  LUMO = 0.264957994370822
Extra cycle  E= -348.307137214775  delta_E= -1.66e-11  |g|= 2.5e-06  |ddm|= 1.16e-05
converged SCF energy = -348.307137214775
