Atom number=14                                                          
SP        RHF                                                         3-21G               
Number of atoms                            I               14
Info1-9                                    I   N=           9
          36          35           0           0           0         111
           1           1           2
Full Title                                 C   N=           2
Atom number=14          
Route                                      C   N=           3
#p hf/3-21g pop=npa charge nosymm   
Charge                                     I                0
Multiplicity                               I                1
Number of electrons                        I               42
Number of alpha electrons                  I               21
Number of beta electrons                   I               21
Number of basis functions                  I               63
Number of independent functions            I               63
Number of point charges in /Mol/           I                0
Number of translation vectors              I                0
Atomic numbers                             I   N=          14
           6           6           9           6           6           1
           1           1           1           1           1           1
           1           1
Nuclear charges                            R   N=          14
  6.00000000E+00  6.00000000E+00  9.00000000E+00  6.00000000E+00  6.00000000E+00
  1.00000000E+00  1.00000000E+00  1.00000000E+00  1.00000000E+00  1.00000000E+00
  1.00000000E+00  1.00000000E+00  1.00000000E+00  1.00000000E+00
Current cartesian coordinates              R   N=          42
 -1.07777596E+01  6.33113999E-02 -1.04469066E+00 -9.78482756E+00  1.45501988E+00
 -3.39976409E+00 -1.00463766E+01 -2.37927876E+00 -1.12893939E+00 -5.88568911E+00
  2.70572311E+00 -5.81157398E+00 -6.87862114E+00  1.31401464E+00 -3.45650055E+00
 -1.27970069E+01  1.61282569E-01 -1.00526988E+00 -1.00280953E+01  9.34352821E-01
  6.18980718E-01 -1.03645163E+01  3.39099875E+00 -3.33298916E+00 -1.05344918E+01
  5.83978455E-01 -5.06343547E+00 -6.46537783E+00  4.64170198E+00 -5.74479905E+00
 -6.63535337E+00  1.83468169E+00 -7.47524536E+00 -3.86644179E+00  2.60775192E+00
 -5.85099476E+00 -6.29893240E+00 -6.21964255E-01 -3.52327546E+00 -6.12895687E+00
  2.18505604E+00 -1.79282917E+00
Number of symbols in /Mol/                 I                0
Force Field                                I                0
Atom Types                                 C   N=          14
                                                            
                                                            
                                                
Int Atom Types                             I   N=          14
           0           0           0           0           0           0
           0           0           0           0           0           0
           0           0
MM charges                                 R   N=          14
  0.00000000E+00  0.00000000E+00  0.00000000E+00  0.00000000E+00  0.00000000E+00
  0.00000000E+00  0.00000000E+00  0.00000000E+00  0.00000000E+00  0.00000000E+00
  0.00000000E+00  0.00000000E+00  0.00000000E+00  0.00000000E+00
Integer atomic weights                     I   N=          14
          12          12          19          12          12           1
           1           1           1           1           1           1
           1           1
Real atomic weights                        R   N=          14
  1.20000000E+01  1.20000000E+01  1.89984032E+01  1.20000000E+01  1.20000000E+01
  1.00782504E+00  1.00782504E+00  1.00782504E+00  1.00782504E+00  1.00782504E+00
  1.00782504E+00  1.00782504E+00  1.00782504E+00  1.00782504E+00
Atom fragment info                         I   N=          14
           0           0           0           0           0           0
           0           0           0           0           0           0
           0           0
Atom residue num                           I   N=          14
           0           0           0           0           0           0
           0           0           0           0           0           0
           0           0
Nuclear spins                              I   N=          14
           0           0           1           0           0           1
           1           1           1           1           1           1
           1           1
Nuclear ZEff                               R   N=          14
 -3.60000000E+00 -3.60000000E+00 -6.75000000E+00 -3.60000000E+00 -3.60000000E+00
 -1.00000000E+00 -1.00000000E+00 -1.00000000E+00 -1.00000000E+00 -1.00000000E+00
 -1.00000000E+00 -1.00000000E+00 -1.00000000E+00 -1.00000000E+00
Nuclear ZNuc                               R   N=          14
  6.00000000E+00  6.00000000E+00  9.00000000E+00  6.00000000E+00  6.00000000E+00
  1.00000000E+00  1.00000000E+00  1.00000000E+00  1.00000000E+00  1.00000000E+00
  1.00000000E+00  1.00000000E+00  1.00000000E+00  1.00000000E+00
Nuclear QMom                               R   N=          14
  0.00000000E+00  0.00000000E+00  0.00000000E+00  0.00000000E+00  0.00000000E+00
  0.00000000E+00  0.00000000E+00  0.00000000E+00  0.00000000E+00  0.00000000E+00
  0.00000000E+00  0.00000000E+00  0.00000000E+00  0.00000000E+00
Nuclear GFac                               R   N=          14
  0.00000000E+00  0.00000000E+00  2.62886700E+00  0.00000000E+00  0.00000000E+00
  2.79284600E+00  2.79284600E+00  2.79284600E+00  2.79284600E+00  2.79284600E+00
  2.79284600E+00  2.79284600E+00  2.79284600E+00  2.79284600E+00
MicOpt                                     I   N=          14
          -1          -1          -1          -1          -1          -1
          -1          -1          -1          -1          -1          -1
          -1          -1
Number of residues                         I                0
Number of secondary structures             I                0
Number of contracted shells                I               33
Number of primitive shells                 I               57
Pure/Cartesian d shells                    I                1
Pure/Cartesian f shells                    I                0
Highest angular momentum                   I                1
Largest degree of contraction              I                3
Shell types                                I   N=          33
           0          -1          -1           0          -1          -1
           0          -1          -1           0          -1          -1
           0          -1          -1           0           0           0
           0           0           0           0           0           0
           0           0           0           0           0           0
           0           0           0
Number of primitives per shell             I   N=          33
           3           2           1           3           2           1
           3           2           1           3           2           1
           3           2           1           2           1           2
           1           2           1           2           1           2
           1           2           1           2           1           2
           1           2           1
Shell to atom map                          I   N=          33
           1           1           1           2           2           2
           3           3           3           4           4           4
           5           5           5           6           6           7
           7           8           8           9           9          10
          10          11          11          12          12          13
          13          14          14
Primitive exponents                        R   N=          57
  1.72256000E+02  2.59109000E+01  5.53335000E+00  3.66498000E+00  7.70545000E-01
  1.95857000E-01  1.72256000E+02  2.59109000E+01  5.53335000E+00  3.66498000E+00
  7.70545000E-01  1.95857000E-01  4.13801000E+02  6.22446000E+01  1.34340000E+01
  9.77759000E+00  2.08617000E+00  4.82383000E-01  1.72256000E+02  2.59109000E+01
  5.53335000E+00  3.66498000E+00  7.70545000E-01  1.95857000E-01  1.72256000E+02
  2.59109000E+01  5.53335000E+00  3.66498000E+00  7.70545000E-01  1.95857000E-01
  5.44717800E+00  8.24547240E-01  1.83191580E-01  5.44717800E+00  8.24547240E-01
  1.83191580E-01  5.44717800E+00  8.24547240E-01  1.83191580E-01  5.44717800E+00
  8.24547240E-01  1.83191580E-01  5.44717800E+00  8.24547240E-01  1.83191580E-01
  5.44717800E+00  8.24547240E-01  1.83191580E-01  5.44717800E+00  8.24547240E-01
  1.83191580E-01  5.44717800E+00  8.24547240E-01  1.83191580E-01  5.44717800E+00
  8.24547240E-01  1.83191580E-01
Contraction coefficients                   R   N=          57
  6.17669074E-02  3.58794043E-01  7.00713084E-01 -3.95895162E-01  1.21583436E+00
  1.00000000E+00  6.17669074E-02  3.58794043E-01  7.00713084E-01 -3.95895162E-01
  1.21583436E+00  1.00000000E+00  5.85483029E-02  3.49308017E-01  7.09632036E-01
 -4.07326278E-01  1.22313783E+00  1.00000000E+00  6.17669074E-02  3.58794043E-01
  7.00713084E-01 -3.95895162E-01  1.21583436E+00  1.00000000E+00  6.17669074E-02
  3.58794043E-01  7.00713084E-01 -3.95895162E-01  1.21583436E+00  1.00000000E+00
  1.56284979E-01  9.04690877E-01  1.00000000E+00  1.56284979E-01  9.04690877E-01
  1.00000000E+00  1.56284979E-01  9.04690877E-01  1.00000000E+00  1.56284979E-01
  9.04690877E-01  1.00000000E+00  1.56284979E-01  9.04690877E-01  1.00000000E+00
  1.56284979E-01  9.04690877E-01  1.00000000E+00  1.56284979E-01  9.04690877E-01
  1.00000000E+00  1.56284979E-01  9.04690877E-01  1.00000000E+00  1.56284979E-01
  9.04690877E-01  1.00000000E+00
P(S=P) Contraction coefficients            R   N=          57
  0.00000000E+00  0.00000000E+00  0.00000000E+00  2.36459947E-01  8.60618806E-01
  1.00000000E+00  0.00000000E+00  0.00000000E+00  0.00000000E+00  2.36459947E-01
  8.60618806E-01  1.00000000E+00  0.00000000E+00  0.00000000E+00  0.00000000E+00
  2.46680003E-01  8.52321011E-01  1.00000000E+00  0.00000000E+00  0.00000000E+00
  0.00000000E+00  2.36459947E-01  8.60618806E-01  1.00000000E+00  0.00000000E+00
  0.00000000E+00  0.00000000E+00  2.36459947E-01  8.60618806E-01  1.00000000E+00
  0.00000000E+00  0.00000000E+00  0.00000000E+00  0.00000000E+00  0.00000000E+00
  0.00000000E+00  0.00000000E+00  0.00000000E+00  0.00000000E+00  0.00000000E+00
  0.00000000E+00  0.00000000E+00  0.00000000E+00  0.00000000E+00  0.00000000E+00
  0.00000000E+00  0.00000000E+00  0.00000000E+00  0.00000000E+00  0.00000000E+00
  0.00000000E+00  0.00000000E+00  0.00000000E+00  0.00000000E+00  0.00000000E+00
  0.00000000E+00  0.00000000E+00
Coordinates of each shell                  R   N=          99
 -1.07777596E+01  6.33113999E-02 -1.04469066E+00 -1.07777596E+01  6.33113999E-02
 -1.04469066E+00 -1.07777596E+01  6.33113999E-02 -1.04469066E+00 -9.78482756E+00
  1.45501988E+00 -3.39976409E+00 -9.78482756E+00  1.45501988E+00 -3.39976409E+00
 -9.78482756E+00  1.45501988E+00 -3.39976409E+00 -1.00463766E+01 -2.37927876E+00
 -1.12893939E+00 -1.00463766E+01 -2.37927876E+00 -1.12893939E+00 -1.00463766E+01
 -2.37927876E+00 -1.12893939E+00 -5.88568911E+00  2.70572311E+00 -5.81157398E+00
 -5.88568911E+00  2.70572311E+00 -5.81157398E+00 -5.88568911E+00  2.70572311E+00
 -5.81157398E+00 -6.87862114E+00  1.31401464E+00 -3.45650055E+00 -6.87862114E+00
  1.31401464E+00 -3.45650055E+00 -6.87862114E+00  1.31401464E+00 -3.45650055E+00
 -1.27970069E+01  1.61282569E-01 -1.00526988E+00 -1.27970069E+01  1.61282569E-01
 -1.00526988E+00 -1.00280953E+01  9.34352821E-01  6.18980718E-01 -1.00280953E+01
  9.34352821E-01  6.18980718E-01 -1.03645163E+01  3.39099875E+00 -3.33298916E+00
 -1.03645163E+01  3.39099875E+00 -3.33298916E+00 -1.05344918E+01  5.83978455E-01
 -5.06343547E+00 -1.05344918E+01  5.83978455E-01 -5.06343547E+00 -6.46537783E+00
  4.64170198E+00 -5.74479905E+00 -6.46537783E+00  4.64170198E+00 -5.74479905E+00
 -6.63535337E+00  1.83468169E+00 -7.47524536E+00 -6.63535337E+00  1.83468169E+00
 -7.47524536E+00 -3.86644179E+00  2.60775192E+00 -5.85099476E+00 -3.86644179E+00
  2.60775192E+00 -5.85099476E+00 -6.29893240E+00 -6.21964255E-01 -3.52327546E+00
 -6.29893240E+00 -6.21964255E-01 -3.52327546E+00 -6.12895687E+00  2.18505604E+00
 -1.79282917E+00 -6.12895687E+00  2.18505604E+00 -1.79282917E+00
Num ILSW                                   I              100
ILSW                                       I   N=         100
           0           1           0           0           2           0
           0           0           0           0           0          -1
           5           0           0           0           0           0
           0           0           0           0           0           0
           1           1           0           0           0           0
           0           0      100000           0          -1           0
           0           0           0           0           0           0
           0           0           0           1           0           0
           0 -2000000000           1           0           0           0
           0           0           4          52           0           0
           0           1           0           0           0           0
           0           0           0          14           0           1
           0           0           0           0           0           0
           0           0           0           0           0           0
           0           0           0           0           0           0
           0           0           0           0           0           0
           0           0           0           0
Num RLSW                                   I               52
RLSW                                       R   N=          52
  1.00000000E+00  1.00000000E+00  1.00000000E+00  1.00000000E+00  1.00000000E+00
  0.00000000E+00  0.00000000E+00  1.00000000E+00  0.00000000E+00  0.00000000E+00
  0.00000000E+00  0.00000000E+00  1.00000000E+00  0.00000000E+00  0.00000000E+00
  0.00000000E+00  0.00000000E+00  1.00000000E+00  0.00000000E+00  0.00000000E+00
  0.00000000E+00  0.00000000E+00  1.00000000E+00  0.00000000E+00  0.00000000E+00
  0.00000000E+00  0.00000000E+00  1.00000000E+00  0.00000000E+00  0.00000000E+00
  0.00000000E+00  0.00000000E+00  1.00000000E+00  0.00000000E+00  0.00000000E+00
  0.00000000E+00  0.00000000E+00  0.00000000E+00  1.00000000E+00  1.00000000E+00
  0.00000000E+00  1.00000000E+00  0.00000000E+00  0.00000000E+00  0.00000000E+00
  0.00000000E+00  0.00000000E+00  0.00000000E+00  0.00000000E+00  0.00000000E+00
  0.00000000E+00  0.00000000E+00
MxBond                                     I                4
NBond                                      I   N=          14
           4           4           1           4           4           1
           1           1           1           1           1           1
           1           1
IBond                                      I   N=          56
           2           3           6           7           1           5
           8           9           1           0           0           0
           5          10          11          12           2           4
          13          14           1           0           0           0
           1           0           0           0           2           0
           0           0           2           0           0           0
           4           0           0           0           4           0
           0           0           4           0           0           0
           5           0           0           0           5           0
           0           0
RBond                                      R   N=          56
  1.00000000E+00  1.00000000E+00  1.00000000E+00  1.00000000E+00  1.00000000E+00
  1.00000000E+00  1.00000000E+00  1.00000000E+00  1.00000000E+00  0.00000000E+00
  0.00000000E+00  0.00000000E+00  1.00000000E+00  1.00000000E+00  1.00000000E+00
  1.00000000E+00  1.00000000E+00  1.00000000E+00  1.00000000E+00  1.00000000E+00
  1.00000000E+00  0.00000000E+00  0.00000000E+00  0.00000000E+00  1.00000000E+00
  0.00000000E+00  0.00000000E+00  0.00000000E+00  1.00000000E+00  0.00000000E+00
  0.00000000E+00  0.00000000E+00  1.00000000E+00  0.00000000E+00  0.00000000E+00
  0.00000000E+00  1.00000000E+00  0.00000000E+00  0.00000000E+00  0.00000000E+00
  1.00000000E+00  0.00000000E+00  0.00000000E+00  0.00000000E+00  1.00000000E+00
  0.00000000E+00  0.00000000E+00  0.00000000E+00  1.00000000E+00  0.00000000E+00
  0.00000000E+00  0.00000000E+00  1.00000000E+00  0.00000000E+00  0.00000000E+00
  0.00000000E+00
Virial Ratio                               R      2.003599259456723E+00
SCF Energy                                 R     -2.553936947595082E+02
Total Energy                               R     -2.553936947595082E+02
RMS Density                                R      5.650847557834773E-09
Job Status                                 I                1
Nuclear derivative order                   I                0
External E-field                           R   N=          35
  0.00000000E+00  0.00000000E+00  0.00000000E+00  0.00000000E+00  0.00000000E+00
  0.00000000E+00  0.00000000E+00  0.00000000E+00  0.00000000E+00  0.00000000E+00
  0.00000000E+00  0.00000000E+00  0.00000000E+00  0.00000000E+00  0.00000000E+00
  0.00000000E+00  0.00000000E+00  0.00000000E+00  0.00000000E+00  0.00000000E+00
  0.00000000E+00  0.00000000E+00  0.00000000E+00  0.00000000E+00  0.00000000E+00
  0.00000000E+00  0.00000000E+00  0.00000000E+00  0.00000000E+00  0.00000000E+00
  0.00000000E+00  0.00000000E+00  0.00000000E+00  0.00000000E+00  0.00000000E+00
IOpCl                                      I                0
IROHF                                      I                0
Alpha Orbital Energies                     R   N=          63
 -2.60966183E+01 -1.12017454E+01 -1.11432707E+01 -1.11366819E+01 -1.11001522E+01
 -1.54503865E+00 -1.06031661E+00 -9.58769226E-01 -8.38618031E-01 -7.85149674E-01
 -6.70450461E-01 -6.54181648E-01 -6.18492672E-01 -6.06412383E-01 -5.41696549E-01
 -5.20004344E-01 -4.95588943E-01 -4.71632733E-01 -4.60627498E-01 -4.44613453E-01
 -4.01794568E-01  2.83400761E-01  3.14491799E-01  3.28668026E-01  3.47143826E-01
  3.76511084E-01  3.84816581E-01  3.91059805E-01  3.98608710E-01  4.17102053E-01
  4.29875099E-01  4.60457834E-01  4.89798182E-01  4.96289169E-01  9.19881649E-01
  9.42670617E-01  9.55609808E-01  9.84920082E-01  1.01024914E+00  1.05429310E+00
  1.09006543E+00  1.10076453E+00  1.11645234E+00  1.21652391E+00  1.27863782E+00
  1.29916195E+00  1.37304536E+00  1.39715601E+00  1.42914540E+00  1.43696947E+00
  1.45911369E+00  1.46421717E+00  1.47496323E+00  1.52536887E+00  1.56330749E+00
  1.88212280E+00  2.16906706E+00  2.31626786E+00  2.42064886E+00  2.46594038E+00
  2.52374739E+00  2.61911224E+00  4.12101828E+00
Alpha MO coefficients                      R   N=        3969
 -8.82225792E-04 -3.41979231E-03  2.92215403E-04 -1.98151860E-03  2.29205021E-04
  1.83776789E-02  4.19914065E-03 -8.12534706E-03 -2.48267839E-03  2.22973236E-04
  9.27088749E-04  2.27374250E-04  2.98605756E-04 -6.08369828E-04 -6.20061669E-03
 -1.87410974E-04  3.91117682E-03 -2.33345510E-04  9.82071484E-01  9.71837600E-02
 -8.68176592E-04  2.98082299E-03  1.03289593E-04 -3.70391349E-02  2.23910659E-03
 -7.80074617E-03 -2.42046012E-04  6.29954426E-05  3.77282580E-04 -1.39080634E-05
 -6.75011341E-05 -5.05284551E-05 -2.10975905E-03  7.20314425E-04  1.30225102E-03
 -4.99273445E-04  1.90978540E-05  3.69313552E-04 -2.79912998E-04 -9.12792532E-06
  5.27031263E-04  8.25075189E-04 -1.99172570E-04 -1.47071689E-04 -3.23893121E-03
 -1.29936975E-03 -8.42681200E-04 -1.40229824E-03 -1.18997136E-03 -4.37373086E-04
  2.67377591E-04  8.62731692E-04  6.54004776E-04  1.39981311E-04 -5.61839600E-04
  2.11983677E-04  3.62211046E-04  8.53084443E-05 -9.69059890E-05 -3.78898833E-04
  5.44603454E-04  4.58377690E-04  1.06884849E-03  9.87401746E-01  1.00560345E-01
  6.12543157E-04 -1.47222549E-04 -2.57446341E-04 -7.48445382E-02 -2.08132018E-03
 -8.66330681E-03  4.75197846E-03 -1.99037286E-03 -2.23807815E-03 -1.13116526E-04
  1.46750980E-04 -1.79516079E-04  1.90821320E-02 -4.99879080E-03 -5.76099936E-03
  1.10190793E-02 -1.38114703E-04 -1.04062438E-04 -3.70059340E-04  9.10058263E-04
  1.53918404E-04  5.91809941E-03  8.11909981E-04 -7.55706437E-04 -7.14559890E-04
 -1.18957206E-03 -1.37594236E-03  2.86103721E-04 -4.85863428E-05 -8.41630847E-05
  5.55905194E-03 -2.71298474E-03 -8.42029393E-04  2.41047284E-03 -2.33548430E-03
 -1.13760139E-03  8.03587918E-04  5.49944700E-04 -8.56509104E-04 -6.71986006E-04
 -1.80066530E-03 -2.70121553E-03  4.16708640E-03 -4.32170184E-04  1.43666212E-02
 -2.10217730E-04  1.57337810E-02 -1.27716746E-03  1.25945892E-03 -1.15036695E-03
  1.41951128E-03 -5.37135941E-04 -3.90701880E-04 -4.64275079E-04 -2.17635828E-05
 -1.71140340E-04  9.62432757E-04 -6.11397115E-04 -3.46542333E-04 -1.19294713E-04
 -1.53436790E-03  1.15499759E-03 -2.39645202E-03  3.80971964E-04  3.34559184E-04
 -4.45200471E-04  2.28073179E-02  4.83323510E-03  5.16267736E-03 -9.92049580E-03
  9.87867729E-01  1.04975627E-01  5.75563981E-05 -3.91512809E-05  1.63362941E-04
 -9.38775254E-02 -4.44391629E-03  3.24109014E-03 -4.57975811E-03  4.28385421E-05
  1.47933315E-04 -1.18567285E-06 -1.41102725E-04  1.86277102E-04 -1.64955411E-03
  1.76995100E-05 -6.25184003E-04 -1.08751735E-04 -3.79922035E-03 -1.47442927E-03
  8.36338818E-04  1.84151374E-04 -3.92925751E-04  1.14230049E-03 -1.50514157E-03
  3.93864902E-04 -3.92921836E-04 -1.28903423E-02 -3.57085041E-03 -5.74714922E-04
 -2.04765562E-04  4.12875470E-04  2.24588381E-02 -1.29247466E-02  4.68932839E-04
  3.64589017E-04 -1.19255091E-03 -3.96087440E-05 -1.40335303E-03  4.44412413E-04
  6.49119963E-04  1.54298682E-02  7.28088687E-04  1.53969613E-02 -6.23093592E-05
 -1.51009965E-03 -5.83184010E-05 -1.45280417E-03 -1.43657158E-04  1.90350920E-03
 -1.32708576E-03  6.23683053E-04 -1.27369615E-03  5.93152936E-04  2.20010158E-03
 -9.12382872E-04 -8.60833930E-04 -3.51797499E-04  4.21838078E-04  1.16787093E-03
  2.08278752E-03  5.50238421E-04 -2.77908731E-04  1.20913530E-02 -8.43008223E-04
  5.59207918E-04  2.53615617E-04 -3.68331109E-04  1.95193943E-02  1.28574470E-02
 -4.52177653E-04 -1.04217239E-03  3.99579884E-05  3.50933563E-04  8.98836489E-05
  4.01404617E-05 -1.13242380E-04 -1.02613825E-03 -4.59480450E-04 -4.08851012E-04
  4.57811629E-04 -2.45220502E-03 -2.47611855E-03 -4.25370366E-04 -2.36419720E-04
  4.35739529E-04  2.18915495E-02 -4.38324132E-03 -5.82060713E-03  9.79135520E-03
  9.87873188E-01  1.04796605E-01 -2.68109022E-04  8.61940973E-05 -4.32037883E-05
 -9.29910582E-02  4.14525477E-03 -2.93742122E-03  4.53527823E-03 -1.14601738E-04
  2.16177859E-03 -1.21287633E-04 -1.47729798E-03 -1.23216899E-03  1.04460698E-03
 -1.27337503E-03  8.07657168E-04 -1.30384512E-03  4.44708351E-04 -1.31300658E-03
  4.16525422E-04 -1.14710908E-03 -1.55196527E-04  7.01236440E-04  1.53706681E-02
  6.60521667E-04  1.53514481E-02  8.03508177E-04 -1.21899732E-03 -2.84920024E-04
 -7.10894649E-05  8.74183886E-05  5.53572008E-03  2.85948253E-03  9.96743405E-04
 -2.24616856E-03  3.67505754E-03 -6.48948846E-04 -6.76354501E-04 -4.46568853E-04
  8.08279832E-04 -3.30405950E-04  1.24452907E-03  2.64377142E-03 -4.36047201E-03
  2.62513071E-05  1.91864417E-04  5.83417746E-06  4.11557026E-05  1.00313632E-05
 -9.33371486E-04 -6.25683916E-05 -5.01027501E-04  4.37110710E-05  9.87500610E-01
  1.02407456E-01 -6.14669160E-04 -2.70036282E-05  2.23807667E-04 -8.32070132E-02
  3.20271971E-03  2.36876548E-03 -4.20882349E-03  1.68123282E-03 -1.54567206E-03
  1.24909143E-04  1.12649751E-06 -3.87931864E-06  1.83197472E-02  4.51548347E-03
  5.76558878E-03 -9.82216975E-03 -1.75041691E-04  9.95444942E-04 -5.31449522E-04
 -1.33598555E-04 -2.69950349E-04 -1.55116487E-03 -2.44489667E-04 -1.59555429E-03
  1.14562596E-04  1.52295480E-02  1.32202262E-04  1.51992131E-02  6.66259627E-06
  1.40537284E-02 -1.10287263E-03  9.57478910E-04 -1.08608344E-03  9.46472761E-04
 -6.13590136E-02  6.85572811E-02  2.33546404E-02 -7.22675534E-02 -4.36670382E-03
  8.02135465E-02 -5.53492303E-03  1.14948886E-02  9.81453182E-04 -9.19796146E-03
  6.62074307E-03 -2.25488375E-03 -7.49078410E-03  8.08099029E-03  1.61939758E-02
  5.62880305E-03 -1.61187881E-02 -6.64289947E-03 -2.40953841E-01  2.28688367E-01
 -1.57461790E-02  5.90378498E-02 -6.20717041E-04  7.64775094E-01 -2.21904524E-02
  8.33522025E-02 -3.28950450E-04 -3.16111044E-04 -4.36959623E-04 -3.44551775E-04
 -2.62863943E-04  3.21151040E-04  6.73245090E-03 -5.02438272E-04 -2.74309419E-03
  1.93311430E-03 -2.10565062E-03  2.53226581E-03 -1.06694864E-03 -9.52227339E-04
 -5.05218685E-04 -6.26366308E-03 -1.03402537E-03  3.09396024E-03  1.04680791E-02
  1.32460385E-02 -6.32610982E-03  1.43932072E-02 -4.13403678E-03  3.58440527E-03
  2.43380956E-03  4.65388317E-04 -4.02947560E-03 -1.33562428E-04  6.56907639E-04
 -1.02995513E-04 -8.24298277E-04 -2.17561419E-04 -7.45169022E-04  9.52323207E-04
  8.68253019E-03  2.17798873E-04 -4.12901744E-03 -7.34311809E-02  8.13592565E-02
  1.93358959E-02  4.42951980E-02 -4.01524114E-02  1.49911802E-01 -7.83074214E-03
  2.52567475E-02 -3.36306954E-03 -1.43580435E-01  1.36744278E-01  2.99705152E-02
 -7.57170032E-03  1.46017869E-02  3.63923033E-01 -3.71463540E-04 -4.08503542E-03
  1.27252924E-02  3.42880407E-02 -3.24956259E-02 -8.10637430E-04  3.77969981E-02
 -1.12908307E-02 -1.29935609E-01  3.54059279E-06  3.19518441E-02 -8.57696828E-03
 -7.73772815E-02  7.86731369E-02 -2.16506830E-02 -1.75352798E-02  3.19036366E-02
  1.66931359E-01  2.17944591E-03 -6.25907255E-04  9.16498374E-04 -1.34275190E-01
  1.28075468E-01 -3.61307149E-02  9.80893915E-03 -9.73487205E-03  3.30933583E-01
  1.54928620E-03  6.25486365E-03 -1.00760165E-02  3.34597201E-02 -8.91118416E-03
  4.10603733E-02 -6.46139108E-04  7.31784296E-02 -2.84731783E-03  7.02788236E-02
 -2.37795519E-03  3.91543574E-02  3.59930096E-03  3.83922113E-02  1.79090536E-03
  2.86973287E-02 -9.69396857E-03  6.51583696E-02 -8.23003223E-03  6.60816347E-02
 -1.07151286E-03  1.21786531E-01 -1.23114430E-01  4.91107624E-03 -4.60323799E-02
  2.57519062E-02 -3.35740804E-01  4.18566911E-03 -5.62362886E-02  2.39931974E-02
  8.13405889E-02 -7.46302341E-02  6.82268926E-02  2.24784788E-02 -5.19793271E-02
 -2.32182356E-01  7.53295617E-03 -2.97500379E-03  8.57643577E-04 -4.48413955E-02
  4.15535398E-02  2.18590625E-02 -7.69894323E-02  6.10426011E-03  1.82537882E-01
  2.20398793E-02 -6.84140499E-02  1.24377778E-03 -1.32018500E-01  1.21512894E-01
 -7.21774733E-03 -1.35429319E-02  2.38092965E-02  3.73740995E-01 -7.21169199E-03
 -9.90368886E-03  2.23835664E-02 -8.69964925E-02  7.96981247E-02  5.96327890E-02
  2.44524282E-02 -4.71521958E-02  2.40266782E-01  2.03567714E-04  6.03379557E-04
 -1.06888724E-03 -6.98214833E-02 -4.55830535E-03 -7.27183064E-02 -3.26552417E-03
 -4.82117747E-02  2.02304813E-04 -4.33512680E-02  1.75306755E-03  7.10579599E-02
  8.20356596E-03  7.00231906E-02  7.47561024E-03  5.89319619E-02 -7.38644966E-04
  4.70996068E-02  9.77162829E-03  4.77107749E-02  2.45413329E-03 -1.24084453E-01
  1.23616099E-01 -4.70951851E-02 -6.06786607E-03  6.96870630E-02  4.17019771E-01
 -2.61054733E-02  5.62168700E-02  1.75945676E-03  8.13678608E-02 -6.67121406E-02
 -5.28738479E-02 -2.37451471E-02  5.93640688E-02 -3.04089229E-01 -1.01461401E-02
  6.87118386E-03 -2.96304299E-03  4.29586608E-02 -4.05495141E-02 -6.28461875E-02
  1.19120432E-01  3.84561489E-02 -1.82277991E-01 -6.38203909E-02  1.18625382E-01
  4.15575424E-02 -1.21267542E-01  1.09007997E-01  2.17938810E-02  2.40596234E-02
 -3.68897898E-02  4.06221828E-01  6.72766760E-03 -3.55709495E-03  8.25000672E-03
  6.10948897E-02 -5.28762545E-02  6.46185907E-02  3.41780086E-02 -5.40259476E-02
 -2.13449250E-01  2.04209240E-02  2.78790209E-03 -8.03867325E-03  9.62392929E-02
  1.82281700E-02  1.01341048E-01  2.74995925E-02 -5.25283118E-02 -1.80289106E-02
 -6.04711626E-02 -1.92442002E-02  8.46594674E-02  3.00687046E-02  8.18833781E-02
  2.46381730E-02  7.02502126E-02  6.91734097E-03 -4.37754827E-02 -2.37240436E-02
 -4.12820076E-02 -8.70289431E-03 -5.27896101E-02  5.35470412E-02  2.05963390E-02
 -2.02219075E-02  8.57415895E-02  1.97122768E-01  2.44385876E-02  2.55979347E-02
  3.12895305E-02  9.36820873E-02 -7.84300059E-02  9.33553427E-02 -4.09409937E-02
  7.56206488E-02 -3.76723269E-01  4.38939515E-02 -1.36562371E-02  2.55734467E-02
  2.50999752E-02 -2.39852836E-02 -2.67987453E-03  9.25309134E-02  4.61676704E-02
 -1.06747508E-01 -4.18121665E-03  9.50794327E-02  4.61422692E-02  7.56770841E-02
 -6.64571115E-02  6.82388529E-03 -4.25532092E-02  6.90953903E-02 -2.85902561E-01
  1.83650032E-02 -8.50876733E-03  7.83176309E-03 -1.15574533E-01  9.76062378E-02
  6.54431705E-02 -5.13185072E-02  8.74349438E-02  4.53839222E-01  2.84284837E-02
 -1.84221704E-02  3.43835295E-02  2.51763769E-02  1.90304565E-03  7.43791581E-02
  3.26352651E-02 -9.76766281E-02 -4.96908061E-02 -1.06284464E-01 -5.28008749E-02
 -7.29821058E-02 -3.72256193E-02 -7.23123402E-02 -3.55436189E-02 -3.72416325E-02
 -3.34548164E-03  1.11062485E-01  3.84487028E-02  1.17642909E-01  5.38319747E-02
  6.68367365E-03 -1.03417973E-02  1.04444209E-01  1.35550280E-01  1.61933441E-01
 -1.21760591E-02  1.22498689E-01  6.84913507E-02  1.62350173E-01 -1.43430699E-02
  1.27726955E-02  3.23043641E-02  1.44099240E-01  5.75087403E-02  6.69833462E-02
 -2.50928260E-03  1.17238557E-01  5.11415770E-02 -2.34863551E-02  2.38699264E-02
  1.91390569E-01 -1.08368729E-01  2.35867990E-01  9.56147345E-02  2.00447209E-01
 -1.24414512E-01  2.44907249E-01 -4.12023570E-03  3.90954325E-03 -9.68961586E-03
  4.87739696E-02  3.05147089E-03  1.69107860E-02 -7.82552262E-03  3.27959845E-02
  6.09839697E-03  1.64305833E-02 -1.36058038E-02 -3.49845633E-02  8.87578524E-02
  4.22151806E-02 -6.29863876E-02 -3.26464129E-02  6.16940936E-02  2.64377393E-02