 Entering Gaussian System, Link 0=g16
 Input=c8_3.gjf
 Output=c8_3.log
 Initial command:
 /home/soft/g16/l1.exe "/tmp/liwei01/gaussian/liaokang/Gau-55960.inp" -scrdir="/tmp/liwei01/gaussian/liaokang/"
 Entering Link 1 = /home/soft/g16/l1.exe PID=     55961.
  
 Copyright (c) 1988,1990,1992,1993,1995,1998,2003,2009,2016,
            Gaussian, Inc.  All Rights Reserved.
  
 This is part of the Gaussian(R) 16 program.  It is based on
 the Gaussian(R) 09 system (copyright 2009, Gaussian, Inc.),
 the Gaussian(R) 03 system (copyright 2003, Gaussian, Inc.),
 the Gaussian(R) 98 system (copyright 1998, Gaussian, Inc.),
 the Gaussian(R) 94 system (copyright 1995, Gaussian, Inc.),
 the Gaussian 92(TM) system (copyright 1992, Gaussian, Inc.),
 the Gaussian 90(TM) system (copyright 1990, Gaussian, Inc.),
 the Gaussian 88(TM) system (copyright 1988, Gaussian, Inc.),
 the Gaussian 86(TM) system (copyright 1986, Carnegie Mellon
 University), and the Gaussian 82(TM) system (copyright 1983,
 Carnegie Mellon University). Gaussian is a federally registered
 trademark of Gaussian, Inc.
  
 This software contains proprietary and confidential information,
 including trade secrets, belonging to Gaussian, Inc.
  
 This software is provided under written license and may be
 used, copied, transmitted, or stored only in accord with that
 written license.
  
 The following legend is applicable only to US Government
 contracts under FAR:
  
                    RESTRICTED RIGHTS LEGEND
  
 Use, reproduction and disclosure by the US Government is
 subject to restrictions as set forth in subparagraphs (a)
 and (c) of the Commercial Computer Software - Restricted
 Rights clause in FAR 52.227-19.
  
 Gaussian, Inc.
 340 Quinnipiac St., Bldg. 40, Wallingford CT 06492
  
  
 ---------------------------------------------------------------
 Warning -- This program may not be used in any manner that
 competes with the business of Gaussian, Inc. or will provide
 assistance to any competitor of Gaussian, Inc.  The licensee
 of this program is prohibited from giving any competitor of
 Gaussian, Inc. access to this program.  By using this program,
 the user acknowledges that Gaussian, Inc. is engaged in the
 business of creating and licensing software in the field of
 computational chemistry and represents and warrants to the
 licensee that it is not a competitor of Gaussian, Inc. and that
 it will not use this program in any manner prohibited above.
 ---------------------------------------------------------------
  

 Cite this work as:
 Gaussian 16, Revision A.03,
 M. J. Frisch, G. W. Trucks, H. B. Schlegel, G. E. Scuseria, 
 M. A. Robb, J. R. Cheeseman, G. Scalmani, V. Barone, 
 G. A. Petersson, H. Nakatsuji, X. Li, M. Caricato, A. V. Marenich, 
 J. Bloino, B. G. Janesko, R. Gomperts, B. Mennucci, H. P. Hratchian, 
 J. V. Ortiz, A. F. Izmaylov, J. L. Sonnenberg, D. Williams-Young, 
 F. Ding, F. Lipparini, F. Egidi, J. Goings, B. Peng, A. Petrone, 
 T. Henderson, D. Ranasinghe, V. G. Zakrzewski, J. Gao, N. Rega, 
 G. Zheng, W. Liang, M. Hada, M. Ehara, K. Toyota, R. Fukuda, 
 J. Hasegawa, M. Ishida, T. Nakajima, Y. Honda, O. Kitao, H. Nakai, 
 T. Vreven, K. Throssell, J. A. Montgomery, Jr., J. E. Peralta, 
 F. Ogliaro, M. J. Bearpark, J. J. Heyd, E. N. Brothers, K. N. Kudin, 
 V. N. Staroverov, T. A. Keith, R. Kobayashi, J. Normand, 
 K. Raghavachari, A. P. Rendell, J. C. Burant, S. S. Iyengar, 
 J. Tomasi, M. Cossi, J. M. Millam, M. Klene, C. Adamo, R. Cammi, 
 J. W. Ochterski, R. L. Martin, K. Morokuma, O. Farkas, 
 J. B. Foresman, and D. J. Fox, Gaussian, Inc., Wallingford CT, 2016.
 
 ******************************************
 Gaussian 16:  ES64L-G16RevA.03 25-Dec-2016
                 9-Feb-2020 
 ******************************************
 %chk=c8_3.chk
 %nprocs=4
 Will use up to    4 processors via shared memory.
 %mem=1gb
 ---------------------------------
 #p hf/3-21g pop=npa charge nosymm
 ---------------------------------
 1/18=10,28=-2,38=1,125=101,172=1/1;
 2/12=2,15=1,17=6,18=5,40=1/2;
 3/5=5,11=9,25=1,30=1/1,2,3;
 4//1;
 5/5=2,38=5/2;
 6/7=2,8=2,9=2,10=2,28=1,40=-1/1,7;
 99/5=1,9=1/99;
 Leave Link    1 at Sun Feb  9 19:23:18 2020, MaxMem=   134217728 cpu:               0.3 elap:               0.1
 (Enter /home/soft/g16/l101.exe)
 --------------
 Atom number=14
 --------------
 Symbolic Z-matrix:
 Charge =  0 Multiplicity = 1
 c                    -5.70334   0.0335   -0.55283 
 c                    -5.17791   0.76996  -1.79908 
 f                    -5.31631  -1.25906  -0.59741 
 c                    -3.11457   1.43181  -3.07535 
 c                    -3.64001   0.69535  -1.8291 
 h                    -6.77188   0.08535  -0.53197 
 h                    -5.30664   0.49444   0.32755 
 h                    -5.48467   1.79444  -1.76374 
 h                    -5.57461   0.30903  -2.67945 
 h                    -3.42133   2.45628  -3.04002 
 h                    -3.51128   0.97087  -3.95573 
 h                    -2.04603   1.37996  -3.09621 
 h                    -3.33325  -0.32913  -1.86444 
 h                    -3.2433    1.15628  -0.94872 
 
 ITRead=  0  0  0  0  0  0  0  0  0  0  0  0  0  0
 MicOpt= -1 -1 -1 -1 -1 -1 -1 -1 -1 -1 -1 -1 -1 -1
 NAtoms=     14 NQM=       14 NQMF=       0 NMMI=      0 NMMIF=      0
                NMic=       0 NMicF=      0.
                    Isotopes and Nuclear Properties:
 (Nuclear quadrupole moments (NQMom) in fm**2, nuclear magnetic moments (NMagM)
  in nuclear magnetons)

  Atom         1           2           3           4           5           6           7           8           9          10
 IAtWgt=          12          12          19          12          12           1           1           1           1           1
 AtmWgt=  12.0000000  12.0000000  18.9984033  12.0000000  12.0000000   1.0078250   1.0078250   1.0078250   1.0078250   1.0078250
 NucSpn=           0           0           1           0           0           1           1           1           1           1
 AtZEff=  -0.0000000  -0.0000000  -0.0000000  -0.0000000  -0.0000000  -0.0000000  -0.0000000  -0.0000000  -0.0000000  -0.0000000
 NQMom=    0.0000000   0.0000000   0.0000000   0.0000000   0.0000000   0.0000000   0.0000000   0.0000000   0.0000000   0.0000000
 NMagM=    0.0000000   0.0000000   2.6288670   0.0000000   0.0000000   2.7928460   2.7928460   2.7928460   2.7928460   2.7928460
 AtZNuc=   6.0000000   6.0000000   9.0000000   6.0000000   6.0000000   1.0000000   1.0000000   1.0000000   1.0000000   1.0000000

  Atom        11          12          13          14
 IAtWgt=           1           1           1           1
 AtmWgt=   1.0078250   1.0078250   1.0078250   1.0078250
 NucSpn=           1           1           1           1
 AtZEff=  -0.0000000  -0.0000000  -0.0000000  -0.0000000
 NQMom=    0.0000000   0.0000000   0.0000000   0.0000000
 NMagM=    2.7928460   2.7928460   2.7928460   2.7928460
 AtZNuc=   1.0000000   1.0000000   1.0000000   1.0000000
 Background charge distribution read from input stream:
 Point Charges:
 XYZ=   -7.2412    0.1081   -0.5228 Q=   -0.1164 A=    0.0000 R=    0.0000 C=    0.0000
 XYZ=   -7.5480    1.1326   -0.4875 Q=    0.1914 A=    0.0000 R=    0.0000 C=    0.0000
 XYZ=   -7.6379   -0.3528   -1.4032 Q=    0.1967 A=    0.0000 R=    0.0000 C=    0.0000
 XYZ=   -1.5767    1.3572   -3.1054 Q=   -0.2213 A=    0.0000 R=    0.0000 C=    0.0000
 XYZ=   -1.2699    0.3327   -3.1407 Q=    0.2206 A=    0.0000 R=    0.0000 C=    0.0000
 XYZ=   -1.1800    1.8181   -2.2250 Q=    0.1881 A=    0.0000 R=    0.0000 C=    0.0000
 XYZ=   -1.0751    2.0602   -4.2950 Q=   -0.8948 A=    0.0000 R=    0.0000 C=    0.0000
 XYZ=   -1.3618    3.0176   -4.2620 Q=    0.3566 A=    0.0000 R=    0.0000 C=    0.0000
 XYZ=   -0.0765    2.0117   -4.3145 Q=    0.3600 A=    0.0000 R=    0.0000 C=    0.0000
 XYZ=   -7.7291   -0.5757    0.6344 Q=   -0.7331 A=    0.0000 R=    0.0000 C=    0.0000
 XYZ=   -8.6878   -0.5292    0.6531 Q=    0.4486 A=    0.0000 R=    0.0000 C=    0.0000
 Pt Chg Charge=             -0.0035 electrons
 Pt Chg Dipole moment (Debye):
    X=             -0.1928    Y=              1.8799    Z=             -0.6467  Tot=              1.9974
 Pt Chg Quadrupole moment (Debye-Ang):
   XX=             29.0182   YY=              6.2267   ZZ=             -9.8777
   XY=             -8.5339   XZ=              8.4880   YZ=              1.2420
 Pt Chg Traceless Quadrupole moment (Debye-Ang):
   XX=             20.5625   YY=             -2.2290   ZZ=            -18.3334
   XY=             -8.5339   XZ=              8.4880   YZ=              1.2420
 Pt Chg Octapole moment (Debye-Ang**2):
  XXX=           -389.7367  YYY=             28.0231  ZZZ=             55.1493  XYY=             -8.7248
  XXY=             70.3813  XXZ=           -106.9551  XZZ=             26.2365  YZZ=             -7.0893
  YYZ=            -20.3390  XYZ=            -14.5222
 Pt Chg Hexadecapole moment (Debye-Ang**3):
 XXXX=           4370.4628 YYYY=            100.5217 ZZZZ=           -268.2734 XXXY=           -464.3635
 XXXZ=            773.5522 YYYX=            -39.2158 YYYZ=           -104.2623 ZZZX=           -149.7613
 ZZZY=             37.1794 XXYY=             56.8987 XXZZ=             61.5037 YYZZ=             74.4515
 XXYZ=             27.9083 YYXZ=             15.1999 ZZXY=             51.9022
 Leave Link  101 at Sun Feb  9 19:23:19 2020, MaxMem=   134217728 cpu:               0.6 elap:               0.2
 (Enter /home/soft/g16/l202.exe)
                          Input orientation:                          
 ---------------------------------------------------------------------
 Center     Atomic      Atomic             Coordinates (Angstroms)
 Number     Number       Type             X           Y           Z
 ---------------------------------------------------------------------
      1          6           0       -5.703345    0.033503   -0.552826
      2          6           0       -5.177908    0.769963   -1.799078
      3          9           0       -5.316314   -1.259060   -0.597409
      4          6           0       -3.114573    1.431807   -3.075353
      5          6           0       -3.640010    0.695347   -1.829101
      6          1           0       -6.771884    0.085347   -0.531966
      7          1           0       -5.306640    0.494438    0.327550
      8          1           0       -5.484666    1.794439   -1.763742
      9          1           0       -5.574613    0.309028   -2.679455
     10          1           0       -3.421331    2.456283   -3.040017
     11          1           0       -3.511278    0.970872   -3.955729
     12          1           0       -2.046033    1.379963   -3.096213
     13          1           0       -3.333251   -0.329129   -1.864437
     14          1           0       -3.243304    1.156282   -0.948724
 ---------------------------------------------------------------------
                    Distance matrix (angstroms):
                    1          2          3          4          5
     1  C    0.000000
     2  C    1.540000   0.000000
     3  F    1.350000   2.362224   0.000000
     4  C    3.875582   2.514809   4.269500   0.000000
     5  C    2.514809   1.540000   2.854254   1.540000   0.000000
     6  H    1.070000   2.148263   1.982524   4.653783   3.444314
     7  H    1.070000   2.148263   1.982524   4.154945   2.732978
     8  H    2.148263   1.070000   3.273001   2.732978   2.148263
     9  H    2.148263   1.070000   2.619262   2.732978   2.148263
    10  H    4.154945   2.732978   4.833329   1.070000   2.148263
    11  H    4.154945   2.732978   4.416907   1.070000   2.148263
    12  H    4.653783   3.444314   4.889090   1.070000   2.148263
    13  H    2.732978   2.148263   2.530349   2.148263   1.070000
    14  H    2.732978   2.148263   3.202291   2.148263   1.070000
                    6          7          8          9         10
     6  H    0.000000
     7  H    1.747303   0.000000
     8  H    2.468846   2.468846   0.000000
     9  H    2.468846   3.024610   1.747303   0.000000
    10  H    4.810184   4.329403   2.514809   3.062243   0.000000
    11  H    4.810184   4.668704   3.062243   2.514809   1.747303
    12  H    5.530377   4.810184   3.710993   3.710993   1.747303
    13  H    3.710993   3.062243   3.024610   2.468846   3.024610
    14  H    3.710993   2.514809   2.468846   3.024610   2.468846
                   11         12         13         14
    11  H    0.000000
    12  H    1.747303   0.000000
    13  H    2.468846   2.468846   0.000000
    14  H    3.024610   2.468846   1.747303   0.000000
 Symmetry turned off by external request.
 Stoichiometry    C4H9F
 Framework group  C1[X(C4H9F)]
 Deg. of freedom    36
 Full point group                 C1      NOp   1
 Rotational constants (GHZ):          12.6412508           2.4250968           2.2262318
 Leave Link  202 at Sun Feb  9 19:23:19 2020, MaxMem=   134217728 cpu:               0.1 elap:               0.0
 (Enter /home/soft/g16/l301.exe)
 Standard basis: 3-21G (6D, 7F)
 Ernie: Thresh=  0.10000D-02 Tol=  0.10000D-05 Strict=F.
    63 basis functions,   102 primitive gaussians,    63 cartesian basis functions
    21 alpha electrons       21 beta electrons
       nuclear repulsion energy       188.1859257540 Hartrees.
 IExCor=    0 DFT=F Ex=HF Corr=None ExCW=0 ScaHFX=  1.000000
 ScaDFX=  1.000000  1.000000  1.000000  1.000000 ScalE2=  1.000000  1.000000
 IRadAn=      5 IRanWt=     -1 IRanGd=            0 ICorTp=0 IEmpDi=  4
 NAtoms=   14 NActive=   14 NUniq=   14 SFac= 1.00D+00 NAtFMM=   60 NAOKFM=F Big=F
 Integral buffers will be    131072 words long.
 Raffenetti 1 integral format.
 Two-electron integral symmetry is turned off.
 Background charge distribution read from rwf.
 PtFMM for NChg=        25 BoxLen=    40.00 Levels= 1 LMax=20 SMax=    16.3 ICnFMM=     1:
 Self energy of the charges =        -0.5391446827 a.u.
 MM   energy of the charges =         0.0000000000 a.u.
 Nuclei-charges interaction =        -1.1391545183 a.u.
 Nuclear repulsion after external point charges =      186.5076265529 Hartrees.
 Leave Link  301 at Sun Feb  9 19:23:19 2020, MaxMem=   134217728 cpu:               0.3 elap:               0.1
 (Enter /home/soft/g16/l302.exe)
 NPDir=0 NMtPBC=     1 NCelOv=     1 NCel=       1 NClECP=     1 NCelD=      1
         NCelK=      1 NCelE2=     1 NClLst=     1 CellRange=     0.0.
 One-electron integrals computed using PRISM.
 NBasis=    63 RedAO= T EigKep=  1.10D-02  NBF=    63
 NBsUse=    63 1.00D-06 EigRej= -1.00D+00 NBFU=    63
 Leave Link  302 at Sun Feb  9 19:23:19 2020, MaxMem=   134217728 cpu:               0.4 elap:               0.1
 (Enter /home/soft/g16/l303.exe)
 DipDrv:  MaxL=1.
 Leave Link  303 at Sun Feb  9 19:23:19 2020, MaxMem=   134217728 cpu:               0.1 elap:               0.1
 (Enter /home/soft/g16/l401.exe)
 ExpMin= 1.83D-01 ExpMax= 4.14D+02 ExpMxC= 4.14D+02 IAcc=3 IRadAn=         5 AccDes= 0.00D+00
 Harris functional with IExCor=  205 and IRadAn=       5 diagonalized for initial guess.
 HarFok:  IExCor=  205 AccDes= 0.00D+00 IRadAn=         5 IDoV= 1 UseB2=F ITyADJ=14
 ICtDFT=  3500011 ScaDFX=  1.000000  1.000000  1.000000  1.000000
 FoFCou: FMM=F IPFlag=           0 FMFlag=      100000 FMFlg1=           0
         NFxFlg=           0 DoJE=T BraDBF=F KetDBF=T FulRan=T
         wScrn=  0.000000 ICntrl=       500 IOpCl=  0 I1Cent=   200000004 NGrid=           0
         NMat0=    1 NMatS0=      1 NMatT0=    0 NMatD0=    1 NMtDS0=    0 NMtDT0=    0
 Symmetry not used in FoFCou.
 Harris En= -255.786459215843    
 JPrj=0 DoOrth=F DoCkMO=F.
 Leave Link  401 at Sun Feb  9 19:23:19 2020, MaxMem=   134217728 cpu:               1.6 elap:               0.4
 (Enter /home/soft/g16/l502.exe)
 Keep R1 ints in memory in canonical form, NReq=2862109.
 FoFCou: FMM=F IPFlag=           0 FMFlag=           0 FMFlg1=           0
         NFxFlg=           0 DoJE=F BraDBF=F KetDBF=F FulRan=T
         wScrn=  0.000000 ICntrl=       600 IOpCl=  0 I1Cent=           0 NGrid=           0
         NMat0=    1 NMatS0=   2016 NMatT0=    0 NMatD0=    1 NMtDS0=    0 NMtDT0=    0
 Symmetry not used in FoFCou.
 Two-electron integral symmetry not used.
 Closed shell SCF:
 Using DIIS extrapolation, IDIIS=  1040.
 NGot=   134217728 LenX=   132175355 LenY=   132170945
 Requested convergence on RMS density matrix=1.00D-08 within 128 cycles.
 Requested convergence on MAX density matrix=1.00D-06.
 Requested convergence on             energy=1.00D-06.
 No special actions if energy rises.

 Cycle   1  Pass 1  IDiag  1:
 E= -255.163582777417    
 DIIS: error= 6.07D-02 at cycle   1 NSaved=   1.
 NSaved= 1 IEnMin= 1 EnMin= -255.163582777417     IErMin= 1 ErrMin= 6.07D-02
 ErrMax= 6.07D-02  0.00D+00 EMaxC= 1.00D-01 BMatC= 2.89D-01 BMatP= 2.89D-01
 IDIUse=3 WtCom= 3.93D-01 WtEn= 6.07D-01
 Coeff-Com:  0.100D+01
 Coeff-En:   0.100D+01
 Coeff:      0.100D+01
 Gap=     0.771 Goal=   None    Shift=    0.000
 GapD=    0.771 DampG=2.000 DampE=0.500 DampFc=1.0000 IDamp=-1.
 RMSDP=9.99D-03 MaxDP=1.18D-01              OVMax= 1.14D-01

 Cycle   2  Pass 1  IDiag  1:
 E= -255.362562615920     Delta-E=       -0.198979838503 Rises=F Damp=F
 DIIS: error= 2.16D-02 at cycle   2 NSaved=   2.
 NSaved= 2 IEnMin= 2 EnMin= -255.362562615920     IErMin= 2 ErrMin= 2.16D-02
 ErrMax= 2.16D-02  0.00D+00 EMaxC= 1.00D-01 BMatC= 3.43D-02 BMatP= 2.89D-01
 IDIUse=3 WtCom= 7.84D-01 WtEn= 2.16D-01
 Coeff-Com:  0.215D+00 0.785D+00
 Coeff-En:   0.000D+00 0.100D+01
 Coeff:      0.169D+00 0.831D+00
 Gap=     0.717 Goal=   None    Shift=    0.000
 RMSDP=3.17D-03 MaxDP=4.80D-02 DE=-1.99D-01 OVMax= 3.21D-02

 Cycle   3  Pass 1  IDiag  1:
 E= -255.392698737566     Delta-E=       -0.030136121645 Rises=F Damp=F
 DIIS: error= 4.26D-03 at cycle   3 NSaved=   3.
 NSaved= 3 IEnMin= 3 EnMin= -255.392698737566     IErMin= 3 ErrMin= 4.26D-03
 ErrMax= 4.26D-03  0.00D+00 EMaxC= 1.00D-01 BMatC= 9.23D-04 BMatP= 3.43D-02
 IDIUse=3 WtCom= 9.57D-01 WtEn= 4.26D-02
 Coeff-Com: -0.207D-01 0.935D-01 0.927D+00
 Coeff-En:   0.000D+00 0.000D+00 0.100D+01
 Coeff:     -0.198D-01 0.895D-01 0.930D+00
 Gap=     0.686 Goal=   None    Shift=    0.000
 RMSDP=5.23D-04 MaxDP=4.18D-03 DE=-3.01D-02 OVMax= 5.59D-03

 Cycle   4  Pass 1  IDiag  1:
 E= -255.393672718188     Delta-E=       -0.000973980622 Rises=F Damp=F
 DIIS: error= 4.52D-04 at cycle   4 NSaved=   4.
 NSaved= 4 IEnMin= 4 EnMin= -255.393672718188     IErMin= 4 ErrMin= 4.52D-04
 ErrMax= 4.52D-04  0.00D+00 EMaxC= 1.00D-01 BMatC= 2.05D-05 BMatP= 9.23D-04
 IDIUse=3 WtCom= 9.95D-01 WtEn= 4.52D-03
 Coeff-Com: -0.502D-02 0.514D-02 0.154D+00 0.846D+00
 Coeff-En:   0.000D+00 0.000D+00 0.000D+00 0.100D+01
 Coeff:     -0.500D-02 0.512D-02 0.154D+00 0.846D+00
 Gap=     0.685 Goal=   None    Shift=    0.000
 RMSDP=8.97D-05 MaxDP=1.78D-03 DE=-9.74D-04 OVMax= 8.35D-04

 Cycle   5  Pass 1  IDiag  1:
 E= -255.393692527707     Delta-E=       -0.000019809519 Rises=F Damp=F
 DIIS: error= 1.10D-04 at cycle   5 NSaved=   5.
 NSaved= 5 IEnMin= 5 EnMin= -255.393692527707     IErMin= 5 ErrMin= 1.10D-04
 ErrMax= 1.10D-04  0.00D+00 EMaxC= 1.00D-01 BMatC= 1.48D-06 BMatP= 2.05D-05
 IDIUse=3 WtCom= 9.99D-01 WtEn= 1.10D-03
 Coeff-Com:  0.198D-02-0.984D-02-0.879D-01-0.966D-02 0.111D+01
 Coeff-En:   0.000D+00 0.000D+00 0.000D+00 0.000D+00 0.100D+01
 Coeff:      0.197D-02-0.983D-02-0.878D-01-0.964D-02 0.111D+01
 Gap=     0.685 Goal=   None    Shift=    0.000
 RMSDP=4.35D-05 MaxDP=6.86D-04 DE=-1.98D-05 OVMax= 4.59D-04

 Cycle   6  Pass 1  IDiag  1:
 E= -255.393694684464     Delta-E=       -0.000002156757 Rises=F Damp=F
 DIIS: error= 4.14D-05 at cycle   6 NSaved=   6.
 NSaved= 6 IEnMin= 6 EnMin= -255.393694684464     IErMin= 6 ErrMin= 4.14D-05
 ErrMax= 4.14D-05  0.00D+00 EMaxC= 1.00D-01 BMatC= 5.25D-08 BMatP= 1.48D-06
 IDIUse=1 WtCom= 1.00D+00 WtEn= 0.00D+00
 Coeff-Com:  0.493D-03-0.202D-02-0.201D-01-0.225D-01 0.200D+00 0.844D+00
 Coeff:      0.493D-03-0.202D-02-0.201D-01-0.225D-01 0.200D+00 0.844D+00
 Gap=     0.685 Goal=   None    Shift=    0.000
 RMSDP=5.35D-06 MaxDP=6.73D-05 DE=-2.16D-06 OVMax= 6.16D-05

 Cycle   7  Pass 1  IDiag  1:
 E= -255.393694750258     Delta-E=       -0.000000065795 Rises=F Damp=F
 DIIS: error= 9.51D-06 at cycle   7 NSaved=   7.
 NSaved= 7 IEnMin= 7 EnMin= -255.393694750258     IErMin= 7 ErrMin= 9.51D-06
 ErrMax= 9.51D-06  0.00D+00 EMaxC= 1.00D-01 BMatC= 5.31D-09 BMatP= 5.25D-08
 IDIUse=1 WtCom= 1.00D+00 WtEn= 0.00D+00
 Coeff-Com: -0.250D-03 0.123D-02 0.114D-01 0.469D-02-0.146D+00-0.335D-01
 Coeff-Com:  0.116D+01
 Coeff:     -0.250D-03 0.123D-02 0.114D-01 0.469D-02-0.146D+00-0.335D-01
 Coeff:      0.116D+01
 Gap=     0.685 Goal=   None    Shift=    0.000
 RMSDP=2.65D-06 MaxDP=3.23D-05 DE=-6.58D-08 OVMax= 2.65D-05

 Cycle   8  Pass 1  IDiag  1:
 E= -255.393694759200     Delta-E=       -0.000000008941 Rises=F Damp=F
 DIIS: error= 1.61D-06 at cycle   8 NSaved=   8.
 NSaved= 8 IEnMin= 8 EnMin= -255.393694759200     IErMin= 8 ErrMin= 1.61D-06
 ErrMax= 1.61D-06  0.00D+00 EMaxC= 1.00D-01 BMatC= 1.33D-10 BMatP= 5.31D-09
 IDIUse=1 WtCom= 1.00D+00 WtEn= 0.00D+00
 Coeff-Com:  0.126D-04-0.730D-04-0.681D-03 0.259D-03 0.108D-01-0.230D-01
 Coeff-Com: -0.148D+00 0.116D+01
 Coeff:      0.126D-04-0.730D-04-0.681D-03 0.259D-03 0.108D-01-0.230D-01
 Coeff:     -0.148D+00 0.116D+01
 Gap=     0.685 Goal=   None    Shift=    0.000
 RMSDP=4.62D-07 MaxDP=6.67D-06 DE=-8.94D-09 OVMax= 4.77D-06

 Cycle   9  Pass 1  IDiag  1:
 E= -255.393694759489     Delta-E=       -0.000000000289 Rises=F Damp=F
 DIIS: error= 3.51D-07 at cycle   9 NSaved=   9.
 NSaved= 9 IEnMin= 9 EnMin= -255.393694759489     IErMin= 9 ErrMin= 3.51D-07
 ErrMax= 3.51D-07  0.00D+00 EMaxC= 1.00D-01 BMatC= 1.28D-11 BMatP= 1.33D-10
 IDIUse=1 WtCom= 1.00D+00 WtEn= 0.00D+00
 Coeff-Com:  0.179D-04-0.910D-04-0.851D-03-0.235D-03 0.115D-01-0.211D-02
 Coeff-Com: -0.104D+00 0.199D+00 0.897D+00
 Coeff:      0.179D-04-0.910D-04-0.851D-03-0.235D-03 0.115D-01-0.211D-02
 Coeff:     -0.104D+00 0.199D+00 0.897D+00
 Gap=     0.685 Goal=   None    Shift=    0.000
 RMSDP=1.08D-07 MaxDP=1.35D-06 DE=-2.89D-10 OVMax= 1.12D-06

 Cycle  10  Pass 1  IDiag  1:
 E= -255.393694759507     Delta-E=       -0.000000000018 Rises=F Damp=F
 DIIS: error= 9.77D-08 at cycle  10 NSaved=  10.
 NSaved=10 IEnMin=10 EnMin= -255.393694759507     IErMin=10 ErrMin= 9.77D-08
 ErrMax= 9.77D-08  0.00D+00 EMaxC= 1.00D-01 BMatC= 4.39D-13 BMatP= 1.28D-11
 IDIUse=1 WtCom= 1.00D+00 WtEn= 0.00D+00
 Coeff-Com: -0.307D-05 0.163D-04 0.146D-03 0.203D-04-0.209D-02 0.166D-02
 Coeff-Com:  0.204D-01-0.843D-01-0.117D+00 0.118D+01
 Coeff:     -0.307D-05 0.163D-04 0.146D-03 0.203D-04-0.209D-02 0.166D-02
 Coeff:      0.204D-01-0.843D-01-0.117D+00 0.118D+01
 Gap=     0.685 Goal=   None    Shift=    0.000
 RMSDP=2.93D-08 MaxDP=3.53D-07 DE=-1.77D-11 OVMax= 3.31D-07

 Cycle  11  Pass 1  IDiag  1:
 E= -255.393694759508     Delta-E=       -0.000000000002 Rises=F Damp=F
 DIIS: error= 3.11D-08 at cycle  11 NSaved=  11.
 NSaved=11 IEnMin=11 EnMin= -255.393694759508     IErMin=11 ErrMin= 3.11D-08
 ErrMax= 3.11D-08  0.00D+00 EMaxC= 1.00D-01 BMatC= 2.05D-14 BMatP= 4.39D-13
 IDIUse=1 WtCom= 1.00D+00 WtEn= 0.00D+00
 Coeff-Com:  0.249D-06-0.136D-05-0.116D-04 0.543D-05 0.179D-03-0.406D-03
 Coeff-Com: -0.196D-02 0.160D-01-0.373D-03-0.319D+00 0.131D+01
 Coeff:      0.249D-06-0.136D-05-0.116D-04 0.543D-05 0.179D-03-0.406D-03
 Coeff:     -0.196D-02 0.160D-01-0.373D-03-0.319D+00 0.131D+01
 Gap=     0.685 Goal=   None    Shift=    0.000
 RMSDP=5.65D-09 MaxDP=6.20D-08 DE=-1.59D-12 OVMax= 8.06D-08

 SCF Done:  E(RHF) =  -255.393694760     A.U. after   11 cycles
            NFock= 11  Conv=0.57D-08     -V/T= 2.0036
 KE= 2.544777632636D+02 PE=-9.747766940548D+02 EE= 2.783976094788D+02
 Leave Link  502 at Sun Feb  9 19:23:19 2020, MaxMem=   134217728 cpu:               0.5 elap:               0.2
 (Enter /home/soft/g16/l601.exe)
 Copying SCF densities to generalized density rwf, IOpCl= 0 IROHF=0.

 **********************************************************************

            Population analysis using the SCF density.

 **********************************************************************

 Alpha  occ. eigenvalues --  -26.09662 -11.20175 -11.14327 -11.13668 -11.10015
 Alpha  occ. eigenvalues --   -1.54504  -1.06032  -0.95877  -0.83862  -0.78515
 Alpha  occ. eigenvalues --   -0.67045  -0.65418  -0.61849  -0.60641  -0.54170
 Alpha  occ. eigenvalues --   -0.52000  -0.49559  -0.47163  -0.46063  -0.44461
 Alpha  occ. eigenvalues --   -0.40179
 Alpha virt. eigenvalues --    0.28340   0.31449   0.32867   0.34714   0.37651
 Alpha virt. eigenvalues --    0.38482   0.39106   0.39861   0.41710   0.42988
 Alpha virt. eigenvalues --    0.46046   0.48980   0.49629   0.91988   0.94267
 Alpha virt. eigenvalues --    0.95561   0.98492   1.01025   1.05429   1.09007
 Alpha virt. eigenvalues --    1.10076   1.11645   1.21652   1.27864   1.29916
 Alpha virt. eigenvalues --    1.37305   1.39716   1.42915   1.43697   1.45911
 Alpha virt. eigenvalues --    1.46422   1.47496   1.52537   1.56331   1.88212
 Alpha virt. eigenvalues --    2.16907   2.31627   2.42065   2.46594   2.52375
 Alpha virt. eigenvalues --    2.61911   4.12102
          Condensed to atoms (all electrons):
               1          2          3          4          5          6
     1  C    4.989132   0.168001   0.207684   0.003658  -0.073046   0.376844
     2  C    0.168001   5.744952  -0.040858  -0.083787   0.204470  -0.063847
     3  F    0.207684  -0.040858   9.303648   0.000028   0.000618  -0.027984
     4  C    0.003658  -0.083787   0.000028   5.499570   0.207352  -0.000061
     5  C   -0.073046   0.204470   0.000618   0.207352   5.563653   0.004731
     6  H    0.376844  -0.063847  -0.027984  -0.000061   0.004731   0.481414
     7  H    0.364960  -0.062199  -0.031458  -0.000087  -0.005237  -0.035476
     8  H   -0.035240   0.351198   0.001386  -0.001206  -0.043106   0.001380
     9  H   -0.042497   0.380244   0.000619  -0.000660  -0.047616  -0.003766
    10  H   -0.000075  -0.002287  -0.000000   0.380653  -0.052771  -0.000001
    11  H   -0.000051  -0.002191  -0.000000   0.387490  -0.052261   0.000002
    12  H   -0.000056   0.003171   0.000000   0.365775  -0.039406   0.000000
    13  H   -0.002528  -0.049533   0.006849  -0.042441   0.387272   0.000175
    14  H   -0.000889  -0.049526  -0.000235  -0.044242   0.384568  -0.000064
               7          8          9         10         11         12
     1  C    0.364960  -0.035240  -0.042497  -0.000075  -0.000051  -0.000056
     2  C   -0.062199   0.351198   0.380244  -0.002287  -0.002191   0.003171
     3  F   -0.031458   0.001386   0.000619  -0.000000  -0.000000   0.000000
     4  C   -0.000087  -0.001206  -0.000660   0.380653   0.387490   0.365775
     5  C   -0.005237  -0.043106  -0.047616  -0.052771  -0.052261  -0.039406
     6  H   -0.035476   0.001380  -0.003766  -0.000001   0.000002   0.000000
     7  H    0.579171   0.001920   0.004126   0.000003   0.000001   0.000001
     8  H    0.001920   0.557336  -0.024992   0.002699   0.000036  -0.000018
     9  H    0.004126  -0.024992   0.522774   0.000052   0.002700  -0.000025
    10  H    0.000003   0.002699   0.000052   0.556014  -0.027748  -0.018378
    11  H    0.000001   0.000036   0.002700  -0.027748   0.516128  -0.016055
    12  H    0.000001  -0.000018  -0.000025  -0.018378  -0.016055   0.310849
    13  H    0.000372   0.003725  -0.001586   0.003419  -0.002037  -0.001138
    14  H    0.003178  -0.001851   0.003503  -0.002051   0.003513  -0.001190
              13         14
     1  C   -0.002528  -0.000889
     2  C   -0.049533  -0.049526
     3  F    0.006849  -0.000235
     4  C   -0.042441  -0.044242
     5  C    0.387272   0.384568
     6  H    0.000175  -0.000064
     7  H    0.000372   0.003178
     8  H    0.003725  -0.001851
     9  H   -0.001586   0.003503
    10  H    0.003419  -0.002051
    11  H   -0.002037   0.003513
    12  H   -0.001138  -0.001190
    13  H    0.511013  -0.027461
    14  H   -0.027461   0.550037
 Mulliken charges:
               1
     1  C    0.044101
     2  C   -0.497807
     3  F   -0.420296
     4  C   -0.672041
     5  C   -0.439222
     6  H    0.266654
     7  H    0.180726
     8  H    0.186733
     9  H    0.207125
    10  H    0.160471
    11  H    0.190475
    12  H    0.396469
    13  H    0.213900
    14  H    0.182712
 Sum of Mulliken charges =  -0.00000
 Mulliken charges with hydrogens summed into heavy atoms:
               1
     1  C    0.491481
     2  C   -0.103949
     3  F   -0.420296
     4  C    0.075374
     5  C   -0.042610
 Electronic spatial extent (au):  <R**2>=           4108.1115
 Charge=             -0.0000 electrons
 Dipole moment (field-independent basis, Debye):
    X=              0.0557    Y=              1.7369    Z=             -0.1282  Tot=              1.7426
 Quadrupole moment (field-independent basis, Debye-Ang):
   XX=            -27.8689   YY=            -35.2425   ZZ=            -30.6170
   XY=             -7.9384   XZ=             -2.3976   YZ=             -0.9746
 Traceless Quadrupole moment (field-independent basis, Debye-Ang):
   XX=              3.3740   YY=             -3.9997   ZZ=              0.6258
   XY=             -7.9384   XZ=             -2.3976   YZ=             -0.9746
 Octapole moment (field-independent basis, Debye-Ang**2):
  XXX=            376.9482  YYY=            -45.0704  ZZZ=            156.1831  XYY=            162.1527
  XXY=             24.4880  XXZ=             68.8263  XZZ=            147.8978  YZZ=            -15.2952
  YYZ=             56.6258  XYZ=              1.1221
 Hexadecapole moment (field-independent basis, Debye-Ang**3):
 XXXX=          -3651.2080 YYYY=           -241.0442 ZZZZ=           -758.0701 XXXY=            -52.4310
 XXXZ=           -715.9726 YYYX=            140.7884 YYYZ=            148.0159 ZZZX=           -648.7609
 ZZZY=            148.0057 XXYY=           -828.5112 XXZZ=           -858.3553 YYZZ=           -173.5556
 XXYZ=             46.8364 YYXZ=           -232.2427 ZZXY=             62.4389
 N-N= 1.865076265529D+02 E-N=-9.747766941527D+02  KE= 2.544777632636D+02
 No NMR shielding tensors so no spin-rotation constants.
 Leave Link  601 at Sun Feb  9 19:23:20 2020, MaxMem=   134217728 cpu:               0.4 elap:               0.1
 (Enter /home/soft/g16/l607.exe)
 ******************************Gaussian NBO Version 3.1******************************
             N A T U R A L   A T O M I C   O R B I T A L   A N D
          N A T U R A L   B O N D   O R B I T A L   A N A L Y S I S
 ******************************Gaussian NBO Version 3.1******************************
       /RESON  / : Allow strongly delocalized NBO set

 Analyzing the SCF density

 Job title: Atom number=14                                                  

 Storage needed:     12572 in NPA ( 134216608 available)
 GSVD:  LWork=        1385 too small for GESVD, short by        3477 words or        3477 for optimal perf.
 GSVD:  LWork=        2519 too small for GESVD, short by         156 words or         156 for optimal perf.


 NATURAL POPULATIONS:  Natural atomic orbital occupancies 
                                                          
   NAO  Atom  No  lang   Type(AO)    Occupancy      Energy
 ----------------------------------------------------------
     1    C    1  S      Cor( 1S)     1.99834     -11.07195
     2    C    1  S      Val( 2S)     1.01882      -0.23174
     3    C    1  S      Ryd( 3S)     0.00145       2.04015
     4    C    1  px     Val( 2p)     1.18931      -0.05412
     5    C    1  px     Ryd( 3p)     0.00377       1.18062
     6    C    1  py     Val( 2p)     0.65556       0.05442
     7    C    1  py     Ryd( 3p)     0.00622       1.03516
     8    C    1  pz     Val( 2p)     1.09383      -0.02853
     9    C    1  pz     Ryd( 3p)     0.00377       1.04354

    10    C    2  S      Cor( 1S)     1.99882     -10.97805
    11    C    2  S      Val( 2S)     1.04343      -0.25588
    12    C    2  S      Ryd( 3S)     0.00059       2.26699
    13    C    2  px     Val( 2p)     1.09402      -0.05739
    14    C    2  px     Ryd( 3p)     0.00111       1.04119
    15    C    2  py     Val( 2p)     1.20689      -0.06250
    16    C    2  py     Ryd( 3p)     0.00245       1.20194
    17    C    2  pz     Val( 2p)     1.16448      -0.06505
    18    C    2  pz     Ryd( 3p)     0.00192       1.13659

    19    F    3  S      Cor( 1S)     1.99987     -25.74547
    20    F    3  S      Val( 2S)     1.83135      -1.60932
    21    F    3  S      Ryd( 3S)     0.00014       3.95656
    22    F    3  px     Val( 2p)     1.94167      -0.54810
    23    F    3  px     Ryd( 3p)     0.00042       2.46090
    24    F    3  py     Val( 2p)     1.64612      -0.46136
    25    F    3  py     Ryd( 3p)     0.00051       2.55585
    26    F    3  pz     Val( 2p)     1.96920      -0.55680
    27    F    3  pz     Ryd( 3p)     0.00039       2.42129

    28    C    4  S      Cor( 1S)     1.99891     -10.93835
    29    C    4  S      Val( 2S)     1.09231      -0.23638
    30    C    4  S      Ryd( 3S)     0.00039       2.16066
    31    C    4  px     Val( 2p)     1.33088      -0.06965
    32    C    4  px     Ryd( 3p)     0.00235       1.15290
    33    C    4  py     Val( 2p)     1.18321      -0.02522
    34    C    4  py     Ryd( 3p)     0.00141       1.06748
    35    C    4  pz     Val( 2p)     1.11076      -0.01100
    36    C    4  pz     Ryd( 3p)     0.00219       1.03792

    37    C    5  S      Cor( 1S)     1.99887     -10.97153
    38    C    5  S      Val( 2S)     1.02644      -0.23207
    39    C    5  S      Ryd( 3S)     0.00060       2.27292
    40    C    5  px     Val( 2p)     1.05716      -0.03373
    41    C    5  px     Ryd( 3p)     0.00158       1.04953
    42    C    5  py     Val( 2p)     1.21877      -0.05036
    43    C    5  py     Ryd( 3p)     0.00238       1.19215
    44    C    5  pz     Val( 2p)     1.15474      -0.04467
    45    C    5  pz     Ryd( 3p)     0.00245       1.15618

    46    H    6  S      Val( 1S)     0.75644       0.23767
    47    H    6  S      Ryd( 2S)     0.00147       0.96216

    48    H    7  S      Val( 1S)     0.81939       0.16785
    49    H    7  S      Ryd( 2S)     0.00216       0.96106

    50    H    8  S      Val( 1S)     0.78315       0.16950
    51    H    8  S      Ryd( 2S)     0.00196       0.98615

    52    H    9  S      Val( 1S)     0.77593       0.18404
    53    H    9  S      Ryd( 2S)     0.00223       0.99134

    54    H   10  S      Val( 1S)     0.80325       0.17927
    55    H   10  S      Ryd( 2S)     0.00126       1.00789

    56    H   11  S      Val( 1S)     0.78429       0.20206
    57    H   11  S      Ryd( 2S)     0.00113       1.01200

    58    H   12  S      Val( 1S)     0.64345       0.35297
    59    H   12  S      Ryd( 2S)     0.00049       1.04133

    60    H   13  S      Val( 1S)     0.76904       0.20553
    61    H   13  S      Ryd( 2S)     0.00293       0.99194

    62    H   14  S      Val( 1S)     0.78978       0.18166
    63    H   14  S      Ryd( 2S)     0.00178       0.99669

 WARNING:  1 low occupancy (<1.9990e) core orbital  found on  C    1
           1 low occupancy (<1.9990e) core orbital  found on  C    2
           1 low occupancy (<1.9990e) core orbital  found on  C    4
           1 low occupancy (<1.9990e) core orbital  found on  C    5


 Summary of Natural Population Analysis:                  
                                                          
                                       Natural Population 
                Natural  -----------------------------------------------
    Atom  No    Charge         Core      Valence    Rydberg      Total
 -----------------------------------------------------------------------
      C    1    0.02893      1.99834     3.95751    0.01522     5.97107
      C    2   -0.51372      1.99882     4.50882    0.00608     6.51372
      F    3   -0.38967      1.99987     7.38834    0.00146     9.38967
      C    4   -0.72241      1.99891     4.71716    0.00634     6.72241
      C    5   -0.46298      1.99887     4.45711    0.00700     6.46298
      H    6    0.24208      0.00000     0.75644    0.00147     0.75792
      H    7    0.17845      0.00000     0.81939    0.00216     0.82155
      H    8    0.21489      0.00000     0.78315    0.00196     0.78511
      H    9    0.22184      0.00000     0.77593    0.00223     0.77816
      H   10    0.19549      0.00000     0.80325    0.00126     0.80451
      H   11    0.21458      0.00000     0.78429    0.00113     0.78542
      H   12    0.35606      0.00000     0.64345    0.00049     0.64394
      H   13    0.22803      0.00000     0.76904    0.00293     0.77197
      H   14    0.20843      0.00000     0.78978    0.00178     0.79157
 =======================================================================
   * Total *   -0.00000      9.99482    31.95367    0.05151    42.00000

                                 Natural Population      
 --------------------------------------------------------
   Core                       9.99482 ( 99.9482% of  10)
   Valence                   31.95367 ( 99.8552% of  32)
   Natural Minimal Basis     41.94849 ( 99.8774% of  42)
   Natural Rydberg Basis      0.05151 (  0.1226% of  42)
 --------------------------------------------------------

    Atom  No          Natural Electron Configuration
 ----------------------------------------------------------------------------
      C    1      [core]2S( 1.02)2p( 2.94)3p( 0.01)
      C    2      [core]2S( 1.04)2p( 3.47)3p( 0.01)
      F    3      [core]2S( 1.83)2p( 5.56)
      C    4      [core]2S( 1.09)2p( 3.62)3p( 0.01)
      C    5      [core]2S( 1.03)2p( 3.43)3p( 0.01)
      H    6            1S( 0.76)
      H    7            1S( 0.82)
      H    8            1S( 0.78)
      H    9            1S( 0.78)
      H   10            1S( 0.80)
      H   11            1S( 0.78)
      H   12            1S( 0.64)
      H   13            1S( 0.77)
      H   14            1S( 0.79)


 NBO analysis skipped by request.
 Leave Link  607 at Sun Feb  9 19:23:20 2020, MaxMem=   134217728 cpu:               0.6 elap:               0.2
 (Enter /home/soft/g16/l9999.exe)

 Test job not archived.
 1\1\GINC-MASTER\SP\RHF\3-21G\C4H9F1\LIWEI01\09-Feb-2020\0\\#p hf/3-21g
  pop=npa charge nosymm\\Atom number=14\\0,1\C,0,-5.70334476,0.03350295
 ,-0.55282649\C,0,-5.17790776,0.76996336,-1.79907768\F,0,-5.31631356,-1
 .2590601,-0.597409\C,0,-3.11457255,1.43180701,-3.07535251\C,0,-3.64000
 955,0.6953466,-1.82910132\H,0,-6.77188443,0.08534706,-0.53196591\H,0,-
 5.30663952,0.49443822,0.32755049\H,0,-5.48466583,1.79443926,-1.7637419
 1\H,0,-5.57461301,0.30902809,-2.67945466\H,0,-3.42133061,2.45628291,-3
 .04001674\H,0,-3.51127779,0.97087174,-3.95572949\H,0,-2.04603288,1.379
 96289,-3.09621309\H,0,-3.33325148,-0.32912931,-1.86443708\H,0,-3.24330
 43,1.15628186,-0.94872434\\Version=ES64L-G16RevA.03\HF=-255.3936948\RM
 SD=5.651e-09\Dipole=0.0219167,0.6833666,-0.0504348\Quadrupole=2.508450
 4,-2.9736994,0.465249,-5.9019858,-1.7825852,-0.7245628\PG=C01 [X(C4H9F
 1)]\\@


 IF GOD HAD MEANT MAN TO SEE THE SUN RISE, HE
 WOULD HAVE SCHEDULED IT FOR A LATER HOUR.
 Job cpu time:       0 days  0 hours  0 minutes  5.1 seconds.
 Elapsed time:       0 days  0 hours  0 minutes  1.5 seconds.
 File lengths (MBytes):  RWF=     72 Int=      0 D2E=      0 Chk=      8 Scr=      8
 Normal termination of Gaussian 16 at Sun Feb  9 19:23:20 2020.
