#INFO: **** input file is /home/liwei01/wsr/dftpart/test_2body/c8b/gfea_c8.py ****
from dftpart import gfea3
from pyscf import lib

par = 8
with lib.with_omp_threads(par):
    fr0 = gfea3.GFEA()
    fr0.inputstyle = 'frg'
    fr0.method = ['hf', '6-31gss','charge']
    fr0.gjfname = 'c8b'
    fr0.output = 'c8b'
    fr0.verbose = 9
    fr0.showinter = True
    #fr0.do_deriv = True
    fr0.kernel()

#INFO: ******************** input file end ********************


System: uname_result(system='Linux', node='master', release='3.10.0-693.el7.x86_64', version='#1 SMP Tue Aug 22 21:09:27 UTC 2017', machine='x86_64', processor='x86_64')  Threads 8
Python 3.7.6 (default, Jan  8 2020, 19:59:22) 
[GCC 7.3.0]
numpy 1.18.1  scipy 1.4.1
Date: Tue Jun 16 20:09:38 2020
PySCF version 1.6.1
PySCF path  /home/liwei01/zcheng/pyscf/pyscf
GIT HEAD      ref: refs/heads/master
GIT master branch  3adc7fd25839fe674469a52b764c3661e32d7318

[CONFIG] DEBUG = False
[CONFIG] MAX_MEMORY = 4000
[CONFIG] TMPDIR = .
[CONFIG] UNIT = angstrom
[CONFIG] VERBOSE = 3
[CONFIG] conf_file = None
[INPUT] verbose = 9
[INPUT] max_memory = 4000 
[INPUT] num. atoms = 18
[INPUT] num. electrons = 58
[INPUT] charge = 0
[INPUT] spin (= nelec alpha-beta = 2S) = 0
[INPUT] symmetry False subgroup None
[INPUT] Mole.unit = angstrom
[INPUT]  1 C     -7.241242980000   0.108119710000  -0.522802850000 AA  -13.683966033629   0.204316640567  -0.987954203642 Bohr
[INPUT]  2 H     -7.548001040000   1.132595610000  -0.487467080000 AA  -14.263654753532   2.140295512785  -0.921179275941 Bohr
[INPUT]  3 H     -7.637948220000  -0.352815550000  -1.403179830000 AA  -14.433630289409  -0.666724761988  -2.651625582214 Bohr
[INPUT]  4 O     -7.729148760000  -0.575736380000   0.634430400000 AA  -14.605974332422  -1.087984078149   1.198899701098 Bohr
[INPUT]  5 H     -8.687838560000  -0.529222040000   0.653146440000 AA  -16.417635492836  -1.000084714684   1.234267890835 Bohr
[INPUT]  6 C     -5.703344760000   0.033502950000  -0.552826490000 AA  -10.777759590373   0.063311399865  -1.044690660505 Bohr
[INPUT]  7 H     -5.306639520000   0.494438220000   0.327550490000 AA  -10.028095334593   0.934352821317   0.618980718067 Bohr
[INPUT]  8 C     -5.177907760000   0.769963360000  -1.799077680000 AA   -9.784827564660   1.455019876350  -3.399764092018 Bohr
[INPUT]  9 H     -5.484665830000   1.794439260000  -1.763741910000 AA  -10.364516303460   3.390998748567  -3.332989164317 Bohr
[INPUT] 10 H     -5.574613010000   0.309028090000  -2.679454660000 AA  -10.534491839337   0.583978454897  -5.063435470590 Bohr
[INPUT] 11 F     -5.316313560000  -1.259060100000  -0.597409000000 AA  -10.046376620711  -2.379278763367  -1.128939394350 Bohr
[INPUT] 12 C     -3.114572550000   1.431807010000  -3.075352510000 AA   -5.885689114588   2.705723112132  -5.811573980394 Bohr
[INPUT] 13 H     -3.421330610000   2.456282910000  -3.040016740000 AA   -6.465377834491   4.641701984350  -5.744799052693 Bohr
[INPUT] 14 C     -3.640009550000   0.695346600000  -1.829101320000 AA   -6.878621140301   1.314014635647  -3.456500548880 Bohr
[INPUT] 15 H     -3.333251480000  -0.329129310000  -1.864437080000 AA   -6.298932401501  -0.621964255467  -3.523275457684 Bohr
[INPUT] 16 H     -3.243304300000   1.156281860000  -0.948724340000 AA   -6.128956865624   2.185056038203  -1.792829170309 Bohr
[INPUT] 17 H     -3.511277790000   0.970871740000  -3.955729490000 AA   -6.635353370368   1.834681690680  -7.475245358965 Bohr
[INPUT] 18 H     -2.046032880000   1.379962890000  -3.096213090000 AA   -3.866441785055   2.607751924163  -5.850994763393 Bohr
[INPUT] ---------------- BASIS SET ---------------- 
[INPUT] l, kappa, [nprim/nctr], expnt,             c_1 c_2 ...
[INPUT] H
[INPUT] 0    0    [3    /1   ]  18.731137         0.0334946
                                2.8253937         0.23472695
                                0.6401217         0.81375733
[INPUT] 0    0    [1    /1   ]  0.1612778            1
[INPUT] 1    0    [1    /1   ]  1.1                  1
[INPUT] O
[INPUT] 0    0    [6    /1   ]  5484.6717         0.0018311
                                825.23495         0.0139501
                                188.04696         0.0684451
                                52.9645           0.2327143
                                16.89757          0.470193
                                5.7996353         0.3585209
[INPUT] 0    0    [3    /1   ]  15.539616         -0.1107775
                                3.5999336         -0.1480263
                                1.0137618         1.130767
[INPUT] 0    0    [1    /1   ]  0.2700058            1
[INPUT] 1    0    [3    /1   ]  15.539616         0.0708743
                                3.5999336         0.3397528
                                1.0137618         0.7271586
[INPUT] 1    0    [1    /1   ]  0.2700058            1
[INPUT] 2    0    [1    /1   ]  0.8                  1
[INPUT] F
[INPUT] 0    0    [6    /1   ]  7001.71309        0.0018196169
                                1051.36609        0.0139160796
                                239.28569         0.0684053245
                                67.3974453        0.23318576
                                21.5199573        0.471267439
                                7.4031013         0.356618546
[INPUT] 0    0    [3    /1   ]  20.8479528        -0.108506975
                                4.80830834        -0.146451658
                                1.34406986        1.12868858
[INPUT] 0    0    [1    /1   ]  0.358151393          1
[INPUT] 1    0    [3    /1   ]  20.8479528        0.0716287243
                                4.80830834        0.345912103
                                1.34406986        0.722469957
[INPUT] 1    0    [1    /1   ]  0.358151393          1
[INPUT] 2    0    [1    /1   ]  0.8                  1
[INPUT] C
[INPUT] 0    0    [6    /1   ]  3047.5249         0.0018347
                                457.36951         0.0140373
                                103.94869         0.0688426
                                29.210155         0.2321844
                                9.286663          0.4679413
                                3.163927          0.362312
[INPUT] 0    0    [3    /1   ]  7.8682724         -0.1193324
                                1.8812885         -0.1608542
                                0.5442493         1.1434564
[INPUT] 0    0    [1    /1   ]  0.1687144            1
[INPUT] 1    0    [3    /1   ]  7.8682724         0.0689991
                                1.8812885         0.316424
                                0.5442493         0.7443083
[INPUT] 1    0    [1    /1   ]  0.1687144            1
[INPUT] 2    0    [1    /1   ]  0.8                  1

nuclear repulsion = 326.446241199013
number of shells = 75
number of NR pGTOs = 266
number of NR cGTOs = 153
basis = 6-31gss
ecp = {}
bas 0, expnt(s) = [3047.5249    457.36951   103.94869    29.210155    9.286663    3.163927]
bas 1, expnt(s) = [7.8682724 1.8812885 0.5442493]
bas 2, expnt(s) = [0.1687144]
bas 3, expnt(s) = [7.8682724 1.8812885 0.5442493]
bas 4, expnt(s) = [0.1687144]
bas 5, expnt(s) = [0.8]
bas 6, expnt(s) = [18.731137   2.8253937  0.6401217]
bas 7, expnt(s) = [0.1612778]
bas 8, expnt(s) = [1.1]
bas 9, expnt(s) = [18.731137   2.8253937  0.6401217]
bas 10, expnt(s) = [0.1612778]
bas 11, expnt(s) = [1.1]
bas 12, expnt(s) = [5484.6717     825.23495    188.04696     52.9645      16.89757
    5.7996353]
bas 13, expnt(s) = [15.539616   3.5999336  1.0137618]
bas 14, expnt(s) = [0.2700058]
bas 15, expnt(s) = [15.539616   3.5999336  1.0137618]
bas 16, expnt(s) = [0.2700058]
bas 17, expnt(s) = [0.8]
bas 18, expnt(s) = [18.731137   2.8253937  0.6401217]
bas 19, expnt(s) = [0.1612778]
bas 20, expnt(s) = [1.1]
bas 21, expnt(s) = [3047.5249    457.36951   103.94869    29.210155    9.286663    3.163927]
bas 22, expnt(s) = [7.8682724 1.8812885 0.5442493]
bas 23, expnt(s) = [0.1687144]
bas 24, expnt(s) = [7.8682724 1.8812885 0.5442493]
bas 25, expnt(s) = [0.1687144]
bas 26, expnt(s) = [0.8]
bas 27, expnt(s) = [18.731137   2.8253937  0.6401217]
bas 28, expnt(s) = [0.1612778]
bas 29, expnt(s) = [1.1]
bas 30, expnt(s) = [3047.5249    457.36951   103.94869    29.210155    9.286663    3.163927]
bas 31, expnt(s) = [7.8682724 1.8812885 0.5442493]
bas 32, expnt(s) = [0.1687144]
bas 33, expnt(s) = [7.8682724 1.8812885 0.5442493]
bas 34, expnt(s) = [0.1687144]
bas 35, expnt(s) = [0.8]
bas 36, expnt(s) = [18.731137   2.8253937  0.6401217]
bas 37, expnt(s) = [0.1612778]
bas 38, expnt(s) = [1.1]
bas 39, expnt(s) = [18.731137   2.8253937  0.6401217]
bas 40, expnt(s) = [0.1612778]
bas 41, expnt(s) = [1.1]
bas 42, expnt(s) = [7001.71309   1051.36609    239.28569     67.3974453   21.5199573
    7.4031013]
bas 43, expnt(s) = [20.8479528   4.80830834  1.34406986]
bas 44, expnt(s) = [0.35815139]
bas 45, expnt(s) = [20.8479528   4.80830834  1.34406986]
bas 46, expnt(s) = [0.35815139]
bas 47, expnt(s) = [0.8]
bas 48, expnt(s) = [3047.5249    457.36951   103.94869    29.210155    9.286663    3.163927]
bas 49, expnt(s) = [7.8682724 1.8812885 0.5442493]
bas 50, expnt(s) = [0.1687144]
bas 51, expnt(s) = [7.8682724 1.8812885 0.5442493]
bas 52, expnt(s) = [0.1687144]
bas 53, expnt(s) = [0.8]
bas 54, expnt(s) = [18.731137   2.8253937  0.6401217]
bas 55, expnt(s) = [0.1612778]
bas 56, expnt(s) = [1.1]
bas 57, expnt(s) = [3047.5249    457.36951   103.94869    29.210155    9.286663    3.163927]
bas 58, expnt(s) = [7.8682724 1.8812885 0.5442493]
bas 59, expnt(s) = [0.1687144]
bas 60, expnt(s) = [7.8682724 1.8812885 0.5442493]
bas 61, expnt(s) = [0.1687144]
bas 62, expnt(s) = [0.8]
bas 63, expnt(s) = [18.731137   2.8253937  0.6401217]
bas 64, expnt(s) = [0.1612778]
bas 65, expnt(s) = [1.1]
bas 66, expnt(s) = [18.731137   2.8253937  0.6401217]
bas 67, expnt(s) = [0.1612778]
bas 68, expnt(s) = [1.1]
bas 69, expnt(s) = [18.731137   2.8253937  0.6401217]
bas 70, expnt(s) = [0.1612778]
bas 71, expnt(s) = [1.1]
bas 72, expnt(s) = [18.731137   2.8253937  0.6401217]
bas 73, expnt(s) = [0.1612778]
bas 74, expnt(s) = [1.1]
CPU time:         0.65
arg.atm = [[ 6 20  1 23  0  0]
 [ 1 24  1 27  0  0]
 [ 1 28  1 31  0  0]
 [ 8 32  1 35  0  0]
 [ 1 36  1 39  0  0]
 [ 6 40  1 43  0  0]
 [ 1 44  1 47  0  0]
 [ 6 48  1 51  0  0]
 [ 1 52  1 55  0  0]
 [ 1 56  1 59  0  0]
 [ 9 60  1 63  0  0]
 [ 6 64  1 67  0  0]
 [ 1 68  1 71  0  0]
 [ 6 72  1 75  0  0]
 [ 1 76  1 79  0  0]
 [ 1 80  1 83  0  0]
 [ 1 84  1 87  0  0]
 [ 1 88  1 91  0  0]]
arg.bas = [[  0   0   6   1   0 162 168   0]
 [  0   0   3   1   0 174 177   0]
 [  0   0   1   1   0 180 181   0]
 [  0   1   3   1   0 182 185   0]
 [  0   1   1   1   0 188 189   0]
 [  0   2   1   1   0 190 191   0]
 [  1   0   3   1   0  92  95   0]
 [  1   0   1   1   0  98  99   0]
 [  1   1   1   1   0 100 101   0]
 [  2   0   3   1   0  92  95   0]
 [  2   0   1   1   0  98  99   0]
 [  2   1   1   1   0 100 101   0]
 [  3   0   6   1   0 102 108   0]
 [  3   0   3   1   0 114 117   0]
 [  3   0   1   1   0 120 121   0]
 [  3   1   3   1   0 122 125   0]
 [  3   1   1   1   0 128 129   0]
 [  3   2   1   1   0 130 131   0]
 [  4   0   3   1   0  92  95   0]
 [  4   0   1   1   0  98  99   0]
 [  4   1   1   1   0 100 101   0]
 [  5   0   6   1   0 162 168   0]
 [  5   0   3   1   0 174 177   0]
 [  5   0   1   1   0 180 181   0]
 [  5   1   3   1   0 182 185   0]
 [  5   1   1   1   0 188 189   0]
 [  5   2   1   1   0 190 191   0]
 [  6   0   3   1   0  92  95   0]
 [  6   0   1   1   0  98  99   0]
 [  6   1   1   1   0 100 101   0]
 [  7   0   6   1   0 162 168   0]
 [  7   0   3   1   0 174 177   0]
 [  7   0   1   1   0 180 181   0]
 [  7   1   3   1   0 182 185   0]
 [  7   1   1   1   0 188 189   0]
 [  7   2   1   1   0 190 191   0]
 [  8   0   3   1   0  92  95   0]
 [  8   0   1   1   0  98  99   0]
 [  8   1   1   1   0 100 101   0]
 [  9   0   3   1   0  92  95   0]
 [  9   0   1   1   0  98  99   0]
 [  9   1   1   1   0 100 101   0]
 [ 10   0   6   1   0 132 138   0]
 [ 10   0   3   1   0 144 147   0]
 [ 10   0   1   1   0 150 151   0]
 [ 10   1   3   1   0 152 155   0]
 [ 10   1   1   1   0 158 159   0]
 [ 10   2   1   1   0 160 161   0]
 [ 11   0   6   1   0 162 168   0]
 [ 11   0   3   1   0 174 177   0]
 [ 11   0   1   1   0 180 181   0]
 [ 11   1   3   1   0 182 185   0]
 [ 11   1   1   1   0 188 189   0]
 [ 11   2   1   1   0 190 191   0]
 [ 12   0   3   1   0  92  95   0]
 [ 12   0   1   1   0  98  99   0]
 [ 12   1   1   1   0 100 101   0]
 [ 13   0   6   1   0 162 168   0]
 [ 13   0   3   1   0 174 177   0]
 [ 13   0   1   1   0 180 181   0]
 [ 13   1   3   1   0 182 185   0]
 [ 13   1   1   1   0 188 189   0]
 [ 13   2   1   1   0 190 191   0]
 [ 14   0   3   1   0  92  95   0]
 [ 14   0   1   1   0  98  99   0]
 [ 14   1   1   1   0 100 101   0]
 [ 15   0   3   1   0  92  95   0]
 [ 15   0   1   1   0  98  99   0]
 [ 15   1   1   1   0 100 101   0]
 [ 16   0   3   1   0  92  95   0]
 [ 16   0   1   1   0  98  99   0]
 [ 16   1   1   1   0 100 101   0]
 [ 17   0   3   1   0  92  95   0]
 [ 17   0   1   1   0  98  99   0]
 [ 17   1   1   1   0 100 101   0]]
arg.env = [ 1.37036000e+02  0.00000000e+00  0.00000000e+00  0.00000000e+00
  0.00000000e+00  0.00000000e+00  0.00000000e+00  0.00000000e+00
  0.00000000e+00  0.00000000e+00  0.00000000e+00  0.00000000e+00
  0.00000000e+00  0.00000000e+00  0.00000000e+00  0.00000000e+00
  0.00000000e+00  0.00000000e+00  0.00000000e+00  0.00000000e+00
 -1.36839660e+01  2.04316641e-01 -9.87954204e-01  0.00000000e+00
 -1.42636548e+01  2.14029551e+00 -9.21179276e-01  0.00000000e+00
 -1.44336303e+01 -6.66724762e-01 -2.65162558e+00  0.00000000e+00
 -1.46059743e+01 -1.08798408e+00  1.19889970e+00  0.00000000e+00
 -1.64176355e+01 -1.00008471e+00  1.23426789e+00  0.00000000e+00
 -1.07777596e+01  6.33113999e-02 -1.04469066e+00  0.00000000e+00
 -1.00280953e+01  9.34352821e-01  6.18980718e-01  0.00000000e+00
 -9.78482756e+00  1.45501988e+00 -3.39976409e+00  0.00000000e+00
 -1.03645163e+01  3.39099875e+00 -3.33298916e+00  0.00000000e+00
 -1.05344918e+01  5.83978455e-01 -5.06343547e+00  0.00000000e+00
 -1.00463766e+01 -2.37927876e+00 -1.12893939e+00  0.00000000e+00
 -5.88568911e+00  2.70572311e+00 -5.81157398e+00  0.00000000e+00
 -6.46537783e+00  4.64170198e+00 -5.74479905e+00  0.00000000e+00
 -6.87862114e+00  1.31401464e+00 -3.45650055e+00  0.00000000e+00
 -6.29893240e+00 -6.21964255e-01 -3.52327546e+00  0.00000000e+00
 -6.12895687e+00  2.18505604e+00 -1.79282917e+00  0.00000000e+00
 -6.63535337e+00  1.83468169e+00 -7.47524536e+00  0.00000000e+00
 -3.86644179e+00  2.60775192e+00 -5.85099476e+00  0.00000000e+00
  1.87311370e+01  2.82539370e+00  6.40121700e-01  7.61926220e-01
  1.29237100e+00  1.47131900e+00  1.61277800e-01  6.42977783e-01
  1.10000000e+00  3.28643653e+00  5.48467170e+03  8.25234950e+02
  1.88046960e+02  5.29645000e+01  1.68975700e+01  5.79963530e+00
  2.94842455e+00  5.42657124e+00  8.78126489e+00  1.15432129e+01
  9.90055015e+00  3.38516599e+00  1.55396160e+01  3.59993360e+00
  1.01376180e+00 -2.19051792e+00 -9.77405528e-01  2.88629094e+00
  2.70005800e-01  9.46334873e-01  1.55396160e+01  3.59993360e+00
  1.01376180e+00  6.37930734e+00  4.91490975e+00  2.15791055e+00
  2.70005800e-01  5.67807022e-01  8.00000000e-01  1.76578110e+00
  7.00171309e+03  1.05136609e+03  2.39285690e+02  6.73974453e+01
  2.15199573e+01  7.40310130e+00  3.51882946e+00  6.49153500e+00
  1.05145933e+01  1.38579703e+01  1.18963440e+01  4.04370270e+00
  2.08479528e+01  4.80830834e+00  1.34406986e+00 -2.67467022e+00
 -1.20144405e+00  3.55963557e+00  3.58151393e-01  1.16967446e+00
  2.08479528e+01  4.80830834e+00  1.34406986e+00  9.30895386e+00
  7.18522772e+00  3.05022227e+00  3.58151393e-01  8.08290917e-01
  8.00000000e-01  1.76578110e+00  3.04752490e+03  4.57369510e+02
  1.03948690e+02  2.92101550e+01  9.28666300e+00  3.16392700e+00
  1.90125588e+00  3.50751108e+00  5.66221808e+00  7.37052623e+00
  6.28928397e+00  2.17153894e+00  7.86827240e+00  1.88128850e+00
  5.44249300e-01 -1.41639039e+00 -6.52813326e-01  1.83055623e+00
  1.68714400e-01  6.65088040e-01  7.86827240e+00  1.88128850e+00
  5.44249300e-01  2.65263212e+00  2.03386926e+00  1.01504332e+00
  1.68714400e-01  3.15445679e-01  8.00000000e-01  1.76578110e+00]
ecpbas  = []


******** <class 'pyscf.qmmm.itrf.mm_charge.<locals>.QMMM'> ********
method = QMMM-RHF
initial guess = minao
damping factor = 0
level shift factor = 0
DIIS = <class 'pyscf.scf.diis.CDIIS'>
DIIS start cycle = 1
DIIS space = 8
SCF tol = 1e-09
SCF gradient tol = None
max. SCF cycles = 50
direct_scf = True
direct_scf_tol = 1e-13
chkfile to save SCF result = /home/liwei01/wsr/dftpart/test_2body/c8b/tmpiah4byl4
max_memory 4000 MB (current use 74 MB)
** Add background charges for <class 'pyscf.scf.hf.RHF'> **
Charge      Location
-0.197682    [-2.97948267  2.56471785 -5.86831044]
0.207616    [-2.39979393  0.62873898 -5.93508535]
0.179451    [-2.22981842  3.43575927 -4.20463906]
-0.928603    [-2.03168392  3.89316686 -8.11633506]
0.372877    [-2.57344909  5.7024929  -8.05392859]
0.377418    [-0.14453687  3.80160502 -8.15317693]
Set gradient conv threshold to 3.16228e-05
Nelec from initial guess = 57.95353803072303
cond(S) = 1845.0277072640297
E1 = -1147.1780894697456  E_coul = 449.53450716729975
init E= -371.701269931999
    CPU time for initialize scf      7.25 sec, wall time      0.93 sec
  HOMO = -0.334942774323383  LUMO = 0.114159139773592
  mo_energy =
[-26.49155574 -20.79853001 -11.43594244 -11.43309143 -11.43119078
 -11.42713536 -11.40373523  -1.93047375  -1.7049523   -1.57676872
  -1.33514466  -1.14473047  -0.96895439  -0.94750266  -0.78249463
  -0.75680564  -0.70663428  -0.6914771   -0.63458855  -0.59932589
  -0.55441378  -0.51880949  -0.48110399  -0.46556409  -0.40422088
  -0.40277467  -0.3876262   -0.37087758  -0.33494277   0.11415914
   0.15409445   0.16967887   0.18176639   0.21067526   0.22375795
   0.24286808   0.24969161   0.26347266   0.27703093   0.28944032
   0.30012666   0.3082649    0.32182113   0.32619197   0.35685467
   0.37212662   0.62831999   0.65842479   0.67483106   0.68893353
   0.707966     0.71116451   0.75037424   0.76949023   0.78748157
   0.81424895   0.84762466   0.86410927   0.91610108   0.94335564
   0.96259708   1.00379166   1.02743114   1.04359428   1.05522626
   1.06679399   1.08017796   1.10094985   1.10444973   1.1120766
   1.1377869    1.14966231   1.16582657   1.1787257    1.24437019
   1.35420145   1.38859903   1.4287178    1.46147554   1.5044945
   1.53016094   1.5719498    1.59889095   1.60200523   1.62098974
   1.72268039   1.76007433   1.77394022   1.79510524   1.82618624
   1.87305552   1.88177648   1.91693205   1.97321143   2.00714804
   2.04541982   2.06699793   2.08562641   2.15205577   2.16117617
   2.1784561    2.20562533   2.24268973   2.29050054   2.30681052
   2.32160315   2.33340049   2.34345117   2.36984726   2.40426092
   2.41470587   2.44214083   2.48829737   2.51387815   2.53010768
   2.543353     2.55756662   2.59755072   2.60949251   2.65691153
   2.68013291   2.74197612   2.76717676   2.81723341   2.88672102
   2.91298392   2.92289975   2.95088145   2.96605322   2.99558504
   3.01299813   3.05590056   3.06750961   3.11554258   3.1474594
   3.15408971   3.17988985   3.22448764   3.22959512   3.2405747
   3.28384226   3.41427307   3.54229142   3.58895714   3.60444106
   3.63408532   3.67602611   3.72140304   3.80523919   3.82147073
   3.84639875   3.8823014    3.89006044]
E1 = -1155.8433997921677  E_coul = 459.8999450230017
cycle= 1 E= -370.001142398719  delta_E=  1.7  |g|= 0.691  |ddm|= 3.47
    CPU time for cycle= 1      0.70 sec, wall time      0.09 sec
diis-norm(errvec)=1.32748
diis-c [-1.76219836  1.        ]
  HOMO = -0.386807717478428  LUMO = 0.215797647439185
  mo_energy =
[-26.05592334 -20.32995969 -11.40450467 -11.34442163 -11.20353318
 -11.16546199 -11.12872919  -1.51768076  -1.29239215  -1.08685329
  -1.00875201  -0.91786618  -0.83442868  -0.79616966  -0.70180673
  -0.67449654  -0.62973418  -0.62474313  -0.59702534  -0.59401856
  -0.53421883  -0.5267454   -0.49071271  -0.47685581  -0.46221162
  -0.45051132  -0.44417859  -0.40681944  -0.38680772   0.21579765
   0.23365471   0.25809083   0.26103532   0.29485333   0.31789515
   0.32199334   0.3428533    0.34627265   0.36046931   0.36518488
   0.37139899   0.38748121   0.41542474   0.44934122   0.45975464
   0.49157538   0.71728101   0.73254323   0.75813192   0.770817
   0.78700573   0.80435152   0.83274747   0.86115326   0.88213879
   0.93571142   0.95183431   0.97499794   1.01001059   1.04960206
   1.06300677   1.08823281   1.1244291    1.14385203   1.15077479
   1.16027069   1.18333667   1.19804642   1.20532104   1.21732724
   1.23766143   1.2804203    1.28686181   1.34578879   1.37985089
   1.46442642   1.5205933    1.53733133   1.55601804   1.62661844
   1.65314633   1.6979517    1.71596168   1.76247821   1.78225159
   1.8335983    1.86888666   1.89081241   1.91181828   1.92194138
   1.97928128   1.99783727   2.05227606   2.08008665   2.11761659
   2.15797384   2.18295631   2.21419803   2.27689376   2.29563091
   2.30246087   2.33379117   2.36435037   2.38565995   2.39038084
   2.41920454   2.42356043   2.44159392   2.4607835    2.50993525
   2.51277671   2.52564859   2.5749876    2.60674612   2.62881478
   2.64295858   2.65481192   2.67414234   2.70205041   2.75334272
   2.80025662   2.83605143   2.87062131   2.89746523   2.96347371
   2.99989612   3.01575599   3.04208198   3.06616277   3.0798487
   3.10860969   3.15015247   3.16934886   3.2052819    3.24006937
   3.2535151    3.27184849   3.32021275   3.32959653   3.34978762
   3.37336261   3.54812175   3.64248043   3.65966145   3.69609286
   3.73162284   3.79262075   3.81719654   3.87599186   3.92189452
   3.94616588   3.99266163   4.01491079]
E1 = -1153.4620277785043  E_coul = 457.42737796016405
cycle= 2 E= -370.092337447893  delta_E= -0.0912  |g|= 0.354  |ddm|= 0.672
    CPU time for cycle= 2      0.68 sec, wall time      0.09 sec
diis-norm(errvec)=0.621127
diis-c [-0.20140667  0.25579486  0.74420514]
  HOMO = -0.414824873989111  LUMO = 0.222874059316482
  mo_energy =
[-26.30851005 -20.60679081 -11.28043189 -11.25425808 -11.21024952
 -11.20489572 -11.17263309  -1.59703855  -1.36332048  -1.07552987
  -1.00374976  -0.91137697  -0.83033707  -0.80016756  -0.71710823
  -0.70397137  -0.66513469  -0.65359303  -0.62210657  -0.61145806
  -0.56156282  -0.54019381  -0.52782576  -0.50604143  -0.47463862
  -0.47353674  -0.45976332  -0.45137847  -0.41482487   0.22287406
   0.23930228   0.26569245   0.27404266   0.30422158   0.32340088
   0.33532271   0.34730777   0.34843672   0.36394573   0.37033486
   0.37946568   0.39823787   0.43193868   0.45786213   0.47101024
   0.49139494   0.71922977   0.74133243   0.7556568    0.76961043
   0.80003619   0.81611253   0.84262199   0.86375304   0.90634526
   0.9395694    0.95696906   0.96840084   1.01550125   1.04909881
   1.06402219   1.10462394   1.1317773    1.14943766   1.1564862
   1.17678468   1.18429466   1.20243674   1.20367999   1.22103816
   1.23467071   1.25132338   1.27722601   1.2849104    1.34374513
   1.45391031   1.50053844   1.53146996   1.55847426   1.60661527
   1.63160517   1.68184115   1.70199983   1.71637914   1.71757574
   1.82442438   1.85288854   1.87033303   1.89197688   1.92165382
   1.98014612   1.98875079   2.03360654   2.07372756   2.12572611
   2.15758609   2.18090451   2.20487126   2.26133166   2.27369687
   2.29166219   2.31909007   2.36042381   2.38978368   2.39734142
   2.42013034   2.43522753   2.44493063   2.4661102    2.50789225
   2.5151896    2.54019794   2.57850887   2.60874402   2.63032108
   2.64025383   2.65562777   2.6879393    2.70498389   2.75312014
   2.77698743   2.8389242    2.86672288   2.90397342   2.97548511
   2.99218902   3.0242491    3.03964955   3.07311951   3.09007652
   3.11319655   3.15557493   3.17656179   3.21769604   3.24618608
   3.2612754    3.27602455   3.32206317   3.33545052   3.34315334
   3.38069778   3.5323348    3.6569951    3.69095286   3.71059929
   3.74473095   3.79287393   3.82788349   3.88341836   3.92501323
   3.95502444   3.98652072   4.00868897]
E1 = -1154.649084326167  E_coul = 458.5925600524177
cycle= 3 E= -370.114211903302  delta_E= -0.0219  |g|= 0.0899  |ddm|=  0.3
    CPU time for cycle= 3      0.66 sec, wall time      0.08 sec
diis-norm(errvec)=0.163549
diis-c [-0.00674418 -0.08821985  0.0763845   1.01183535]
  HOMO = -0.420468981807904  LUMO = 0.22847863540663
  mo_energy =
[-26.25704072 -20.54516467 -11.29348784 -11.26974814 -11.2156449
 -11.20368615 -11.17157339  -1.58398697  -1.34375213  -1.07674119
  -1.00317706  -0.91002395  -0.82689059  -0.79795629  -0.71266486
  -0.69570406  -0.65550538  -0.64740902  -0.62015179  -0.60769098
  -0.55697971  -0.53607266  -0.52682015  -0.50594524  -0.47476352
  -0.47305575  -0.4614814   -0.44181336  -0.42046898   0.22847864
   0.24117039   0.26767582   0.27406713   0.30535991   0.32504775
   0.33675469   0.34882751   0.34959554   0.36580703   0.37252191
   0.38034101   0.39894159   0.4318693    0.4596464    0.47017394
   0.49385915   0.71923091   0.73980948   0.75634086   0.76931527
   0.79830149   0.81517253   0.84175832   0.86323786   0.90281009
   0.93814373   0.95698767   0.96789084   1.01634449   1.05494138
   1.06449144   1.105873     1.13347341   1.15089826   1.15840851
   1.17725098   1.18530536   1.20441539   1.20542181   1.22276425
   1.23646503   1.25934086   1.28689446   1.29408098   1.3494041
   1.45807867   1.50418106   1.53251111   1.55963369   1.60916725
   1.63482141   1.68601112   1.70444827   1.7210164    1.72430159
   1.82805956   1.8625312    1.8769376    1.89890398   1.92138257
   1.98045866   1.99226278   2.03752148   2.07592737   2.12432894
   2.15993525   2.18026225   2.20632342   2.26768482   2.28079454
   2.293752     2.32138169   2.36274763   2.39547963   2.39983683
   2.42115539   2.43799089   2.44602565   2.46834377   2.51241084
   2.51668439   2.54090364   2.58184728   2.61270909   2.63369238
   2.64273234   2.65823509   2.68980509   2.70801349   2.75745851
   2.78492125   2.84203467   2.87052135   2.90779616   2.97951216
   3.00230452   3.02618205   3.04436143   3.07451032   3.09509001
   3.11584426   3.15688704   3.17830284   3.21869386   3.25026352
   3.26113812   3.27857793   3.32634734   3.33555782   3.34748269
   3.38346641   3.53497928   3.66058285   3.69080567   3.7132551
   3.74724314   3.79636412   3.83082428   3.89748819   3.92569477
   3.95665164   3.99127996   4.01198697]
E1 = -1154.4457297662104  E_coul = 458.38736051124135
cycle= 4 E= -370.116056884522  delta_E= -0.00184  |g|= 0.0107  |ddm|= 0.0748
    CPU time for cycle= 4      0.65 sec, wall time      0.08 sec
diis-norm(errvec)=0.0213235
diis-c [-2.59599716e-04 -1.26444652e-02 -1.87845777e-02  5.01329871e-02
  9.81296056e-01]
  HOMO = -0.419478232525865  LUMO = 0.227524630716215
  mo_energy =
[-26.26244074 -20.55097945 -11.29458835 -11.26896407 -11.20822058
 -11.20023054 -11.16795274  -1.58562891  -1.34640363  -1.07450079
  -1.00203296  -0.90887919  -0.82675395  -0.79638164  -0.71302108
  -0.69671552  -0.65664404  -0.64807835  -0.61915397  -0.60853756
  -0.5566961   -0.53582197  -0.52599067  -0.50538741  -0.47502608
  -0.47201832  -0.46048573  -0.44385795  -0.41947823   0.22752463
   0.24161069   0.26802481   0.27477908   0.3060423    0.32561388
   0.33698953   0.34955148   0.35033527   0.36635634   0.3730057
   0.38102879   0.39921799   0.4321967    0.46068635   0.47111856
   0.49453967   0.71989246   0.74040996   0.75712572   0.76997841
   0.79872157   0.81546925   0.84151508   0.86350643   0.90341278
   0.93939077   0.95723845   0.96968359   1.01697312   1.05512864
   1.06525185   1.10588764   1.13400035   1.15144586   1.15940706
   1.17731243   1.1861053    1.20564473   1.20680094   1.22395267
   1.23756106   1.25878232   1.28712393   1.29336205   1.34930556
   1.45774286   1.50472773   1.53273215   1.560116     1.60957522
   1.63514471   1.68646288   1.70487024   1.72094524   1.72382164
   1.82817394   1.86184668   1.87651686   1.89820705   1.92094913
   1.98208777   1.99360186   2.03787866   2.07608516   2.1249717
   2.160417     2.18107325   2.20792535   2.26692201   2.2799469
   2.29380733   2.32174018   2.3628847    2.39611423   2.39978908
   2.42124119   2.43857922   2.44706552   2.46905763   2.51332167
   2.51787335   2.54119372   2.58314394   2.61251355   2.63438383
   2.64392195   2.65930568   2.68951232   2.70842713   2.75775138
   2.78418117   2.84274141   2.87154445   2.9082061    2.97901707
   3.00124994   3.0270679    3.04425501   3.07558627   3.09411215
   3.11692598   3.15788157   3.17902088   3.2192455    3.25061574
   3.26175662   3.27928689   3.32753595   3.33646967   3.34851418
   3.38315286   3.53425558   3.66207832   3.69093602   3.71451675
   3.74837147   3.7978922    3.83165938   3.89561414   3.9256552
   3.95819856   3.99245137   4.01395092]
E1 = -1154.430080869978  E_coul = 458.3716728977958
cycle= 5 E= -370.116095601735  delta_E= -3.87e-05  |g|= 0.00303  |ddm|= 0.0167
    CPU time for cycle= 5      0.65 sec, wall time      0.08 sec
diis-norm(errvec)=0.00607414
diis-c [-2.44496265e-05  2.24585745e-03 -3.93914046e-03 -3.60045771e-02
  9.11793980e-02  9.46518462e-01]
  HOMO = -0.420358896203996  LUMO = 0.22746334844604
  mo_energy =
[-26.26172336 -20.55065447 -11.29409359 -11.26890743 -11.21108475
 -11.20219619 -11.16942328  -1.5853881   -1.34630369  -1.07529458
  -1.00244989  -0.90941247  -0.82684802  -0.79703573  -0.71298528
  -0.69671904  -0.65666024  -0.64810535  -0.61971014  -0.60854976
  -0.55715613  -0.53631027  -0.52660814  -0.50599186  -0.47526544
  -0.47264921  -0.46121942  -0.4439356   -0.4203589    0.22746335
   0.2413271    0.26778283   0.27456395   0.30582409   0.3254012
   0.33677585   0.34926442   0.35004764   0.36605275   0.37276502
   0.38069459   0.39900601   0.43199337   0.46014294   0.47071716
   0.49408607   0.71941962   0.73988813   0.75658412   0.76947065
   0.79839288   0.81514668   0.84138769   0.86320909   0.90294768
   0.938718     0.95689801   0.96875382   1.01647818   1.05463553
   1.06472093   1.10571882   1.1336102    1.15103505   1.15888112
   1.17710949   1.18574891   1.20502492   1.20618938   1.22332066
   1.23697677   1.2585261    1.28678909   1.29324306   1.34907523
   1.45753557   1.5045257    1.53242945   1.55969532   1.60925967
   1.63492172   1.68606197   1.70449569   1.72082138   1.7238155
   1.82777724   1.86163539   1.87626496   1.89799134   1.92089887
   1.98131337   1.99291502   2.03749975   2.07581937   2.12452034
   2.16003741   2.18057882   2.20711641   2.26681098   2.27988646
   2.29354736   2.32136895   2.36259424   2.3956852    2.39959661
   2.42105536   2.43816248   2.44653542   2.46861497   2.51275664
   2.51730025   2.54079198   2.58260241   2.61230789   2.63397537
   2.64334472   2.65874523   2.68944511   2.70805685   2.75742958
   2.78402987   2.84230186   2.87096234   2.90783178   2.97883779
   3.00104945   3.02655288   3.04394187   3.07500242   3.09401114
   3.11632267   3.15734589   3.17856167   3.21893707   3.25029756
   3.26137532   3.27888256   3.3268967    3.3359925    3.34796104
   3.38296562   3.53432278   3.66141264   3.69075829   3.71389331
   3.74780947   3.79718273   3.83117104   3.89559139   3.92548
   3.95748103   3.99181082   4.01308655]
E1 = -1154.434761600116  E_coul = 458.37635025224796
cycle= 6 E= -370.116098977421  delta_E= -3.38e-06  |g|= 0.000964  |ddm|= 0.00433
    CPU time for cycle= 6      0.67 sec, wall time      0.10 sec
diis-norm(errvec)=0.00190447
diis-c [-1.47718086e-06  1.49987470e-03  1.77630792e-03 -9.19327880e-03
 -8.68132260e-02  6.01771671e-02  1.03255316e+00]
  HOMO = -0.420302954030536  LUMO = 0.227481461442415
  mo_energy =
[-26.2620217  -20.55068235 -11.29416091 -11.26900371 -11.21060653
 -11.20174207 -11.16923786  -1.58557319  -1.34634001  -1.075176
  -1.00241423  -0.90934833  -0.82686086  -0.79694047  -0.71305595
  -0.69676794  -0.65673375  -0.64819445  -0.6196291   -0.60857775
  -0.55715497  -0.53628817  -0.52653687  -0.5059719   -0.47530227
  -0.47255748  -0.46114355  -0.44402355  -0.42030295   0.22748146
   0.24137301   0.26781971   0.2745995    0.30587104   0.32542755
   0.33681163   0.34930539   0.35008214   0.36607656   0.37280144
   0.38074204   0.39901603   0.43199012   0.46020896   0.47076846
   0.49413567   0.71947163   0.7399362    0.7566393    0.76949926
   0.79839602   0.81514451   0.84133305   0.86318869   0.90298614
   0.93879992   0.95691621   0.96888058   1.01652842   1.05470208
   1.06480561   1.10573459   1.13366813   1.15109089   1.15895217
   1.17713459   1.18578083   1.20510607   1.2062681    1.22342135
   1.23704156   1.25849607   1.28679207   1.29321412   1.34905519
   1.45752008   1.50449038   1.53242739   1.55972274   1.60926235
   1.63490131   1.68605428   1.70450929   1.72072815   1.72365489
   1.82780201   1.8616391    1.8762774    1.89799076   1.92083562
   1.98141145   1.99299529   2.03750001   2.07580734   2.12455468
   2.16004521   2.1806159    2.20722651   2.26678894   2.27984281
   2.29353159   2.32136915   2.3625866    2.39570283   2.39957086
   2.42102751   2.43819179   2.44659648   2.46865301   2.5127911
   2.51736325   2.54082545   2.58267546   2.61229925   2.63400894
   2.64340908   2.65880337   2.68940723   2.70808831   2.75744568
   2.78401089   2.84234585   2.87102003   2.90786301   2.97884607
   3.00108275   3.02662262   3.04397004   3.07505976   3.09401964
   3.11639184   3.15740966   3.17860316   3.21894861   3.25032067
   3.26139654   3.27891833   3.32695634   3.33603736   3.34802122
   3.38295947   3.53420814   3.66149949   3.69076168   3.71397039
   3.74788165   3.79728997   3.83122671   3.89559537   3.92547483
   3.95756896   3.99185378   4.01322452]
E1 = -1154.4327392428042  E_coul = 458.3743274584856
cycle= 7 E= -370.116099413871  delta_E= -4.36e-07  |g|= 0.000232  |ddm|= 0.00184
    CPU time for cycle= 7      0.66 sec, wall time      0.08 sec
diis-norm(errvec)=0.000452297
diis-c [-8.34407783e-08 -3.22592442e-04  5.03530391e-05  3.01628386e-03
  8.86653090e-03 -7.17476619e-02 -1.65913819e-01  1.22605091e+00]
  HOMO = -0.420297051554125  LUMO = 0.227483310498864
  mo_energy =
[-26.26195812 -20.55065408 -11.29412707 -11.26892554 -11.21060348
 -11.20178957 -11.1691952   -1.58556896  -1.34633269  -1.07517888
  -1.00240505  -0.90933905  -0.82684599  -0.79694212  -0.71304223
  -0.69675657  -0.6567274   -0.64818442  -0.61962408  -0.60855793
  -0.55715415  -0.5362804   -0.52652929  -0.50597153  -0.47528769
  -0.47255328  -0.46113904  -0.4440272   -0.42029705   0.22748331
   0.2413754    0.2678253    0.27460877   0.30587841   0.32543558
   0.33681861   0.3493119    0.35008833   0.36608351   0.37281591
   0.38075159   0.3990266    0.43200592   0.46021694   0.47077913
   0.49414676   0.71947872   0.73994638   0.75664707   0.76951087
   0.79841234   0.81515964   0.84134874   0.86320538   0.90300162
   0.93880622   0.95692691   0.96888347   1.01653952   1.05470053
   1.06481663   1.10575146   1.13367683   1.15110126   1.15895894
   1.17715024   1.18579198   1.20511322   1.20628035   1.22342744
   1.23704815   1.25849448   1.28680314   1.29321895   1.34905638
   1.45752862   1.50448642   1.53243929   1.55973146   1.6092676
   1.63491187   1.6860551    1.70451797   1.72072404   1.72364179
   1.82781268   1.86164326   1.87627997   1.89799428   1.92085065
   1.98141507   1.99299847   2.03750646   2.07581423   2.124565
   2.16005297   2.18062705   2.2072243    2.26679902   2.27985341
   2.29354212   2.32137483   2.36260063   2.39571651   2.39958042
   2.4210455    2.43820984   2.44660188   2.46866695   2.51280619
   2.51737032   2.5408372    2.58267816   2.6123085    2.63401489
   2.64341389   2.65881025   2.68942706   2.70809842   2.75745466
   2.78401698   2.84235335   2.87102608   2.90787516   2.97885675
   3.00108523   3.02662879   3.04397895   3.07507209   3.09403485
   3.11640213   3.15741869   3.17861397   3.21896203   3.25033142
   3.26141109   3.27893043   3.32696621   3.33604938   3.3480284
   3.38297687   3.53421427   3.66150789   3.69078606   3.71398639
   3.74789347   3.79729091   3.83124104   3.89560539   3.9254998
   3.95758367   3.99187116   4.01322318]
E1 = -1154.4322985393621  E_coul = 458.37388672450885
cycle= 8 E= -370.116099444406  delta_E= -3.05e-08  |g|= 5.55e-05  |ddm|= 0.000483
    CPU time for cycle= 8      0.65 sec, wall time      0.08 sec
diis-norm(errvec)=0.00010492
diis-c [-5.39130931e-09 -1.25770489e-04 -9.24561580e-05  8.81367044e-04
  6.46346841e-03 -1.31236622e-02 -7.66168159e-02  1.39418899e-01
  9.43194970e-01]
  HOMO = -0.42030035999008  LUMO = 0.227480570542564
  mo_energy =
[-26.26199216 -20.55065617 -11.29413114 -11.2689574  -11.2106215
 -11.20177073 -11.16922246  -1.58558626  -1.34633885  -1.075182
  -1.00241035  -0.90934608  -0.82685236  -0.7969421   -0.71305088
  -0.69676505  -0.65673672  -0.64819483  -0.61962563  -0.6085653
  -0.55715963  -0.53628555  -0.52653537  -0.50597663  -0.47529339
  -0.47255205  -0.46113983  -0.44403293  -0.42030036   0.22748057
   0.24137456   0.26782369   0.27460677   0.30587833   0.32543413
   0.33681643   0.34931116   0.35008749   0.36608247   0.37281264
   0.3807485    0.39902387   0.43200055   0.46021395   0.47077454
   0.49414383   0.71947721   0.73994379   0.75664513   0.76950657
   0.798407     0.81515372   0.84134101   0.86319826   0.90299531
   0.93880436   0.9569233    0.96888111   1.01653553   1.05470021
   1.06481224   1.10574821   1.13367538   1.15109863   1.15895874
   1.17714477   1.18579033   1.20511048   1.20627543   1.22342511
   1.23704592   1.25849123   1.28679973   1.29321742   1.3490528
   1.45752346   1.50448188   1.53243274   1.55972651   1.60926431
   1.63490642   1.68604958   1.7045133    1.72071529   1.72363014
   1.82780654   1.86164051   1.87627786   1.89799118   1.92084269
   1.98141189   1.99299887   2.03750125   2.075809     2.12455954
   2.16004721   2.18062194   2.20722398   2.2667933    2.27984697
   2.29353548   2.32136785   2.3625938    2.39571268   2.39957403
   2.42104053   2.43820412   2.44660022   2.46866334   2.51280111
   2.51736849   2.5408314    2.58268051   2.61230289   2.6340127
   2.64341202   2.65880744   2.68942181   2.70809608   2.75745264
   2.78401364   2.842352     2.87102517   2.90787235   2.97885302
   3.00108359   3.02662794   3.04397595   3.07506773   3.09402898
   3.11639846   3.1574167    3.17861046   3.21895935   3.25032941
   3.26140595   3.2789284    3.32696347   3.33604488   3.34802774
   3.3829705    3.53420486   3.66150684   3.69077975   3.71398029
   3.74789123   3.79729254   3.83123766   3.8956017    3.92549303
   3.95757846   3.99186504   4.01322594]
E1 = -1154.4324991920935  E_coul = 458.37408737602425
cycle= 9 E= -370.116099445622  delta_E= -1.22e-09  |g|= 1.45e-05  |ddm|= 8.52e-05
    CPU time for cycle= 9      0.65 sec, wall time      0.08 sec
diis-norm(errvec)=2.75364e-05
diis-c [-4.28460028e-10  9.84553296e-01 -9.17731923e-06 -2.47850636e-05
  2.36452032e-04  2.53063297e-03  1.70397684e-03 -6.08634624e-02
  7.18730664e-02]
  HOMO = -0.420298545301837  LUMO = 0.227481008713147
  mo_energy =
[-26.26198425 -20.55065699 -11.29413084 -11.2689493  -11.21061979
 -11.20177486 -11.16921687  -1.58558405  -1.34633783  -1.07518111
  -1.00240885  -0.90934418  -0.82685046  -0.79694145  -0.7130492
  -0.69676364  -0.65673526  -0.64819255  -0.61962492  -0.60856309
  -0.55715859  -0.5362841   -0.52653435  -0.5059755   -0.47529201
  -0.47255151  -0.46113884  -0.44403167  -0.42029855   0.22748101
   0.24137483   0.26782426   0.27460717   0.30587855   0.32543476
   0.33681708   0.34931163   0.35008785   0.36608303   0.37281343
   0.38074912   0.39902445   0.43200149   0.46021479   0.47077549
   0.49414481   0.71947789   0.7399448    0.7566461    0.76950772
   0.79840837   0.81515474   0.84134204   0.86319962   0.90299687
   0.93880497   0.95692416   0.9688822    1.01653641   1.05470024
   1.06481292   1.105749     1.13367593   1.15109939   1.15895926
   1.17714666   1.18579081   1.20511121   1.20627654   1.22342578
   1.23704687   1.25849181   1.28680066   1.29321794   1.34905365
   1.45752419   1.50448312   1.53243423   1.55972761   1.60926518
   1.63490749   1.68605081   1.70451446   1.72071668   1.72363172
   1.82780784   1.86164113   1.87627852   1.89799188   1.92084411
   1.98141256   1.99299968   2.03750218   2.0758101    2.12456054
   2.16004816   2.1806232    2.20722435   2.26679458   2.27984838
   2.29353699   2.32136917   2.3625952    2.39571394   2.39957532
   2.42104147   2.43820584   2.44660093   2.46866457   2.51280255
   2.51736909   2.54083269   2.58268067   2.61230395   2.63401337
   2.64341277   2.65880818   2.68942302   2.70809667   2.75745336
   2.78401418   2.84235267   2.87102588   2.90787296   2.97885389
   3.00108387   3.02662856   3.04397666   3.07506882   3.09403084
   3.11639943   3.15741721   3.1786115    3.21895994   3.25033031
   3.26140704   3.27892906   3.32696462   3.33604566   3.34802861
   3.38297194   3.53420599   3.66150742   3.69078169   3.71398164
   3.74789206   3.79729276   3.83123871   3.89560232   3.92549473
   3.95757941   3.99186654   4.01322604]
E1 = -1154.432479225703  E_coul = 458.3740674095421
cycle= 10 E= -370.116099445714  delta_E= -9.17e-11  |g|= 4.28e-06  |ddm|= 2.48e-05
    CPU time for cycle= 10      0.70 sec, wall time      0.10 sec
  HOMO = -0.420298176588917  LUMO = 0.227480918980855
  mo_energy =
[-26.26198718 -20.55065561 -11.29412972 -11.26895006 -11.21061913
 -11.20177366 -11.16921715  -1.58558481  -1.34633738  -1.07518073
  -1.00240859  -0.90934398  -0.82685043  -0.79694112  -0.71304946
  -0.69676376  -0.65673552  -0.64819281  -0.6196248   -0.60856315
  -0.55715848  -0.53628386  -0.52653429  -0.50597537  -0.47529191
  -0.47255132  -0.46113859  -0.44403115  -0.42029818   0.22748092
   0.24137491   0.26782434   0.27460727   0.30587863   0.32543483
   0.33681711   0.34931173   0.350088     0.36608317   0.37281355
   0.38074916   0.39902454   0.43200164   0.46021502   0.47077569
   0.49414506   0.71947808   0.73994498   0.75664623   0.7695079
   0.79840849   0.81515489   0.84134213   0.86319976   0.90299704
   0.93880531   0.95692438   0.9688825    1.01653659   1.05470045
   1.06481301   1.10574909   1.1336761    1.15109951   1.15895949
   1.17714663   1.18579102   1.20511138   1.2062766    1.22342593
   1.23704706   1.25849222   1.28680084   1.29321829   1.34905383
   1.45752435   1.504483     1.5324343    1.55972774   1.60926534
   1.63490758   1.68605076   1.7045146    1.72071644   1.72363124
   1.82780801   1.86164131   1.87627873   1.89799205   1.92084412
   1.98141275   1.99299987   2.03750239   2.07581014   2.12456081
   2.16004825   2.18062334   2.20722461   2.26679469   2.27984846
   2.29353703   2.32136917   2.3625953    2.39571395   2.39957532
   2.42104156   2.43820581   2.44660107   2.46866463   2.51280261
   2.51736927   2.54083275   2.58268085   2.6123039    2.63401343
   2.6434129    2.6588083    2.68942306   2.70809683   2.75745351
   2.78401426   2.84235282   2.87102607   2.90787308   2.9788539
   3.00108385   3.02662876   3.04397676   3.07506903   3.09403083
   3.11639955   3.15741743   3.17861166   3.21896011   3.25033044
   3.26140721   3.27892921   3.32696476   3.33604584   3.34802878
   3.38297199   3.53420591   3.66150762   3.69078166   3.7139817
   3.74789224   3.79729298   3.83123885   3.89560226   3.92549473
   3.95757958   3.99186663   4.01322635]
E1 = -1154.4324788485578  E_coul = 458.3740670323887
Extra cycle  E= -370.116099445722  delta_E= -8.19e-12  |g|= 1.98e-06  |ddm|= 6.94e-06
    CPU time for scf_cycle     14.56 sec, wall time      1.89 sec
    CPU time for SCF     14.56 sec, wall time      1.89 sec
converged SCF energy = -370.116099445722
