 Entering Gaussian System, Link 0=g16
 Input=c8b_3.gjf
 Output=c8b_3.log
 Initial command:
 /home/soft/g16/l1.exe "/tmp/liwei01/gaussian/liaokang/Gau-45661.inp" -scrdir="/tmp/liwei01/gaussian/liaokang/"
 Entering Link 1 = /home/soft/g16/l1.exe PID=     45662.
  
 Copyright (c) 1988,1990,1992,1993,1995,1998,2003,2009,2016,
            Gaussian, Inc.  All Rights Reserved.
  
 This is part of the Gaussian(R) 16 program.  It is based on
 the Gaussian(R) 09 system (copyright 2009, Gaussian, Inc.),
 the Gaussian(R) 03 system (copyright 2003, Gaussian, Inc.),
 the Gaussian(R) 98 system (copyright 1998, Gaussian, Inc.),
 the Gaussian(R) 94 system (copyright 1995, Gaussian, Inc.),
 the Gaussian 92(TM) system (copyright 1992, Gaussian, Inc.),
 the Gaussian 90(TM) system (copyright 1990, Gaussian, Inc.),
 the Gaussian 88(TM) system (copyright 1988, Gaussian, Inc.),
 the Gaussian 86(TM) system (copyright 1986, Carnegie Mellon
 University), and the Gaussian 82(TM) system (copyright 1983,
 Carnegie Mellon University). Gaussian is a federally registered
 trademark of Gaussian, Inc.
  
 This software contains proprietary and confidential information,
 including trade secrets, belonging to Gaussian, Inc.
  
 This software is provided under written license and may be
 used, copied, transmitted, or stored only in accord with that
 written license.
  
 The following legend is applicable only to US Government
 contracts under FAR:
  
                    RESTRICTED RIGHTS LEGEND
  
 Use, reproduction and disclosure by the US Government is
 subject to restrictions as set forth in subparagraphs (a)
 and (c) of the Commercial Computer Software - Restricted
 Rights clause in FAR 52.227-19.
  
 Gaussian, Inc.
 340 Quinnipiac St., Bldg. 40, Wallingford CT 06492
  
  
 ---------------------------------------------------------------
 Warning -- This program may not be used in any manner that
 competes with the business of Gaussian, Inc. or will provide
 assistance to any competitor of Gaussian, Inc.  The licensee
 of this program is prohibited from giving any competitor of
 Gaussian, Inc. access to this program.  By using this program,
 the user acknowledges that Gaussian, Inc. is engaged in the
 business of creating and licensing software in the field of
 computational chemistry and represents and warrants to the
 licensee that it is not a competitor of Gaussian, Inc. and that
 it will not use this program in any manner prohibited above.
 ---------------------------------------------------------------
  

 Cite this work as:
 Gaussian 16, Revision A.03,
 M. J. Frisch, G. W. Trucks, H. B. Schlegel, G. E. Scuseria, 
 M. A. Robb, J. R. Cheeseman, G. Scalmani, V. Barone, 
 G. A. Petersson, H. Nakatsuji, X. Li, M. Caricato, A. V. Marenich, 
 J. Bloino, B. G. Janesko, R. Gomperts, B. Mennucci, H. P. Hratchian, 
 J. V. Ortiz, A. F. Izmaylov, J. L. Sonnenberg, D. Williams-Young, 
 F. Ding, F. Lipparini, F. Egidi, J. Goings, B. Peng, A. Petrone, 
 T. Henderson, D. Ranasinghe, V. G. Zakrzewski, J. Gao, N. Rega, 
 G. Zheng, W. Liang, M. Hada, M. Ehara, K. Toyota, R. Fukuda, 
 J. Hasegawa, M. Ishida, T. Nakajima, Y. Honda, O. Kitao, H. Nakai, 
 T. Vreven, K. Throssell, J. A. Montgomery, Jr., J. E. Peralta, 
 F. Ogliaro, M. J. Bearpark, J. J. Heyd, E. N. Brothers, K. N. Kudin, 
 V. N. Staroverov, T. A. Keith, R. Kobayashi, J. Normand, 
 K. Raghavachari, A. P. Rendell, J. C. Burant, S. S. Iyengar, 
 J. Tomasi, M. Cossi, J. M. Millam, M. Klene, C. Adamo, R. Cammi, 
 J. W. Ochterski, R. L. Martin, K. Morokuma, O. Farkas, 
 J. B. Foresman, and D. J. Fox, Gaussian, Inc., Wallingford CT, 2016.
 
 ******************************************
 Gaussian 16:  ES64L-G16RevA.03 25-Dec-2016
                12-Mar-2020 
 ******************************************
 %chk=c8b_3.chk
 %nprocs=12
 Will use up to   12 processors via shared memory.
 %mem=1gb
 -----------------------------------
 #p hf/6-31g** pop=npa charge nosymm
 -----------------------------------
 1/18=10,28=-2,38=1,125=101,172=1/1;
 2/12=2,15=1,17=6,18=5,40=1/2;
 3/5=1,6=6,7=101,11=9,25=1,30=1/1,2,3;
 4//1;
 5/5=2,38=5/2;
 6/7=2,8=2,9=2,10=2,28=1,40=-1/1,7;
 99/5=1,9=1/99;
 Leave Link    1 at Thu Mar 12 14:21:48 2020, MaxMem=   134217728 cpu:               2.6 elap:               0.2
 (Enter /home/soft/g16/l101.exe)
 --------------
 Atom number=14
 --------------
 Symbolic Z-matrix:
 Charge =  0 Multiplicity = 1
 c                    -5.70334   0.0335   -0.55283 
 h                    -5.30664   0.49444   0.32755 
 c                    -5.17791   0.76996  -1.79908 
 h                    -5.48467   1.79444  -1.76374 
 h                    -5.57461   0.30903  -2.67945 
 f                    -5.31631  -1.25906  -0.59741 
 c                    -3.11457   1.43181  -3.07535 
 h                    -3.42133   2.45628  -3.04002 
 c                    -3.64001   0.69535  -1.8291 
 h                    -3.33325  -0.32913  -1.86444 
 h                    -3.2433    1.15628  -0.94872 
 h                    -6.77188   0.08535  -0.53197 
 h                    -3.51128   0.97087  -3.95573 
 h                    -2.04603   1.37996  -3.09621 
 
 ITRead=  0  0  0  0  0  0  0  0  0  0  0  0  0  0
 MicOpt= -1 -1 -1 -1 -1 -1 -1 -1 -1 -1 -1 -1 -1 -1
 NAtoms=     14 NQM=       14 NQMF=       0 NMMI=      0 NMMIF=      0
                NMic=       0 NMicF=      0.
                    Isotopes and Nuclear Properties:
 (Nuclear quadrupole moments (NQMom) in fm**2, nuclear magnetic moments (NMagM)
  in nuclear magnetons)

  Atom         1           2           3           4           5           6           7           8           9          10
 IAtWgt=          12           1          12           1           1          19          12           1          12           1
 AtmWgt=  12.0000000   1.0078250  12.0000000   1.0078250   1.0078250  18.9984033  12.0000000   1.0078250  12.0000000   1.0078250
 NucSpn=           0           1           0           1           1           1           0           1           0           1
 AtZEff=  -0.0000000  -0.0000000  -0.0000000  -0.0000000  -0.0000000  -0.0000000  -0.0000000  -0.0000000  -0.0000000  -0.0000000
 NQMom=    0.0000000   0.0000000   0.0000000   0.0000000   0.0000000   0.0000000   0.0000000   0.0000000   0.0000000   0.0000000
 NMagM=    0.0000000   2.7928460   0.0000000   2.7928460   2.7928460   2.6288670   0.0000000   2.7928460   0.0000000   2.7928460
 AtZNuc=   6.0000000   1.0000000   6.0000000   1.0000000   1.0000000   9.0000000   6.0000000   1.0000000   6.0000000   1.0000000

  Atom        11          12          13          14
 IAtWgt=           1           1           1           1
 AtmWgt=   1.0078250   1.0078250   1.0078250   1.0078250
 NucSpn=           1           1           1           1
 AtZEff=  -0.0000000  -0.0000000  -0.0000000  -0.0000000
 NQMom=    0.0000000   0.0000000   0.0000000   0.0000000
 NMagM=    2.7928460   2.7928460   2.7928460   2.7928460
 AtZNuc=   1.0000000   1.0000000   1.0000000   1.0000000
 Background charge distribution read from input stream:
 Point Charges:
 XYZ=   -7.2412    0.1081   -0.5228 Q=   -0.0618 A=    0.0000 R=    0.0000 C=    0.0000
 XYZ=   -7.5480    1.1326   -0.4875 Q=    0.1834 A=    0.0000 R=    0.0000 C=    0.0000
 XYZ=   -7.6379   -0.3528   -1.4032 Q=    0.1861 A=    0.0000 R=    0.0000 C=    0.0000
 XYZ=   -1.5767    1.3572   -3.1054 Q=   -0.1977 A=    0.0000 R=    0.0000 C=    0.0000
 XYZ=   -1.2699    0.3327   -3.1407 Q=    0.2076 A=    0.0000 R=    0.0000 C=    0.0000
 XYZ=   -1.1800    1.8181   -2.2250 Q=    0.1795 A=    0.0000 R=    0.0000 C=    0.0000
 XYZ=   -1.0751    2.0602   -4.2950 Q=   -0.9286 A=    0.0000 R=    0.0000 C=    0.0000
 XYZ=   -1.3618    3.0176   -4.2620 Q=    0.3729 A=    0.0000 R=    0.0000 C=    0.0000
 XYZ=   -0.0765    2.0117   -4.3145 Q=    0.3774 A=    0.0000 R=    0.0000 C=    0.0000
 XYZ=   -7.7291   -0.5757    0.6344 Q=   -0.8071 A=    0.0000 R=    0.0000 C=    0.0000
 XYZ=   -8.6878   -0.5292    0.6531 Q=    0.4896 A=    0.0000 R=    0.0000 C=    0.0000
 Pt Chg Charge=              0.0012 electrons
 Pt Chg Dipole moment (Debye):
    X=             -0.3615    Y=              2.1107    Z=             -0.8507  Tot=              2.3042
 Pt Chg Quadrupole moment (Debye-Ang):
   XX=             31.2905   YY=              6.5370   ZZ=             -9.7227
   XY=             -9.3285   XZ=              9.3493   YZ=              0.7466
 Pt Chg Traceless Quadrupole moment (Debye-Ang):
   XX=             21.9223   YY=             -2.8313   ZZ=            -19.0910
   XY=             -9.3285   XZ=              9.3493   YZ=              0.7466
 Pt Chg Octapole moment (Debye-Ang**2):
  XXX=           -415.1244  YYY=             29.4479  ZZZ=             54.3212  XYY=             -8.3081
  XXY=             75.1104  XXZ=           -112.9270  XZZ=             27.3975  YZZ=             -4.8720
  YYZ=            -22.1995  XYZ=            -14.4429
 Pt Chg Hexadecapole moment (Debye-Ang**3):
 XXXX=           4645.5855 YYYY=            105.2853 ZZZZ=           -265.5427 XXXY=           -491.3348
 XXXZ=            806.3872 YYYX=            -40.6854 YYYZ=           -110.5177 ZZZX=           -153.0919
 ZZZY=             28.7733 XXYY=             51.8494 XXZZ=             57.2943 YYZZ=             82.1736
 XXYZ=             28.4363 YYXZ=             16.9218 ZZXY=             50.3259
 Leave Link  101 at Thu Mar 12 14:21:48 2020, MaxMem=   134217728 cpu:               1.0 elap:               0.1
 (Enter /home/soft/g16/l202.exe)
                          Input orientation:                          
 ---------------------------------------------------------------------
 Center     Atomic      Atomic             Coordinates (Angstroms)
 Number     Number       Type             X           Y           Z
 ---------------------------------------------------------------------
      1          6           0       -5.703345    0.033503   -0.552826
      2          1           0       -5.306640    0.494438    0.327550
      3          6           0       -5.177908    0.769963   -1.799078
      4          1           0       -5.484666    1.794439   -1.763742
      5          1           0       -5.574613    0.309028   -2.679455
      6          9           0       -5.316314   -1.259060   -0.597409
      7          6           0       -3.114573    1.431807   -3.075353
      8          1           0       -3.421331    2.456283   -3.040017
      9          6           0       -3.640010    0.695347   -1.829101
     10          1           0       -3.333251   -0.329129   -1.864437
     11          1           0       -3.243304    1.156282   -0.948724
     12          1           0       -6.771884    0.085347   -0.531966
     13          1           0       -3.511278    0.970872   -3.955729
     14          1           0       -2.046033    1.379963   -3.096213
 ---------------------------------------------------------------------
                    Distance matrix (angstroms):
                    1          2          3          4          5
     1  C    0.000000
     2  H    1.070000   0.000000
     3  C    1.540000   2.148263   0.000000
     4  H    2.148263   2.468846   1.070000   0.000000
     5  H    2.148263   3.024610   1.070000   1.747303   0.000000
     6  F    1.350000   1.982524   2.362224   3.273001   2.619262
     7  C    3.875582   4.154945   2.514809   2.732978   2.732978
     8  H    4.154945   4.329403   2.732978   2.514809   3.062243
     9  C    2.514809   2.732978   1.540000   2.148263   2.148263
    10  H    2.732978   3.062243   2.148263   3.024610   2.468846
    11  H    2.732978   2.514809   2.148263   2.468846   3.024610
    12  H    1.070000   1.747303   2.148263   2.468846   2.468846
    13  H    4.154945   4.668704   2.732978   3.062243   2.514809
    14  H    4.653783   4.810184   3.444314   3.710993   3.710993
                    6          7          8          9         10
     6  F    0.000000
     7  C    4.269500   0.000000
     8  H    4.833329   1.070000   0.000000
     9  C    2.854254   1.540000   2.148263   0.000000
    10  H    2.530349   2.148263   3.024610   1.070000   0.000000
    11  H    3.202291   2.148263   2.468846   1.070000   1.747303
    12  H    1.982524   4.653783   4.810184   3.444314   3.710993
    13  H    4.416907   1.070000   1.747303   2.148263   2.468846
    14  H    4.889090   1.070000   1.747303   2.148263   2.468846
                   11         12         13         14
    11  H    0.000000
    12  H    3.710993   0.000000
    13  H    3.024610   4.810184   0.000000
    14  H    2.468846   5.530377   1.747303   0.000000
 Symmetry turned off by external request.
 Stoichiometry    C4H9F
 Framework group  C1[X(C4H9F)]
 Deg. of freedom    36
 Full point group                 C1      NOp   1
 Rotational constants (GHZ):          12.6412508           2.4250968           2.2262318
 Leave Link  202 at Thu Mar 12 14:21:48 2020, MaxMem=   134217728 cpu:               0.1 elap:               0.0
 (Enter /home/soft/g16/l301.exe)
 Standard basis: 6-31G(d,p) (6D, 7F)
 Ernie: Thresh=  0.10000D-02 Tol=  0.10000D-05 Strict=F.
   120 basis functions,   203 primitive gaussians,   120 cartesian basis functions
    21 alpha electrons       21 beta electrons
       nuclear repulsion energy       188.1859257540 Hartrees.
 IExCor=    0 DFT=F Ex=HF Corr=None ExCW=0 ScaHFX=  1.000000
 ScaDFX=  1.000000  1.000000  1.000000  1.000000 ScalE2=  1.000000  1.000000
 IRadAn=      5 IRanWt=     -1 IRanGd=            0 ICorTp=0 IEmpDi=  4
 NAtoms=   14 NActive=   14 NUniq=   14 SFac= 1.00D+00 NAtFMM=   60 NAOKFM=F Big=F
 Integral buffers will be    131072 words long.
 Raffenetti 1 integral format.
 Two-electron integral symmetry is turned off.
 Background charge distribution read from rwf.
 PtFMM for NChg=        25 BoxLen=    40.00 Levels= 1 LMax=20 SMax=    16.3 ICnFMM=     1:
 Self energy of the charges =        -0.5961190571 a.u.
 MM   energy of the charges =         0.0000000000 a.u.
 Nuclei-charges interaction =        -1.0053240347 a.u.
 Nuclear repulsion after external point charges =      186.5844826622 Hartrees.
 Leave Link  301 at Thu Mar 12 14:21:48 2020, MaxMem=   134217728 cpu:               0.6 elap:               0.1
 (Enter /home/soft/g16/l302.exe)
 NPDir=0 NMtPBC=     1 NCelOv=     1 NCel=       1 NClECP=     1 NCelD=      1
         NCelK=      1 NCelE2=     1 NClLst=     1 CellRange=     0.0.
 One-electron integrals computed using PRISM.
 NBasis=   120 RedAO= T EigKep=  3.77D-03  NBF=   120
 NBsUse=   120 1.00D-06 EigRej= -1.00D+00 NBFU=   120
 Leave Link  302 at Thu Mar 12 14:21:48 2020, MaxMem=   134217728 cpu:               1.5 elap:               0.1
 (Enter /home/soft/g16/l303.exe)
 DipDrv:  MaxL=1.
 Leave Link  303 at Thu Mar 12 14:21:48 2020, MaxMem=   134217728 cpu:               0.3 elap:               0.0
 (Enter /home/soft/g16/l401.exe)
 ExpMin= 1.61D-01 ExpMax= 7.00D+03 ExpMxC= 1.05D+03 IAcc=3 IRadAn=         5 AccDes= 0.00D+00
 Harris functional with IExCor=  205 and IRadAn=       5 diagonalized for initial guess.
 HarFok:  IExCor=  205 AccDes= 0.00D+00 IRadAn=         5 IDoV= 1 UseB2=F ITyADJ=14
 ICtDFT=  3500011 ScaDFX=  1.000000  1.000000  1.000000  1.000000
 FoFCou: FMM=F IPFlag=           0 FMFlag=      100000 FMFlg1=           0
         NFxFlg=           0 DoJE=T BraDBF=F KetDBF=T FulRan=T
         wScrn=  0.000000 ICntrl=       500 IOpCl=  0 I1Cent=   200000004 NGrid=           0
         NMat0=    1 NMatS0=      1 NMatT0=    0 NMatD0=    1 NMtDS0=    0 NMtDT0=    0
 Symmetry not used in FoFCou.
 Harris En= -257.249032019934    
 JPrj=0 DoOrth=F DoCkMO=F.
 Leave Link  401 at Thu Mar 12 14:21:48 2020, MaxMem=   134217728 cpu:               4.1 elap:               0.4
 (Enter /home/soft/g16/l502.exe)
 Two-electron integral symmetry not used.
 Closed shell SCF:
 Using DIIS extrapolation, IDIIS=  1040.
 NGot=   134217728 LenX=   134186282 LenY=   134171441
 Requested convergence on RMS density matrix=1.00D-08 within 128 cycles.
 Requested convergence on MAX density matrix=1.00D-06.
 Requested convergence on             energy=1.00D-06.
 No special actions if energy rises.
 Fock matrices will be formed incrementally for  20 cycles.
 Integral accuracy reduced to 1.0D-05 until final iterations.

 Cycle   1  Pass 0  IDiag  1:
 FoFJK:  IHMeth= 1 ICntrl=       0 DoSepK=F KAlg= 0 I1Cent=           0 FoldK=F
 IRaf= 970000000 NMat=       1 IRICut=       1 DoRegI=T DoRafI=F ISym2E= 0 IDoP0=0 IntGTp=1.
 FoFCou: FMM=F IPFlag=           0 FMFlag=      100000 FMFlg1=           0
         NFxFlg=           0 DoJE=F BraDBF=F KetDBF=F FulRan=T
         wScrn=  0.000000 ICntrl=         0 IOpCl=  0 I1Cent=           0 NGrid=           0
         NMat0=    1 NMatS0=      1 NMatT0=    0 NMatD0=    1 NMtDS0=    0 NMtDT0=    0
 Symmetry not used in FoFCou.
 E= -256.550759156463    
 DIIS: error= 5.32D-02 at cycle   1 NSaved=   1.
 NSaved= 1 IEnMin= 1 EnMin= -256.550759156463     IErMin= 1 ErrMin= 5.32D-02
 ErrMax= 5.32D-02  0.00D+00 EMaxC= 1.00D-01 BMatC= 3.99D-01 BMatP= 3.99D-01
 IDIUse=3 WtCom= 4.68D-01 WtEn= 5.32D-01
 Coeff-Com:  0.100D+01
 Coeff-En:   0.100D+01
 Coeff:      0.100D+01
 Gap=     0.749 Goal=   None    Shift=    0.000
 GapD=    0.749 DampG=2.000 DampE=0.500 DampFc=1.0000 IDamp=-1.
 RMSDP=5.48D-03 MaxDP=1.26D-01              OVMax= 1.33D-01

 Cycle   2  Pass 0  IDiag  1:
 RMSU=  5.33D-03    CP:  9.53D-01
 E= -256.798723385292     Delta-E=       -0.247964228829 Rises=F Damp=F
 DIIS: error= 1.80D-02 at cycle   2 NSaved=   2.
 NSaved= 2 IEnMin= 2 EnMin= -256.798723385292     IErMin= 2 ErrMin= 1.80D-02
 ErrMax= 1.80D-02  0.00D+00 EMaxC= 1.00D-01 BMatC= 4.77D-02 BMatP= 3.99D-01
 IDIUse=3 WtCom= 8.20D-01 WtEn= 1.80D-01
 Coeff-Com:  0.195D+00 0.805D+00
 Coeff-En:   0.000D+00 0.100D+01
 Coeff:      0.160D+00 0.840D+00
 Gap=     0.696 Goal=   None    Shift=    0.000
 RMSDP=1.83D-03 MaxDP=3.39D-02 DE=-2.48D-01 OVMax= 4.78D-02

 Cycle   3  Pass 0  IDiag  1:
 RMSU=  1.09D-03    CP:  9.67D-01  7.34D-01
 E= -256.840095145050     Delta-E=       -0.041371759757 Rises=F Damp=F
 DIIS: error= 3.72D-03 at cycle   3 NSaved=   3.
 NSaved= 3 IEnMin= 3 EnMin= -256.840095145050     IErMin= 3 ErrMin= 3.72D-03
 ErrMax= 3.72D-03  0.00D+00 EMaxC= 1.00D-01 BMatC= 2.22D-03 BMatP= 4.77D-02
 IDIUse=3 WtCom= 9.63D-01 WtEn= 3.72D-02
 Coeff-Com: -0.239D-01 0.131D+00 0.893D+00
 Coeff-En:   0.000D+00 0.000D+00 0.100D+01
 Coeff:     -0.230D-01 0.126D+00 0.897D+00
 Gap=     0.658 Goal=   None    Shift=    0.000
 RMSDP=3.73D-04 MaxDP=8.15D-03 DE=-4.14D-02 OVMax= 1.01D-02

 Cycle   4  Pass 0  IDiag  1:
 RMSU=  1.74D-04    CP:  9.64D-01  7.94D-01  9.66D-01
 E= -256.842442351495     Delta-E=       -0.002347206445 Rises=F Damp=F
 DIIS: error= 4.58D-04 at cycle   4 NSaved=   4.
 NSaved= 4 IEnMin= 4 EnMin= -256.842442351495     IErMin= 4 ErrMin= 4.58D-04
 ErrMax= 4.58D-04  0.00D+00 EMaxC= 1.00D-01 BMatC= 4.81D-05 BMatP= 2.22D-03
 IDIUse=3 WtCom= 9.95D-01 WtEn= 4.58D-03
 Coeff-Com: -0.424D-02-0.127D-02 0.871D-01 0.918D+00
 Coeff-En:   0.000D+00 0.000D+00 0.000D+00 0.100D+01
 Coeff:     -0.423D-02-0.127D-02 0.867D-01 0.919D+00
 Gap=     0.656 Goal=   None    Shift=    0.000
 RMSDP=7.00D-05 MaxDP=1.22D-03 DE=-2.35D-03 OVMax= 1.85D-03

 Cycle   5  Pass 0  IDiag  1:
 RMSU=  5.86D-05    CP:  9.64D-01  7.94D-01  9.99D-01  1.06D+00
 E= -256.842499885710     Delta-E=       -0.000057534216 Rises=F Damp=F
 DIIS: error= 1.29D-04 at cycle   5 NSaved=   5.
 NSaved= 5 IEnMin= 5 EnMin= -256.842499885710     IErMin= 5 ErrMin= 1.29D-04
 ErrMax= 1.29D-04  0.00D+00 EMaxC= 1.00D-01 BMatC= 5.06D-06 BMatP= 4.81D-05
 IDIUse=3 WtCom= 9.99D-01 WtEn= 1.29D-03
 Coeff-Com:  0.196D-02-0.141D-01-0.803D-01 0.853D-01 0.101D+01
 Coeff-En:   0.000D+00 0.000D+00 0.000D+00 0.000D+00 0.100D+01
 Coeff:      0.196D-02-0.141D-01-0.802D-01 0.852D-01 0.101D+01
 Gap=     0.657 Goal=   None    Shift=    0.000
 RMSDP=3.06D-05 MaxDP=4.01D-04 DE=-5.75D-05 OVMax= 7.52D-04

 Cycle   6  Pass 0  IDiag  1:
 RMSU=  1.06D-05    CP:  9.65D-01  7.95D-01  1.01D+00  1.19D+00  1.17D+00
 E= -256.842507234679     Delta-E=       -0.000007348968 Rises=F Damp=F
 DIIS: error= 2.68D-05 at cycle   6 NSaved=   6.
 NSaved= 6 IEnMin= 6 EnMin= -256.842507234679     IErMin= 6 ErrMin= 2.68D-05
 ErrMax= 2.68D-05  0.00D+00 EMaxC= 1.00D-01 BMatC= 1.89D-07 BMatP= 5.06D-06
 IDIUse=1 WtCom= 1.00D+00 WtEn= 0.00D+00
 Coeff-Com:  0.430D-03-0.202D-02-0.141D-01-0.308D-01 0.121D+00 0.926D+00
 Coeff:      0.430D-03-0.202D-02-0.141D-01-0.308D-01 0.121D+00 0.926D+00
 Gap=     0.657 Goal=   None    Shift=    0.000
 RMSDP=6.42D-06 MaxDP=9.68D-05 DE=-7.35D-06 OVMax= 1.46D-04

 Initial convergence to 1.0D-05 achieved.  Increase integral accuracy.
 Cycle   7  Pass 1  IDiag  1:
 E= -256.842508217914     Delta-E=       -0.000000983236 Rises=F Damp=F
 DIIS: error= 1.65D-05 at cycle   1 NSaved=   1.
 NSaved= 1 IEnMin= 1 EnMin= -256.842508217914     IErMin= 1 ErrMin= 1.65D-05
 ErrMax= 1.65D-05  0.00D+00 EMaxC= 1.00D-01 BMatC= 2.00D-08 BMatP= 2.00D-08
 IDIUse=1 WtCom= 1.00D+00 WtEn= 0.00D+00
 Coeff-Com:  0.100D+01
 Coeff:      0.100D+01
 Gap=     0.657 Goal=   None    Shift=    0.000
 RMSDP=6.42D-06 MaxDP=9.68D-05 DE=-9.83D-07 OVMax= 3.53D-05

 Cycle   8  Pass 1  IDiag  1:
 RMSU=  1.52D-06    CP:  1.00D+00
 E= -256.842508236514     Delta-E=       -0.000000018600 Rises=F Damp=F
 DIIS: error= 5.02D-06 at cycle   2 NSaved=   2.
 NSaved= 2 IEnMin= 2 EnMin= -256.842508236514     IErMin= 2 ErrMin= 5.02D-06
 ErrMax= 5.02D-06  0.00D+00 EMaxC= 1.00D-01 BMatC= 5.12D-09 BMatP= 2.00D-08
 IDIUse=1 WtCom= 1.00D+00 WtEn= 0.00D+00
 Coeff-Com:  0.287D+00 0.713D+00
 Coeff:      0.287D+00 0.713D+00
 Gap=     0.657 Goal=   None    Shift=    0.000
 RMSDP=5.25D-07 MaxDP=1.30D-05 DE=-1.86D-08 OVMax= 1.31D-05

 Cycle   9  Pass 1  IDiag  1:
 RMSU=  5.10D-07    CP:  1.00D+00  1.08D+00
 E= -256.842508240780     Delta-E=       -0.000000004265 Rises=F Damp=F
 DIIS: error= 2.37D-06 at cycle   3 NSaved=   3.
 NSaved= 3 IEnMin= 3 EnMin= -256.842508240780     IErMin= 3 ErrMin= 2.37D-06
 ErrMax= 2.37D-06  0.00D+00 EMaxC= 1.00D-01 BMatC= 3.82D-10 BMatP= 5.12D-09
 IDIUse=1 WtCom= 1.00D+00 WtEn= 0.00D+00
 Coeff-Com: -0.159D+00-0.112D+00 0.127D+01
 Coeff:     -0.159D+00-0.112D+00 0.127D+01
 Gap=     0.657 Goal=   None    Shift=    0.000
 RMSDP=3.86D-07 MaxDP=6.59D-06 DE=-4.27D-09 OVMax= 9.21D-06

 Cycle  10  Pass 1  IDiag  1:
 RMSU=  1.23D-07    CP:  1.00D+00  1.28D+00  1.37D+00
 E= -256.842508241624     Delta-E=       -0.000000000845 Rises=F Damp=F
 DIIS: error= 3.34D-07 at cycle   4 NSaved=   4.
 NSaved= 4 IEnMin= 4 EnMin= -256.842508241624     IErMin= 4 ErrMin= 3.34D-07
 ErrMax= 3.34D-07  0.00D+00 EMaxC= 1.00D-01 BMatC= 2.32D-11 BMatP= 3.82D-10
 IDIUse=1 WtCom= 1.00D+00 WtEn= 0.00D+00
 Coeff-Com: -0.295D-01-0.604D-01 0.824D-01 0.101D+01
 Coeff:     -0.295D-01-0.604D-01 0.824D-01 0.101D+01
 Gap=     0.657 Goal=   None    Shift=    0.000
 RMSDP=8.22D-08 MaxDP=1.19D-06 DE=-8.45D-10 OVMax= 1.88D-06

 Cycle  11  Pass 1  IDiag  1:
 RMSU=  3.81D-08    CP:  1.00D+00  1.32D+00  1.46D+00  1.22D+00
 E= -256.842508241667     Delta-E=       -0.000000000043 Rises=F Damp=F
 DIIS: error= 6.84D-08 at cycle   5 NSaved=   5.
 NSaved= 5 IEnMin= 5 EnMin= -256.842508241667     IErMin= 5 ErrMin= 6.84D-08
 ErrMax= 6.84D-08  0.00D+00 EMaxC= 1.00D-01 BMatC= 1.67D-12 BMatP= 2.32D-11
 IDIUse=1 WtCom= 1.00D+00 WtEn= 0.00D+00
 Coeff-Com:  0.924D-02-0.131D-02-0.880D-01 0.141D+00 0.939D+00
 Coeff:      0.924D-02-0.131D-02-0.880D-01 0.141D+00 0.939D+00
 Gap=     0.657 Goal=   None    Shift=    0.000
 RMSDP=1.81D-08 MaxDP=3.30D-07 DE=-4.30D-11 OVMax= 5.21D-07

 Cycle  12  Pass 1  IDiag  1:
 RMSU=  9.20D-09    CP:  1.00D+00  1.32D+00  1.47D+00  1.33D+00  1.10D+00
 E= -256.842508241665     Delta-E=        0.000000000003 Rises=F Damp=F
 DIIS: error= 1.76D-08 at cycle   6 NSaved=   6.
 NSaved= 6 IEnMin= 5 EnMin= -256.842508241667     IErMin= 6 ErrMin= 1.76D-08
 ErrMax= 1.76D-08  0.00D+00 EMaxC= 1.00D-01 BMatC= 7.86D-14 BMatP= 1.67D-12
 IDIUse=1 WtCom= 1.00D+00 WtEn= 0.00D+00
 Coeff-Com: -0.615D-03 0.217D-02 0.160D-01-0.790D-01-0.193D+00 0.125D+01
 Coeff:     -0.615D-03 0.217D-02 0.160D-01-0.790D-01-0.193D+00 0.125D+01
 Gap=     0.657 Goal=   None    Shift=    0.000
 RMSDP=6.62D-09 MaxDP=1.28D-07 DE= 2.96D-12 OVMax= 1.54D-07

 SCF Done:  E(RHF) =  -256.842508242     A.U. after   12 cycles
            NFock= 12  Conv=0.66D-08     -V/T= 2.0029
 KE= 2.560954974014D+02 PE=-9.784687071769D+02 EE= 2.789462188717D+02
 Leave Link  502 at Thu Mar 12 14:21:49 2020, MaxMem=   134217728 cpu:              12.2 elap:               1.0
 (Enter /home/soft/g16/l601.exe)
 Copying SCF densities to generalized density rwf, IOpCl= 0 IROHF=0.

 **********************************************************************

            Population analysis using the SCF density.

 **********************************************************************

 Alpha  occ. eigenvalues --  -26.24493 -11.26463 -11.20148 -11.19436 -11.16385
 Alpha  occ. eigenvalues --   -1.56190  -1.05684  -0.95831  -0.84344  -0.78579
 Alpha  occ. eigenvalues --   -0.67863  -0.66641  -0.63299  -0.61021  -0.54416
 Alpha  occ. eigenvalues --   -0.52315  -0.50437  -0.47924  -0.46541  -0.45126
 Alpha  occ. eigenvalues --   -0.40903
 Alpha virt. eigenvalues --    0.24801   0.27863   0.29804   0.31289   0.34517
 Alpha virt. eigenvalues --    0.35030   0.35943   0.37038   0.38346   0.38776
 Alpha virt. eigenvalues --    0.43532   0.46241   0.46951   0.73491   0.74464
 Alpha virt. eigenvalues --    0.75204   0.76819   0.81724   0.85782   0.86874
 Alpha virt. eigenvalues --    0.94162   0.96069   1.00724   1.04241   1.10932
 Alpha virt. eigenvalues --    1.13258   1.14294   1.17038   1.19962   1.20125
 Alpha virt. eigenvalues --    1.21790   1.22380   1.23640   1.25621   1.29492
 Alpha virt. eigenvalues --    1.40862   1.53092   1.55884   1.61231   1.67742
 Alpha virt. eigenvalues --    1.72245   1.73521   1.75236   1.87504   1.90621
 Alpha virt. eigenvalues --    1.98302   2.00043   2.03577   2.09573   2.12580
 Alpha virt. eigenvalues --    2.19124   2.22354   2.26734   2.32159   2.35808
 Alpha virt. eigenvalues --    2.37832   2.40097   2.42224   2.45064   2.46014
 Alpha virt. eigenvalues --    2.49407   2.51411   2.53322   2.58594   2.58942
 Alpha virt. eigenvalues --    2.63376   2.65427   2.69925   2.79161   2.82293
 Alpha virt. eigenvalues --    2.86255   2.88695   2.96437   3.01833   3.07133
 Alpha virt. eigenvalues --    3.09697   3.14532   3.18775   3.21443   3.26099
 Alpha virt. eigenvalues --    3.30525   3.33462   3.33993   3.36436   3.48741
 Alpha virt. eigenvalues --    3.66195   3.71297   3.73475   3.78634   3.80459
 Alpha virt. eigenvalues --    3.91066   3.96603   3.99636   4.01876   4.66733
 Alpha virt. eigenvalues --    4.76571   4.91372   5.00842   5.15011
          Condensed to atoms (all electrons):
               1          2          3          4          5          6
     1  C    4.518992   0.411653   0.303863  -0.036033  -0.036643   0.216562
     2  H    0.411653   0.619318  -0.054235   0.000901   0.005482  -0.029828
     3  C    0.303863  -0.054235   5.210117   0.383426   0.403469  -0.041190
     4  H   -0.036033   0.000901   0.383426   0.626741  -0.030421   0.002309
     5  H   -0.036643   0.005482   0.403469  -0.030421   0.598274   0.000836
     6  F    0.216562  -0.029828  -0.041190   0.002309   0.000836   9.275966
     7  C    0.003800  -0.000159  -0.057840  -0.003926  -0.003432   0.000081
     8  H   -0.000091   0.000011  -0.005794   0.002542   0.000168  -0.000002
     9  C   -0.043794  -0.009854   0.293087  -0.038492  -0.044970   0.001908
    10  H   -0.005556   0.000590  -0.043811   0.004967  -0.002680   0.006179
    11  H   -0.003191   0.003210  -0.045157  -0.003182   0.004943  -0.000237
    12  H    0.428818  -0.037185  -0.075193   0.000712  -0.005933  -0.024575
    13  H   -0.000076  -0.000001  -0.005517   0.000131   0.002724   0.000002
    14  H   -0.000111   0.000001   0.005032  -0.000041  -0.000056   0.000000
               7          8          9         10         11         12
     1  C    0.003800  -0.000091  -0.043794  -0.005556  -0.003191   0.428818
     2  H   -0.000159   0.000011  -0.009854   0.000590   0.003210  -0.037185
     3  C   -0.057840  -0.005794   0.293087  -0.043811  -0.045157  -0.075193
     4  H   -0.003926   0.002542  -0.038492   0.004967  -0.003182   0.000712
     5  H   -0.003432   0.000168  -0.044970  -0.002680   0.004943  -0.005933
     6  F    0.000081  -0.000002   0.001908   0.006179  -0.000237  -0.024575
     7  C    4.978781   0.399202   0.306242  -0.041815  -0.041636  -0.000130
     8  H    0.399202   0.631039  -0.044361   0.004900  -0.003691  -0.000002
     9  C    0.306242  -0.044361   5.078988   0.415979   0.404982   0.006957
    10  H   -0.041815   0.004900   0.415979   0.580637  -0.032724   0.000189
    11  H   -0.041636  -0.003691   0.404982  -0.032724   0.627142  -0.000109
    12  H   -0.000130  -0.000002   0.006957   0.000189  -0.000109   0.586259
    13  H    0.411767  -0.031542  -0.046239  -0.003662   0.004999   0.000005
    14  H    0.422065  -0.022356  -0.046716  -0.002556  -0.002510   0.000001
              13         14
     1  C   -0.000076  -0.000111
     2  H   -0.000001   0.000001
     3  C   -0.005517   0.005032
     4  H    0.000131  -0.000041
     5  H    0.002724  -0.000056
     6  F    0.000002   0.000000
     7  C    0.411767   0.422065
     8  H   -0.031542  -0.022356
     9  C   -0.046239  -0.046716
    10  H   -0.003662  -0.002556
    11  H    0.004999  -0.002510
    12  H    0.000005   0.000001
    13  H    0.584361  -0.018393
    14  H   -0.018393   0.409289
 Mulliken charges:
               1
     1  C    0.241806
     2  H    0.090096
     3  C   -0.270255
     4  H    0.090366
     5  H    0.108239
     6  F   -0.408011
     7  C   -0.373001
     8  H    0.069976
     9  C   -0.233717
    10  H    0.119363
    11  H    0.087162
    12  H    0.120185
    13  H    0.101441
    14  H    0.256351
 Sum of Mulliken charges =   0.00000
 Mulliken charges with hydrogens summed into heavy atoms:
               1
     1  C    0.452087
     3  C   -0.071650
     6  F   -0.408011
     7  C    0.054767
     9  C   -0.027193
 Electronic spatial extent (au):  <R**2>=           4108.6046
 Charge=             -0.0000 electrons
 Dipole moment (field-independent basis, Debye):
    X=              0.1776    Y=              1.5033    Z=             -0.0881  Tot=              1.5163
 Quadrupole moment (field-independent basis, Debye-Ang):
   XX=            -29.7102   YY=            -34.4633   ZZ=            -30.2181
   XY=             -6.7318   XZ=             -2.6552   YZ=             -0.8907
 Traceless Quadrupole moment (field-independent basis, Debye-Ang):
   XX=              1.7537   YY=             -2.9995   ZZ=              1.2457
   XY=             -6.7318   XZ=             -2.6552   YZ=             -0.8907
 Octapole moment (field-independent basis, Debye-Ang**2):
  XXX=            395.2246  YYY=            -44.9053  ZZZ=            153.8861  XYY=            158.3325
  XXY=             17.9741  XXZ=             71.2957  XZZ=            146.0858  YZZ=            -14.8005
  YYZ=             55.7879  XYZ=              0.8564
 Hexadecapole moment (field-independent basis, Debye-Ang**3):
 XXXX=          -3809.0327 YYYY=           -241.7850 ZZZZ=           -750.1608 XXXY=            -16.8581
 XXXZ=           -737.1975 YYYX=            140.6609 YYYZ=            146.9785 ZZZX=           -639.6200
 ZZZY=            145.3219 XXYY=           -810.7554 XXZZ=           -851.7659 YYZZ=           -172.7000
 XXYZ=             47.9737 YYXZ=           -228.3961 ZZXY=             59.8236
 N-N= 1.865844826622D+02 E-N=-9.784687092674D+02  KE= 2.560954974014D+02
 No NMR shielding tensors so no spin-rotation constants.
 Leave Link  601 at Thu Mar 12 14:21:50 2020, MaxMem=   134217728 cpu:               1.0 elap:               0.1
 (Enter /home/soft/g16/l607.exe)
 ******************************Gaussian NBO Version 3.1******************************
             N A T U R A L   A T O M I C   O R B I T A L   A N D
          N A T U R A L   B O N D   O R B I T A L   A N A L Y S I S
 ******************************Gaussian NBO Version 3.1******************************
       /RESON  / : Allow strongly delocalized NBO set

 Analyzing the SCF density

 Job title: Atom number=14                                                  

 Storage needed:     43922 in NPA ( 134216608 available)
 GSVD:  LWork=        7208 too small for GESVD, short by        6654 words or        6654 for optimal perf.


 NATURAL POPULATIONS:  Natural atomic orbital occupancies 
                                                          
   NAO  Atom  No  lang   Type(AO)    Occupancy      Energy
 ----------------------------------------------------------
     1    C    1  S      Cor( 1S)     1.99911     -11.14563
     2    C    1  S      Val( 2S)     1.00735      -0.21327
     3    C    1  S      Ryd( 3S)     0.00266       1.40768
     4    C    1  S      Ryd( 4S)     0.00007       4.74727
     5    C    1  px     Val( 2p)     1.14699      -0.02161
     6    C    1  px     Ryd( 3p)     0.00351       1.01316
     7    C    1  py     Val( 2p)     0.62909       0.08832
     8    C    1  py     Ryd( 3p)     0.00672       0.86335
     9    C    1  pz     Val( 2p)     1.08428      -0.00399
    10    C    1  pz     Ryd( 3p)     0.00283       0.84177
    11    C    1  dxy    Ryd( 3d)     0.00183       2.51170
    12    C    1  dxz    Ryd( 3d)     0.00082       2.54774
    13    C    1  dyz    Ryd( 3d)     0.00238       2.64772
    14    C    1  dx2y2  Ryd( 3d)     0.00296       2.79108
    15    C    1  dz2    Ryd( 3d)     0.00175       2.68291

    16    H    2  S      Val( 1S)     0.82609       0.17852
    17    H    2  S      Ryd( 2S)     0.00132       0.82365
    18    H    2  px     Ryd( 2p)     0.00016       2.83316
    19    H    2  py     Ryd( 2p)     0.00015       2.80252
    20    H    2  pz     Ryd( 2p)     0.00063       3.17790

    21    C    3  S      Cor( 1S)     1.99938     -11.05622
    22    C    3  S      Val( 2S)     1.05269      -0.24148
    23    C    3  S      Ryd( 3S)     0.00100       1.64285
    24    C    3  S      Ryd( 4S)     0.00001       4.78695
    25    C    3  px     Val( 2p)     1.08366      -0.03228
    26    C    3  px     Ryd( 3p)     0.00107       0.83056
    27    C    3  py     Val( 2p)     1.18665      -0.03906
    28    C    3  py     Ryd( 3p)     0.00313       1.02719
    29    C    3  pz     Val( 2p)     1.14495      -0.04033
    30    C    3  pz     Ryd( 3p)     0.00210       0.94427
    31    C    3  dxy    Ryd( 3d)     0.00076       2.50860
    32    C    3  dxz    Ryd( 3d)     0.00096       2.50748
    33    C    3  dyz    Ryd( 3d)     0.00108       2.64385
    34    C    3  dx2y2  Ryd( 3d)     0.00147       2.76486
    35    C    3  dz2    Ryd( 3d)     0.00136       2.70058

    36    H    4  S      Val( 1S)     0.79380       0.18117
    37    H    4  S      Ryd( 2S)     0.00137       0.82738
    38    H    4  px     Ryd( 2p)     0.00008       2.73595
    39    H    4  py     Ryd( 2p)     0.00068       3.36447
    40    H    4  pz     Ryd( 2p)     0.00004       2.71749

    41    H    5  S      Val( 1S)     0.78845       0.19506
    42    H    5  S      Ryd( 2S)     0.00182       0.83274
    43    H    5  px     Ryd( 2p)     0.00010       2.77681
    44    H    5  py     Ryd( 2p)     0.00017       2.86630
    45    H    5  pz     Ryd( 2p)     0.00050       3.19755

    46    F    6  S      Cor( 1S)     1.99994     -25.97724
    47    F    6  S      Val( 2S)     1.82804      -1.55843
    48    F    6  S      Ryd( 3S)     0.00041       2.55574
    49    F    6  S      Ryd( 4S)     0.00005       4.44642
    50    F    6  px     Val( 2p)     1.94656      -0.57342
    51    F    6  px     Ryd( 3p)     0.00129       1.73488
    52    F    6  py     Val( 2p)     1.67636      -0.50196
    53    F    6  py     Ryd( 3p)     0.00036       1.67366
    54    F    6  pz     Val( 2p)     1.97350      -0.58125
    55    F    6  pz     Ryd( 3p)     0.00127       1.71446
    56    F    6  dxy    Ryd( 3d)     0.00139       2.55579
    57    F    6  dxz    Ryd( 3d)     0.00010       2.25334
    58    F    6  dyz    Ryd( 3d)     0.00122       2.41548
    59    F    6  dx2y2  Ryd( 3d)     0.00153       2.71880
    60    F    6  dz2    Ryd( 3d)     0.00057       2.42117

    61    C    7  S      Cor( 1S)     1.99950     -11.01905
    62    C    7  S      Val( 2S)     1.10204      -0.23415
    63    C    7  S      Ryd( 3S)     0.00038       1.57650
    64    C    7  S      Ryd( 4S)     0.00000       4.78689
    65    C    7  px     Val( 2p)     1.30475      -0.04682
    66    C    7  px     Ryd( 3p)     0.00295       0.95775
    67    C    7  py     Val( 2p)     1.16937      -0.00667
    68    C    7  py     Ryd( 3p)     0.00170       0.85256
    69    C    7  pz     Val( 2p)     1.10440       0.00687
    70    C    7  pz     Ryd( 3p)     0.00264       0.82766
    71    C    7  dxy    Ryd( 3d)     0.00056       2.56703
    72    C    7  dxz    Ryd( 3d)     0.00074       2.56605
    73    C    7  dyz    Ryd( 3d)     0.00092       2.66001
    74    C    7  dx2y2  Ryd( 3d)     0.00144       2.94604
    75    C    7  dz2    Ryd( 3d)     0.00116       2.76190

    76    H    8  S      Val( 1S)     0.81052       0.18986
    77    H    8  S      Ryd( 2S)     0.00095       0.86061
    78    H    8  px     Ryd( 2p)     0.00009       2.77045
    79    H    8  py     Ryd( 2p)     0.00060       3.38052
    80    H    8  pz     Ryd( 2p)     0.00006       2.65425

    81    C    9  S      Cor( 1S)     1.99941     -11.04853
    82    C    9  S      Val( 2S)     1.03535      -0.21834
    83    C    9  S      Ryd( 3S)     0.00102       1.64116
    84    C    9  S      Ryd( 4S)     0.00001       4.79821
    85    C    9  px     Val( 2p)     1.05032      -0.01067
    86    C    9  px     Ryd( 3p)     0.00149       0.83695
    87    C    9  py     Val( 2p)     1.19866      -0.02742
    88    C    9  py     Ryd( 3p)     0.00293       1.00043
    89    C    9  pz     Val( 2p)     1.13770      -0.02143
    90    C    9  pz     Ryd( 3p)     0.00281       0.95991
    91    C    9  dxy    Ryd( 3d)     0.00062       2.52049
    92    C    9  dxz    Ryd( 3d)     0.00077       2.51785
    93    C    9  dyz    Ryd( 3d)     0.00108       2.65724
    94    C    9  dx2y2  Ryd( 3d)     0.00163       2.77242
    95    C    9  dz2    Ryd( 3d)     0.00139       2.70774

    96    H   10  S      Val( 1S)     0.77998       0.21923
    97    H   10  S      Ryd( 2S)     0.00198       0.83721
    98    H   10  px     Ryd( 2p)     0.00008       2.74300
    99    H   10  py     Ryd( 2p)     0.00065       3.38380
   100    H   10  pz     Ryd( 2p)     0.00004       2.73429

   101    H   11  S      Val( 1S)     0.80039       0.19448
   102    H   11  S      Ryd( 2S)     0.00144       0.83924
   103    H   11  px     Ryd( 2p)     0.00014       2.78166
   104    H   11  py     Ryd( 2p)     0.00017       2.85715
   105    H   11  pz     Ryd( 2p)     0.00048       3.20402

   106    H   12  S      Val( 1S)     0.79421       0.21733
   107    H   12  S      Ryd( 2S)     0.00095       0.81890
   108    H   12  px     Ryd( 2p)     0.00102       3.46546
   109    H   12  py     Ryd( 2p)     0.00008       2.69061
   110    H   12  pz     Ryd( 2p)     0.00019       2.71393

   111    H   13  S      Val( 1S)     0.79082       0.21454
   112    H   13  S      Ryd( 2S)     0.00084       0.86441
   113    H   13  px     Ryd( 2p)     0.00010       2.81872
   114    H   13  py     Ryd( 2p)     0.00014       2.81597
   115    H   13  pz     Ryd( 2p)     0.00049       3.19386

   116    H   14  S      Val( 1S)     0.66320       0.35915
   117    H   14  S      Ryd( 2S)     0.00034       0.88941
   118    H   14  px     Ryd( 2p)     0.00158       3.59367
   119    H   14  py     Ryd( 2p)     0.00003       2.74903
   120    H   14  pz     Ryd( 2p)     0.00014       2.73540


 Summary of Natural Population Analysis:                  
                                                          
                                       Natural Population 
                Natural  -----------------------------------------------
    Atom  No    Charge         Core      Valence    Rydberg      Total
 -----------------------------------------------------------------------
      C    1    0.10766      1.99911     3.86771    0.02552     5.89234
      H    2    0.17167      0.00000     0.82609    0.00224     0.82833
      C    3   -0.48026      1.99938     4.46796    0.01292     6.48026
      H    4    0.20402      0.00000     0.79380    0.00218     0.79598
      H    5    0.20896      0.00000     0.78845    0.00259     0.79104
      F    6   -0.43259      1.99994     7.42446    0.00818     9.43259
      C    7   -0.69256      1.99950     4.68056    0.01249     6.69256
      H    8    0.18777      0.00000     0.81052    0.00170     0.81223
      C    9   -0.43519      1.99941     4.42203    0.01375     6.43519
      H   10    0.21726      0.00000     0.77998    0.00276     0.78274
      H   11    0.19739      0.00000     0.80039    0.00222     0.80261
      H   12    0.20355      0.00000     0.79421    0.00224     0.79645
      H   13    0.20761      0.00000     0.79082    0.00158     0.79239
      H   14    0.33472      0.00000     0.66320    0.00209     0.66528
 =======================================================================
   * Total *   -0.00000      9.99736    31.91018    0.09247    42.00000

                                 Natural Population      
 --------------------------------------------------------
   Core                       9.99736 ( 99.9736% of  10)
   Valence                   31.91018 ( 99.7193% of  32)
   Natural Minimal Basis     41.90753 ( 99.7798% of  42)
   Natural Rydberg Basis      0.09247 (  0.2202% of  42)
 --------------------------------------------------------

    Atom  No          Natural Electron Configuration
 ----------------------------------------------------------------------------
      C    1      [core]2S( 1.01)2p( 2.86)3p( 0.01)3d( 0.01)
      H    2            1S( 0.83)
      C    3      [core]2S( 1.05)2p( 3.42)3p( 0.01)3d( 0.01)
      H    4            1S( 0.79)
      H    5            1S( 0.79)
      F    6      [core]2S( 1.83)2p( 5.60)
      C    7      [core]2S( 1.10)2p( 3.58)3p( 0.01)
      H    8            1S( 0.81)
      C    9      [core]2S( 1.04)2p( 3.39)3p( 0.01)3d( 0.01)
      H   10            1S( 0.78)
      H   11            1S( 0.80)
      H   12            1S( 0.79)
      H   13            1S( 0.79)
      H   14            1S( 0.66)


 NBO analysis skipped by request.
 Leave Link  607 at Thu Mar 12 14:21:50 2020, MaxMem=   134217728 cpu:               1.1 elap:               0.1
 (Enter /home/soft/g16/l9999.exe)

 Test job not archived.
 1\1\GINC-NODE07\SP\RHF\6-31G(d,p)\C4H9F1\ROOT\12-Mar-2020\0\\#p hf/6-3
 1g** pop=npa charge nosymm\\Atom number=14\\0,1\C,0,-5.70334476,0.0335
 0295,-0.55282649\H,0,-5.30663952,0.49443822,0.32755049\C,0,-5.17790776
 ,0.76996336,-1.79907768\H,0,-5.48466583,1.79443926,-1.76374191\H,0,-5.
 57461301,0.30902809,-2.67945466\F,0,-5.31631356,-1.2590601,-0.597409\C
 ,0,-3.11457255,1.43180701,-3.07535251\H,0,-3.42133061,2.45628291,-3.04
 001674\C,0,-3.64000955,0.6953466,-1.82910132\H,0,-3.33325148,-0.329129
 31,-1.86443708\H,0,-3.2433043,1.15628186,-0.94872434\H,0,-6.77188443,0
 .08534706,-0.53196591\H,0,-3.51127779,0.97087174,-3.95572949\H,0,-2.04
 603288,1.37996289,-3.09621309\\Version=ES64L-G16RevA.03\HF=-256.842508
 2\RMSD=6.620e-09\Dipole=0.0698717,0.5914317,-0.0346584\Quadrupole=1.30
 3841,-2.230025,0.926184,-5.0049324,-1.9740568,-0.6621884\PG=C01 [X(C4H
 9F1)]\\@


 SEE YOU NOW,
 YOUR BAIT OF FALSEHOOD TAKES THIS CARP OF TRUTH.
 AND THUS DO WE OF WISDOM AND OF REACH...
 BY INDIRECTIONS FIND DIRECTIONS OUT.    -- HAMLET, II, 1
 Job cpu time:       0 days  0 hours  0 minutes 24.9 seconds.
 Elapsed time:       0 days  0 hours  0 minutes  2.3 seconds.
 File lengths (MBytes):  RWF=     72 Int=      0 D2E=      0 Chk=      8 Scr=      8
 Normal termination of Gaussian 16 at Thu Mar 12 14:21:50 2020.
