#INFO: **** input file is /home/liwei01/wsr/dftpart/test_2body/c8b/gfea_c8.py ****
from dftpart import gfea3
from pyscf import lib

par = 8
with lib.with_omp_threads(par):
    fr0 = gfea3.GFEA()
    fr0.inputstyle = 'frg'
    fr0.method = ['hf', '6-31gss','charge']
    fr0.gjfname = 'c8b'
    fr0.output = 'c8b'
    fr0.verbose = 9
    fr0.showinter = True
    fr0.do_deriv = True
    fr0.kernel()

#INFO: ******************** input file end ********************


System: uname_result(system='Linux', node='master', release='3.10.0-693.el7.x86_64', version='#1 SMP Tue Aug 22 21:09:27 UTC 2017', machine='x86_64', processor='x86_64')  Threads 8
Python 3.6.4 |Anaconda, Inc.| (default, Jan 16 2018, 18:10:19) 
[GCC 7.2.0]
numpy 1.14.0  scipy 1.0.0
Date: Sun Apr 12 21:31:00 2020
PySCF version 1.6.1
PySCF path  /home/liwei01/zcheng/pyscf/pyscf
GIT HEAD      ref: refs/heads/master
GIT master branch  3adc7fd25839fe674469a52b764c3661e32d7318

[CONFIG] DEBUG = False
[CONFIG] MAX_MEMORY = 4000
[CONFIG] TMPDIR = .
[CONFIG] UNIT = angstrom
[CONFIG] VERBOSE = 3
[CONFIG] conf_file = None
[INPUT] verbose = 9
[INPUT] max_memory = 4000 
[INPUT] num. atoms = 14
[INPUT] num. electrons = 42
[INPUT] charge = 0
[INPUT] spin (= nelec alpha-beta = 2S) = 0
[INPUT] symmetry False subgroup None
[INPUT] Mole.unit = angstrom
[INPUT]  1 C     -5.703344760000   0.033502950000  -0.552826490000 AA  -10.777759590373   0.063311399865  -1.044690660505 Bohr
[INPUT]  2 H     -5.306639520000   0.494438220000   0.327550490000 AA  -10.028095334593   0.934352821317   0.618980718067 Bohr
[INPUT]  3 C     -5.177907760000   0.769963360000  -1.799077680000 AA   -9.784827564660   1.455019876350  -3.399764092018 Bohr
[INPUT]  4 H     -5.484665830000   1.794439260000  -1.763741910000 AA  -10.364516303460   3.390998748567  -3.332989164317 Bohr
[INPUT]  5 H     -5.574613010000   0.309028090000  -2.679454660000 AA  -10.534491839337   0.583978454897  -5.063435470590 Bohr
[INPUT]  6 F     -5.316313560000  -1.259060100000  -0.597409000000 AA  -10.046376620711  -2.379278763367  -1.128939394350 Bohr
[INPUT]  7 C     -3.114572550000   1.431807010000  -3.075352510000 AA   -5.885689114588   2.705723112132  -5.811573980394 Bohr
[INPUT]  8 H     -3.421330610000   2.456282910000  -3.040016740000 AA   -6.465377834491   4.641701984350  -5.744799052693 Bohr
[INPUT]  9 C     -3.640009550000   0.695346600000  -1.829101320000 AA   -6.878621140301   1.314014635647  -3.456500548880 Bohr
[INPUT] 10 H     -3.333251480000  -0.329129310000  -1.864437080000 AA   -6.298932401501  -0.621964255467  -3.523275457684 Bohr
[INPUT] 11 H     -3.243304300000   1.156281860000  -0.948724340000 AA   -6.128956865624   2.185056038203  -1.792829170309 Bohr
[INPUT] 12 H     -6.771884430000   0.085347060000  -0.531965910000 AA  -12.797006919906   0.161282568937  -1.005269877505 Bohr
[INPUT] 13 H     -3.511277790000   0.970871740000  -3.955729490000 AA   -6.635353370368   1.834681690680  -7.475245358965 Bohr
[INPUT] 14 H     -2.046032880000   1.379962890000  -3.096213090000 AA   -3.866441785055   2.607751924163  -5.850994763393 Bohr
[INPUT] ---------------- BASIS SET ---------------- 
[INPUT] l, kappa, [nprim/nctr], expnt,             c_1 c_2 ...
[INPUT] F
[INPUT] 0    0    [6    /1   ]  7001.71309        0.0018196169
                                1051.36609        0.0139160796
                                239.28569         0.0684053245
                                67.3974453        0.23318576
                                21.5199573        0.471267439
                                7.4031013         0.356618546
[INPUT] 0    0    [3    /1   ]  20.8479528        -0.108506975
                                4.80830834        -0.146451658
                                1.34406986        1.12868858
[INPUT] 0    0    [1    /1   ]  0.358151393          1
[INPUT] 1    0    [3    /1   ]  20.8479528        0.0716287243
                                4.80830834        0.345912103
                                1.34406986        0.722469957
[INPUT] 1    0    [1    /1   ]  0.358151393          1
[INPUT] 2    0    [1    /1   ]  0.8                  1
[INPUT] C
[INPUT] 0    0    [6    /1   ]  3047.5249         0.0018347
                                457.36951         0.0140373
                                103.94869         0.0688426
                                29.210155         0.2321844
                                9.286663          0.4679413
                                3.163927          0.362312
[INPUT] 0    0    [3    /1   ]  7.8682724         -0.1193324
                                1.8812885         -0.1608542
                                0.5442493         1.1434564
[INPUT] 0    0    [1    /1   ]  0.1687144            1
[INPUT] 1    0    [3    /1   ]  7.8682724         0.0689991
                                1.8812885         0.316424
                                0.5442493         0.7443083
[INPUT] 1    0    [1    /1   ]  0.1687144            1
[INPUT] 2    0    [1    /1   ]  0.8                  1
[INPUT] H
[INPUT] 0    0    [3    /1   ]  18.731137         0.0334946
                                2.8253937         0.23472695
                                0.6401217         0.81375733
[INPUT] 0    0    [1    /1   ]  0.1612778            1
[INPUT] 1    0    [1    /1   ]  1.1                  1

nuclear repulsion = 188.185925753984
number of shells = 57
number of NR pGTOs = 198
number of NR cGTOs = 115
basis = 6-31gss
ecp = {}
bas 0, expnt(s) = [3047.5249    457.36951   103.94869    29.210155    9.286663    3.163927]
bas 1, expnt(s) = [7.8682724 1.8812885 0.5442493]
bas 2, expnt(s) = [0.1687144]
bas 3, expnt(s) = [7.8682724 1.8812885 0.5442493]
bas 4, expnt(s) = [0.1687144]
bas 5, expnt(s) = [0.8]
bas 6, expnt(s) = [18.731137   2.8253937  0.6401217]
bas 7, expnt(s) = [0.1612778]
bas 8, expnt(s) = [1.1]
bas 9, expnt(s) = [3047.5249    457.36951   103.94869    29.210155    9.286663    3.163927]
bas 10, expnt(s) = [7.8682724 1.8812885 0.5442493]
bas 11, expnt(s) = [0.1687144]
bas 12, expnt(s) = [7.8682724 1.8812885 0.5442493]
bas 13, expnt(s) = [0.1687144]
bas 14, expnt(s) = [0.8]
bas 15, expnt(s) = [18.731137   2.8253937  0.6401217]
bas 16, expnt(s) = [0.1612778]
bas 17, expnt(s) = [1.1]
bas 18, expnt(s) = [18.731137   2.8253937  0.6401217]
bas 19, expnt(s) = [0.1612778]
bas 20, expnt(s) = [1.1]
bas 21, expnt(s) = [7001.71309   1051.36609    239.28569     67.3974453   21.5199573
    7.4031013]
bas 22, expnt(s) = [20.8479528   4.80830834  1.34406986]
bas 23, expnt(s) = [0.35815139]
bas 24, expnt(s) = [20.8479528   4.80830834  1.34406986]
bas 25, expnt(s) = [0.35815139]
bas 26, expnt(s) = [0.8]
bas 27, expnt(s) = [3047.5249    457.36951   103.94869    29.210155    9.286663    3.163927]
bas 28, expnt(s) = [7.8682724 1.8812885 0.5442493]
bas 29, expnt(s) = [0.1687144]
bas 30, expnt(s) = [7.8682724 1.8812885 0.5442493]
bas 31, expnt(s) = [0.1687144]
bas 32, expnt(s) = [0.8]
bas 33, expnt(s) = [18.731137   2.8253937  0.6401217]
bas 34, expnt(s) = [0.1612778]
bas 35, expnt(s) = [1.1]
bas 36, expnt(s) = [3047.5249    457.36951   103.94869    29.210155    9.286663    3.163927]
bas 37, expnt(s) = [7.8682724 1.8812885 0.5442493]
bas 38, expnt(s) = [0.1687144]
bas 39, expnt(s) = [7.8682724 1.8812885 0.5442493]
bas 40, expnt(s) = [0.1687144]
bas 41, expnt(s) = [0.8]
bas 42, expnt(s) = [18.731137   2.8253937  0.6401217]
bas 43, expnt(s) = [0.1612778]
bas 44, expnt(s) = [1.1]
bas 45, expnt(s) = [18.731137   2.8253937  0.6401217]
bas 46, expnt(s) = [0.1612778]
bas 47, expnt(s) = [1.1]
bas 48, expnt(s) = [18.731137   2.8253937  0.6401217]
bas 49, expnt(s) = [0.1612778]
bas 50, expnt(s) = [1.1]
bas 51, expnt(s) = [18.731137   2.8253937  0.6401217]
bas 52, expnt(s) = [0.1612778]
bas 53, expnt(s) = [1.1]
bas 54, expnt(s) = [18.731137   2.8253937  0.6401217]
bas 55, expnt(s) = [0.1612778]
bas 56, expnt(s) = [1.1]
CPU time:        85.05
arg.atm = [[ 6 20  1 23  0  0]
 [ 1 24  1 27  0  0]
 [ 6 28  1 31  0  0]
 [ 1 32  1 35  0  0]
 [ 1 36  1 39  0  0]
 [ 9 40  1 43  0  0]
 [ 6 44  1 47  0  0]
 [ 1 48  1 51  0  0]
 [ 6 52  1 55  0  0]
 [ 1 56  1 59  0  0]
 [ 1 60  1 63  0  0]
 [ 1 64  1 67  0  0]
 [ 1 68  1 71  0  0]
 [ 1 72  1 75  0  0]]
arg.bas = [[  0   0   6   1   0 106 112   0]
 [  0   0   3   1   0 118 121   0]
 [  0   0   1   1   0 124 125   0]
 [  0   1   3   1   0 126 129   0]
 [  0   1   1   1   0 132 133   0]
 [  0   2   1   1   0 134 135   0]
 [  1   0   3   1   0 136 139   0]
 [  1   0   1   1   0 142 143   0]
 [  1   1   1   1   0 144 145   0]
 [  2   0   6   1   0 106 112   0]
 [  2   0   3   1   0 118 121   0]
 [  2   0   1   1   0 124 125   0]
 [  2   1   3   1   0 126 129   0]
 [  2   1   1   1   0 132 133   0]
 [  2   2   1   1   0 134 135   0]
 [  3   0   3   1   0 136 139   0]
 [  3   0   1   1   0 142 143   0]
 [  3   1   1   1   0 144 145   0]
 [  4   0   3   1   0 136 139   0]
 [  4   0   1   1   0 142 143   0]
 [  4   1   1   1   0 144 145   0]
 [  5   0   6   1   0  76  82   0]
 [  5   0   3   1   0  88  91   0]
 [  5   0   1   1   0  94  95   0]
 [  5   1   3   1   0  96  99   0]
 [  5   1   1   1   0 102 103   0]
 [  5   2   1   1   0 104 105   0]
 [  6   0   6   1   0 106 112   0]
 [  6   0   3   1   0 118 121   0]
 [  6   0   1   1   0 124 125   0]
 [  6   1   3   1   0 126 129   0]
 [  6   1   1   1   0 132 133   0]
 [  6   2   1   1   0 134 135   0]
 [  7   0   3   1   0 136 139   0]
 [  7   0   1   1   0 142 143   0]
 [  7   1   1   1   0 144 145   0]
 [  8   0   6   1   0 106 112   0]
 [  8   0   3   1   0 118 121   0]
 [  8   0   1   1   0 124 125   0]
 [  8   1   3   1   0 126 129   0]
 [  8   1   1   1   0 132 133   0]
 [  8   2   1   1   0 134 135   0]
 [  9   0   3   1   0 136 139   0]
 [  9   0   1   1   0 142 143   0]
 [  9   1   1   1   0 144 145   0]
 [ 10   0   3   1   0 136 139   0]
 [ 10   0   1   1   0 142 143   0]
 [ 10   1   1   1   0 144 145   0]
 [ 11   0   3   1   0 136 139   0]
 [ 11   0   1   1   0 142 143   0]
 [ 11   1   1   1   0 144 145   0]
 [ 12   0   3   1   0 136 139   0]
 [ 12   0   1   1   0 142 143   0]
 [ 12   1   1   1   0 144 145   0]
 [ 13   0   3   1   0 136 139   0]
 [ 13   0   1   1   0 142 143   0]
 [ 13   1   1   1   0 144 145   0]]
arg.env = [ 1.37036000e+02  0.00000000e+00  0.00000000e+00  0.00000000e+00
  0.00000000e+00  0.00000000e+00  0.00000000e+00  0.00000000e+00
  0.00000000e+00  0.00000000e+00  0.00000000e+00  0.00000000e+00
  0.00000000e+00  0.00000000e+00  0.00000000e+00  0.00000000e+00
  0.00000000e+00  0.00000000e+00  0.00000000e+00  0.00000000e+00
 -1.07777596e+01  6.33113999e-02 -1.04469066e+00  0.00000000e+00
 -1.00280953e+01  9.34352821e-01  6.18980718e-01  0.00000000e+00
 -9.78482756e+00  1.45501988e+00 -3.39976409e+00  0.00000000e+00
 -1.03645163e+01  3.39099875e+00 -3.33298916e+00  0.00000000e+00
 -1.05344918e+01  5.83978455e-01 -5.06343547e+00  0.00000000e+00
 -1.00463766e+01 -2.37927876e+00 -1.12893939e+00  0.00000000e+00
 -5.88568911e+00  2.70572311e+00 -5.81157398e+00  0.00000000e+00
 -6.46537783e+00  4.64170198e+00 -5.74479905e+00  0.00000000e+00
 -6.87862114e+00  1.31401464e+00 -3.45650055e+00  0.00000000e+00
 -6.29893240e+00 -6.21964255e-01 -3.52327546e+00  0.00000000e+00
 -6.12895687e+00  2.18505604e+00 -1.79282917e+00  0.00000000e+00
 -1.27970069e+01  1.61282569e-01 -1.00526988e+00  0.00000000e+00
 -6.63535337e+00  1.83468169e+00 -7.47524536e+00  0.00000000e+00
 -3.86644179e+00  2.60775192e+00 -5.85099476e+00  0.00000000e+00
  7.00171309e+03  1.05136609e+03  2.39285690e+02  6.73974453e+01
  2.15199573e+01  7.40310130e+00  3.51882946e+00  6.49153500e+00
  1.05145933e+01  1.38579703e+01  1.18963440e+01  4.04370270e+00
  2.08479528e+01  4.80830834e+00  1.34406986e+00 -2.67467022e+00
 -1.20144405e+00  3.55963557e+00  3.58151393e-01  1.16967446e+00
  2.08479528e+01  4.80830834e+00  1.34406986e+00  9.30895386e+00
  7.18522772e+00  3.05022227e+00  3.58151393e-01  8.08290917e-01
  8.00000000e-01  1.76578110e+00  3.04752490e+03  4.57369510e+02
  1.03948690e+02  2.92101550e+01  9.28666300e+00  3.16392700e+00
  1.90125588e+00  3.50751108e+00  5.66221808e+00  7.37052623e+00
  6.28928397e+00  2.17153894e+00  7.86827240e+00  1.88128850e+00
  5.44249300e-01 -1.41639039e+00 -6.52813326e-01  1.83055623e+00
  1.68714400e-01  6.65088040e-01  7.86827240e+00  1.88128850e+00
  5.44249300e-01  2.65263212e+00  2.03386926e+00  1.01504332e+00
  1.68714400e-01  3.15445679e-01  8.00000000e-01  1.76578110e+00
  1.87311370e+01  2.82539370e+00  6.40121700e-01  7.61926220e-01
  1.29237100e+00  1.47131900e+00  1.61277800e-01  6.42977783e-01
  1.10000000e+00  3.28643653e+00]
ecpbas  = []


******** <class 'pyscf.qmmm.itrf.mm_charge.<locals>.QMMM'> ********
method = QMMM-RHF
initial guess = minao
damping factor = 0
level shift factor = 0
DIIS = <class 'pyscf.scf.diis.CDIIS'>
DIIS start cycle = 1
DIIS space = 8
SCF tol = 1e-09
SCF gradient tol = None
max. SCF cycles = 50
direct_scf = True
direct_scf_tol = 1e-13
chkfile to save SCF result = /home/liwei01/wsr/dftpart/test_2body/c8b/tmpt4694noe
max_memory 4000 MB (current use 238 MB)
** Add background charges for <class 'pyscf.scf.hf.RHF'> **
Charge      Location
-0.061835    [-13.68396603   0.20431664  -0.9879542 ]
0.183434    [-14.26365475   2.14029551  -0.92117928]
0.186056    [-14.43363029  -0.66672476  -2.65162558]
-0.197682    [-2.97948267  2.56471785 -5.86831044]
0.207616    [-2.39979393  0.62873898 -5.93508535]
0.179451    [-2.22981842  3.43575927 -4.20463906]
-0.928603    [-2.03168392  3.89316686 -8.11633506]
0.372877    [-2.57344909  5.7024929  -8.05392859]
0.377418    [-0.14453687  3.80160502 -8.15317693]
-0.807128    [-14.60597433  -1.08798408   1.1988997 ]
0.489623    [-16.41763549  -1.00008471   1.23426789]
Set gradient conv threshold to 3.16228e-05
Nelec from initial guess = 41.964394215859826
cond(S) = 1252.4554234763843
E1 = -717.0135247834028  E_coul = 272.5239687792475
init E= -257.308954284876
    CPU time for initialize scf      2.60 sec, wall time      0.66 sec
  HOMO = -0.326768628884311  LUMO = 0.156851768769362
  mo_energy =
[-26.46108613 -11.43685489 -11.43082562 -11.40419151 -11.40335091
  -1.87470344  -1.57053571  -1.28767618  -1.03566767  -0.93728997
  -0.73966202  -0.71439902  -0.68199525  -0.6306838   -0.52705703
  -0.48276885  -0.47665001  -0.41326605  -0.39753383  -0.37770866
  -0.32676863   0.15685177   0.1869788    0.19364528   0.21697067
   0.22852888   0.26800724   0.27763945   0.28752168   0.30014406
   0.30177583   0.32403251   0.33409609   0.36755227   0.64737708
   0.66460248   0.67611284   0.68944218   0.71019511   0.76212686
   0.78354459   0.80395475   0.82601505   0.9076783    0.92542454
   1.01455145   1.01995509   1.04031746   1.07414884   1.0859566
   1.09787413   1.10770628   1.12320335   1.14366653   1.16057994
   1.18216386   1.39033064   1.41719571   1.45040939   1.52561054
   1.57732027   1.62016301   1.62542349   1.64812869   1.78652967
   1.80878187   1.86905418   1.88564014   1.9213417    1.97785643
   2.02294115   2.07227958   2.09780472   2.19188679   2.23682134
   2.26523271   2.27305747   2.30523879   2.32780285   2.3411392
   2.34595373   2.38312849   2.41178942   2.44612959   2.46392527
   2.48923805   2.53462654   2.55449539   2.5967052    2.68860449
   2.72843805   2.76536941   2.78385155   2.85388942   2.90093169
   2.96816834   2.99475871   3.04133231   3.07093492   3.10488553
   3.15529045   3.21075536   3.2257062    3.2305871    3.2559574
   3.3753088    3.53837959   3.59686625   3.62295829   3.66981053
   3.68615153   3.80323841   3.85311538   3.88147319   3.89146681]
E1 = -723.3412368252153  E_coul = 279.98244719513997
cycle= 1 E= -256.178187910796  delta_E= 1.13  |g|= 0.515  |ddm|= 2.96
    CPU time for cycle= 1      0.35 sec, wall time      0.09 sec
diis-norm(errvec)=1.00124
diis-c [-1.00249134  1.        ]
  HOMO = -0.390722283965251  LUMO = 0.243556281016127
  mo_energy =
[-26.04671447 -11.36863712 -11.1670027  -11.14758486 -11.11558087
  -1.5022632   -1.05163097  -0.95910107  -0.8448089   -0.78036183
  -0.66623288  -0.64437423  -0.59810665  -0.59147432  -0.52133255
  -0.51061394  -0.4729012   -0.4611023   -0.44995882  -0.43338831
  -0.39072228   0.24355628   0.26942749   0.29375336   0.31080526
   0.34031022   0.34201182   0.35366004   0.37117533   0.38037006
   0.38554852   0.43699732   0.45390796   0.47075555   0.73855332
   0.74871452   0.75722809   0.77647846   0.81227973   0.8575618
   0.85918925   0.94511533   0.97649451   1.0216499    1.05288422
   1.08851906   1.13266807   1.14139535   1.17695909   1.18315759
   1.20538677   1.22166318   1.22463962   1.2473119    1.26464085
   1.29749601   1.51758958   1.54009604   1.58141308   1.65145164
   1.69927326   1.74080382   1.77718059   1.78692461   1.88534025
   1.90282      1.98886237   2.00973514   2.04469431   2.10698038
   2.1611831    2.22007364   2.24158724   2.32996392   2.35554948
   2.36778358   2.38854082   2.39757771   2.41243076   2.45116891
   2.46005923   2.48513006   2.51570195   2.52804796   2.58748934
   2.59142531   2.63604447   2.65361807   2.69590131   2.7888907
   2.81104297   2.85733483   2.89106978   2.96473254   3.01761677
   3.07076326   3.09298441   3.14266639   3.1874399    3.20631261
   3.26244933   3.2875732    3.33437572   3.34149836   3.3674906
   3.49917104   3.65166234   3.69413296   3.72719285   3.78282463
   3.80503847   3.88404118   3.96039735   4.00261096   4.027468  ]
E1 = -721.7737993041646  E_coul = 278.3592525901187
cycle= 2 E= -256.233944994767  delta_E= -0.0558  |g|= 0.241  |ddm|= 0.472
    CPU time for cycle= 2      0.39 sec, wall time      0.10 sec
diis-norm(errvec)=0.42503
diis-c [-0.11917918  0.20873677  0.79126323]
  HOMO = -0.407101015470366  LUMO = 0.245535298085489
  mo_energy =
[-26.29662531 -11.24318348 -11.20647482 -11.20456898 -11.1705493
  -1.57674319  -1.06147093  -0.96162906  -0.84795058  -0.79095249
  -0.68558157  -0.67397122  -0.64162855  -0.61515335  -0.54815972
  -0.52578315  -0.50750158  -0.48020263  -0.46781797  -0.45165746
  -0.40710102   0.2455353    0.27713957   0.29559527   0.31026267
   0.34248882   0.3496386    0.35700462   0.36693316   0.38241429
   0.38619238   0.43200004   0.46024467   0.46730637   0.73470078
   0.74482787   0.75148979   0.76641707   0.81673198   0.85997189
   0.87049367   0.9413191    0.95734849   1.01513784   1.03909404
   1.11236385   1.12949304   1.14967967   1.17166481   1.19651242
   1.20350702   1.21501347   1.22503011   1.24085216   1.25790442
   1.29069196   1.49587553   1.52951645   1.56431317   1.62018222
   1.67776187   1.71946348   1.72611995   1.75004168   1.87464178
   1.90472516   1.97977949   1.99502635   2.0327654    2.10249967
   2.13040607   2.19376888   2.22132765   2.31220411   2.34316545
   2.35723703   2.37826566   2.39530233   2.42173936   2.44745865
   2.45552348   2.49231065   2.50953229   2.53118393   2.58285804
   2.58404893   2.62993392   2.65038626   2.69638095   2.78960936
   2.82195023   2.85967069   2.8838025    2.96311281   3.01633641
   3.06859102   3.09403914   3.14610721   3.18401015   3.21094078
   3.25735312   3.30520903   3.32947782   3.33813137   3.36061077
   3.48869714   3.65647054   3.71057437   3.73366583   3.78491438
   3.80087419   3.91210775   3.96316438   3.99217174   4.01243139]
E1 = -722.5518012165714  E_coul = 279.1272966783789
cycle= 3 E= -256.243902818914  delta_E= -0.00996  |g|= 0.0705  |ddm|= 0.19
    CPU time for cycle= 3      0.46 sec, wall time      0.12 sec
diis-norm(errvec)=0.12271
diis-c [-0.0029972  -0.0966873   0.08234806  1.01433925]
  HOMO = -0.40902023473014  LUMO = 0.247756151919276
  mo_energy =
[-26.2305929  -11.26336421 -11.20434645 -11.19464077 -11.16534537
  -1.55797725  -1.05818763  -0.95886969  -0.84349495  -0.78639743
  -0.67717522  -0.66425982  -0.63130098  -0.61039373  -0.54414425
  -0.52359832  -0.50346617  -0.47865835  -0.46586925  -0.45132154
  -0.40902023   0.24775615   0.2785982    0.29756827   0.31254049
   0.34542314   0.35054035   0.35930816   0.37011209   0.38378549
   0.3888975    0.43481068   0.46241514   0.46939551   0.73560555
   0.74527524   0.75233669   0.76842973   0.81798799   0.86050454
   0.86984935   0.94177226   0.95993017   1.01667824   1.04184876
   1.11032923   1.13204727   1.15240354   1.17368934   1.20024664
   1.20501618   1.21849252   1.22737212   1.24372877   1.2606448
   1.29570183   1.50184687   1.53382568   1.56946019   1.62591036
   1.68355709   1.72659058   1.7376041    1.75339384   1.87776188
   1.90695336   1.98339863   1.99994774   2.03629535   2.10421788
   2.13759933   2.19965143   2.22614961   2.3173337    2.35030408
   2.36281824   2.38099937   2.40108659   2.4244133    2.45162782
   2.45987913   2.49569355   2.51402815   2.53403324   2.58648899
   2.58899692   2.63519338   2.65497605   2.69966202   2.79292903
   2.82423372   2.86290676   2.88813039   2.9664532    3.01969526
   3.07300828   3.0978045    3.14796696   3.18767074   3.21444055
   3.26182852   3.3058765    3.33429054   3.3412696    3.36438311
   3.49298824   3.66168992   3.71381101   3.73642243   3.78874998
   3.80534799   3.91261951   3.9657198    3.99749529   4.0181145 ]
E1 = -722.3896710844812  E_coul = 278.9641100355981
cycle= 4 E= -256.244959329604  delta_E= -0.00106  |g|= 0.0102  |ddm|= 0.0563
    CPU time for cycle= 4      0.99 sec, wall time      0.27 sec
diis-norm(errvec)=0.0176956
diis-c [-2.02161303e-04 -1.64493623e-02 -8.65753534e-03  1.23067293e-01
  9.02039605e-01]
  HOMO = -0.408330140185665  LUMO = 0.248328401288836
  mo_energy =
[-26.24169663 -11.2650602  -11.19828262 -11.1920074  -11.16228211
  -1.56211915  -1.05622353  -0.95802449  -0.84326173  -0.7853865
  -0.67888645  -0.66668865  -0.63332927  -0.60990778  -0.54366506
  -0.52268254  -0.50397162  -0.47901711  -0.46492737  -0.45073083
  -0.40833014   0.2483284    0.27889451   0.29830017   0.31318689
   0.34563457   0.35064824   0.35973059   0.37065395   0.3839929
   0.38886644   0.43595065   0.46273068   0.47023727   0.73603394
   0.74608826   0.75314291   0.76903777   0.81792376   0.86013486
   0.86954322   0.94305894   0.96154526   1.01767406   1.04306974
   1.11032969   1.13339057   1.15276665   1.17402135   1.20133096
   1.20523841   1.2194011    1.22799638   1.24442871   1.26139283
   1.29628087   1.50148193   1.5340044    1.56958705   1.6252639
   1.68365819   1.72618399   1.73557519   1.75268342   1.87831774
   1.90666775   1.98457455   2.00092606   2.03667317   2.10499589
   2.13622378   2.20000225   2.22694322   2.31689226   2.34902502
   2.36112043   2.38136912   2.40152063   2.42373726   2.45219502
   2.46085615   2.49583917   2.51477593   2.53404988   2.58735614
   2.58989441   2.63558868   2.65542889   2.70029734   2.7934176
   2.82456696   2.86340984   2.88897395   2.96714031   3.02036939
   3.07371342   3.09834035   3.14813641   3.18851402   3.21519679
   3.262431     3.3055863    3.33516246   3.34203114   3.36505117
   3.49098071   3.66267098   3.71435403   3.73722291   3.78965191
   3.80627748   3.91270386   3.96671387   3.99835641   4.01964773]
E1 = -722.3857611006606  E_coul = 278.960175714986
cycle= 5 E= -256.244983666396  delta_E= -2.43e-05  |g|= 0.00297  |ddm|= 0.0123
    CPU time for cycle= 5      0.72 sec, wall time      0.20 sec
diis-norm(errvec)=0.00566011
diis-c [-1.24721943e-05  5.13582357e-03 -6.52116628e-03 -6.16377822e-02
  1.23717503e-01  9.39305621e-01]
  HOMO = -0.409041542850803  LUMO = 0.248058549569065
  mo_energy =
[-26.23992204 -11.26430224 -11.20052927 -11.19361273 -11.16334538
  -1.56145131  -1.05694772  -0.95838322  -0.84350547  -0.78585183
  -0.67866877  -0.66636683  -0.63309493  -0.61027376  -0.54417963
  -0.52322357  -0.50429967  -0.47925341  -0.46546048  -0.45129647
  -0.40904154   0.24805855   0.27870909   0.2980416    0.31292088
   0.34549016   0.3504678    0.35948393   0.37037609   0.38382763
   0.3887214    0.43542538   0.46241766   0.46981766   0.73563127
   0.74555147   0.75260937   0.76859925   0.81768375   0.85998813
   0.86936111   0.94238875   0.96069558   1.01703528   1.04245135
   1.11018778   1.13281196   1.15238932   1.17371567   1.20083926
   1.20499228   1.21891513   1.22756534   1.24399778   1.26096901
   1.2958436    1.50144906   1.53361465   1.56928239   1.62528297
   1.68334196   1.72600587   1.73582018   1.75262931   1.877932
   1.90647767   1.98393571   2.00038438   2.03624271   2.1044761
   2.13633506   2.19956222   2.22641293   2.316686     2.3490936
   2.36129755   2.38095444   2.40113752   2.42363634   2.4517624
   2.4603081    2.49554982   2.5142943    2.53376192   2.58683857
   2.58946921   2.63524268   2.65508047   2.69990301   2.7930439
   2.82422798   2.86308061   2.88846665   2.96669619   3.01987501
   3.07330632   3.09787948   3.14778222   3.18798813   3.21472404
   3.26205368   3.30545886   3.33465201   3.34157996   3.36461724
   3.49127852   3.66215967   3.71397217   3.73670458   3.78917405
   3.80575385   3.91243573   3.966183     3.99784562   4.01895014]
E1 = -722.3870828874506  E_coul = 278.9614947051257
cycle= 6 E= -256.244986463046  delta_E= -2.8e-06  |g|= 0.000642  |ddm|= 0.00351
    CPU time for cycle= 6      0.67 sec, wall time      0.18 sec
diis-norm(errvec)=0.00123999
diis-c [-7.57945187e-07  6.86265913e-04  1.28835745e-03 -4.53828170e-03
 -6.27350941e-02 -9.33399110e-02  1.15863866e+00]
  HOMO = -0.409026388797162  LUMO = 0.248087882046727
  mo_energy =
[-26.24004254 -11.26425508 -11.20030998 -11.19330275 -11.16335378
  -1.56154696  -1.05688146  -0.95836502  -0.84348294  -0.78580925
  -0.67869316  -0.66642477  -0.6331314   -0.61023532  -0.54416972
  -0.5231754   -0.50433275  -0.47925164  -0.46542371  -0.45126717
  -0.40902639   0.24808788   0.27873237   0.29807598   0.31295039
   0.3455105    0.35048873   0.35951157   0.37039145   0.38384214
   0.38874642   0.43547791   0.46244309   0.46985793   0.73564605
   0.74559117   0.75265073   0.76861727   0.817691     0.85999813
   0.8693725    0.94245244   0.96076268   1.01708673   1.04251045
   1.11022104   1.13287895   1.15243253   1.17375263   1.20087201
   1.20501602   1.21897148   1.22760622   1.24402066   1.2609944
   1.29583145   1.5014158    1.53363443   1.56928692   1.62525756
   1.68333442   1.72597578   1.73570428   1.75259771   1.8779462
   1.90648416   1.98399467   2.00040422   2.03626353   2.10452281
   2.13628851   2.19958849   2.22644755   2.31668993   2.34906618
   2.36126743   2.38098719   2.40113442   2.42365257   2.45177924
   2.46034355   2.49557478   2.51431684   2.53377284   2.58688813
   2.58949936   2.6352654    2.65510221   2.69992879   2.7930662
   2.82425466   2.86310709   2.88848973   2.96672615   3.01992467
   3.07333943   3.0979078    3.14781818   3.18803512   3.21477552
   3.26207232   3.30547543   3.33466315   3.34161559   3.36464273
   3.49123432   3.66219958   3.71400367   3.73676924   3.7892104
   3.80580447   3.91247491   3.96622482   3.99783546   4.01901603]
E1 = -722.3856015042172  E_coul = 278.96001309667616
cycle= 7 E= -256.244986688262  delta_E= -2.25e-07  |g|= 0.000166  |ddm|= 0.0013
    CPU time for cycle= 7      0.51 sec, wall time      0.14 sec
diis-norm(errvec)=0.000319408
diis-c [-4.63884222e-08 -3.46100665e-04  2.58618271e-04  3.66238179e-03
  2.85980676e-03 -5.13489002e-02 -1.28638896e-01  1.17355309e+00]
  HOMO = -0.409038016020892  LUMO = 0.2480847135067
  mo_energy =
[-26.24006542 -11.26429442 -11.20032541 -11.19339052 -11.16331524
  -1.56158082  -1.05690149  -0.95837642  -0.84349311  -0.78582104
  -0.67871156  -0.66644999  -0.63315032  -0.61024468  -0.54418041
  -0.52317569  -0.50435376  -0.47925854  -0.46542693  -0.45127681
  -0.40903802   0.24808471   0.27873132   0.29807441   0.31294606
   0.34550368   0.35048716   0.35950854   0.37039386   0.38384306
   0.38874147   0.43546976   0.46243721   0.46985023   0.73564137
   0.74558461   0.75264582   0.76861658   0.81767923   0.85998802
   0.86936394   0.94243591   0.96075153   1.01707763   1.04250072
   1.11021599   1.13287061   1.15242792   1.17374281   1.20087446
   1.20501448   1.21896064   1.22760613   1.24401894   1.26098945
   1.29584116   1.50140017   1.53361751   1.56927156   1.6252467
   1.68332492   1.72596048   1.73567426   1.75258201   1.87793942
   1.90647253   1.9839845    2.00040024   2.03625367   2.10450678
   2.13626727   2.1995691    2.22643341   2.31667489   2.34904827
   2.36125097   2.38097628   2.4011406    2.42364434   2.45178001
   2.46034166   2.49556802   2.51431631   2.53377517   2.58687547
   2.58949597   2.63526044   2.65509741   2.69992625   2.7930612
   2.82425123   2.86310312   2.88848852   2.96671989   3.019914
   3.0733355    3.09790573   3.14780983   3.18802595   3.21476965
   3.26206858   3.3054689    3.33466389   3.34160984   3.3646383
   3.49120756   3.6621967    3.7140043    3.73676463   3.78920701
   3.80579605   3.91247075   3.96622624   3.99784629   4.01900433]
E1 = -722.3858209534653  E_coul = 278.96023253129096
cycle= 8 E= -256.244986702895  delta_E= -1.46e-08  |g|= 4.23e-05  |ddm|= 0.000315
    CPU time for cycle= 8      0.45 sec, wall time      0.11 sec
diis-norm(errvec)=8.3163e-05
diis-c [-2.82064925e-09 -9.04025934e-05 -1.89353001e-05  8.26471128e-04
  4.32197293e-03 -4.61961001e-03 -8.75019046e-02  1.51675110e-01
  9.35407298e-01]
  HOMO = -0.409032651374183  LUMO = 0.248085956939701
  mo_energy =
[-26.24004939 -11.2642689  -11.20033393 -11.19335801 -11.16333394
  -1.56157487  -1.05689572  -0.95837277  -0.84348989  -0.7858167
  -0.67870514  -0.66644399  -0.63314342  -0.61023898  -0.54417857
  -0.52317668  -0.50435052  -0.47925481  -0.46542266  -0.45127141
  -0.40903265   0.24808596   0.2787333    0.29807644   0.31294775
   0.34550845   0.35048933   0.35950993   0.37039331   0.38384519
   0.3887453    0.43547401   0.46243916   0.46985364   0.73564457
   0.74558953   0.75264922   0.76861776   0.81768393   0.85999244
   0.86936774   0.94244352   0.96075553   1.01708105   1.04250491
   1.1102222    1.13287445   1.1524308    1.17375009   1.20087324
   1.20501642   1.21896632   1.22760603   1.24401968   1.2609929
   1.2958379    1.50140423   1.53362209   1.56927639   1.62525145
   1.68332656   1.72596256   1.73567655   1.75258605   1.87794316
   1.90647734   1.98398785   2.00040344   2.03625624   2.1045124
   2.13627174   2.19957416   2.22643921   2.31667901   2.34905336
   2.36125573   2.38098108   2.40113802   2.42364991   2.45178086
   2.4603424    2.49557358   2.51431731   2.53377623   2.58688091
   2.58950024   2.63526277   2.65510009   2.69992908   2.79306471
   2.82425465   2.86310758   2.88848997   2.96672355   3.01991824
   3.07333925   3.09790697   3.14781376   3.18803005   3.21477361
   3.26207258   3.30547426   3.33466438   3.34161313   3.36464129
   3.49121514   3.66219968   3.71400607   3.73676661   3.78921175
   3.80580061   3.91247476   3.9662265    3.9978427    4.01901086]
E1 = -722.3857273127494  E_coul = 278.9601388898397
cycle= 9 E= -256.244986703631  delta_E= -7.35e-10  |g|= 9.39e-06  |ddm|= 6.35e-05
    CPU time for cycle= 9      0.42 sec, wall time      0.11 sec
  HOMO = -0.409032574627477  LUMO = 0.248085979545969
  mo_energy =
[-26.24005117 -11.2642713  -11.20033217 -11.19336527 -11.1633299
  -1.56157628  -1.05689634  -0.95837274  -0.8434897   -0.78581706
  -0.67870602  -0.66644493  -0.63314403  -0.61023972  -0.54417868
  -0.52317595  -0.50435089  -0.47925511  -0.46542313  -0.45127178
  -0.40903257   0.24808598   0.27873324   0.29807616   0.31294755
   0.34550767   0.35048932   0.35950998   0.37039357   0.38384513
   0.38874489   0.43547336   0.46243909   0.46985337   0.73564443
   0.74558921   0.75264907   0.76861799   0.81768309   0.8599919
   0.86936763   0.94244251   0.9607555    1.01708085   1.04250416
   1.11022161   1.13287382   1.15243066   1.173749     1.20087371
   1.20501677   1.2189655    1.22760653   1.24401998   1.26099261
   1.29583868   1.50140379   1.5336214    1.56927578   1.62525104
   1.68332652   1.72596234   1.73567581   1.75258561   1.87794277
   1.90647679   1.98398755   2.0004033    2.03625615   2.10451173
   2.13627092   2.1995733    2.22643843   2.31667849   2.34905245
   2.36125515   2.38098058   2.40113913   2.42364943   2.45178115
   2.4603427    2.49557294   2.51431752   2.53377652   2.58688014
   2.58949967   2.63526259   2.65509996   2.69992896   2.79306444
   2.82425452   2.86310715   2.88848999   2.9667233    3.01991781
   3.07333889   3.0979072    3.14781358   3.18802961   3.2147732
   3.26207221   3.30547379   3.33466475   3.34161288   3.36464113
   3.49121405   3.66219948   3.71400632   3.7367667    3.78921115
   3.80580023   3.91247477   3.96622692   3.99784365   4.01900987]
E1 = -722.3857488119206  E_coul = 278.96016038897466
Extra cycle  E= -256.244986703667  delta_E= -3.63e-11  |g|= 3.73e-06  |ddm|= 1.46e-05
    CPU time for scf_cycle      7.92 sec, wall time      2.06 sec
    CPU time for SCF      7.93 sec, wall time      2.06 sec
converged SCF energy = -256.244986703667
