 Entering Gaussian System, Link 0=g16
 Input=c8b_2.gjf
 Output=c8b_2.log
 Initial command:
 /home/soft/g16/l1.exe "/tmp/liwei01/gaussian/liaokang/Gau-45314.inp" -scrdir="/tmp/liwei01/gaussian/liaokang/"
 Entering Link 1 = /home/soft/g16/l1.exe PID=     45315.
  
 Copyright (c) 1988,1990,1992,1993,1995,1998,2003,2009,2016,
            Gaussian, Inc.  All Rights Reserved.
  
 This is part of the Gaussian(R) 16 program.  It is based on
 the Gaussian(R) 09 system (copyright 2009, Gaussian, Inc.),
 the Gaussian(R) 03 system (copyright 2003, Gaussian, Inc.),
 the Gaussian(R) 98 system (copyright 1998, Gaussian, Inc.),
 the Gaussian(R) 94 system (copyright 1995, Gaussian, Inc.),
 the Gaussian 92(TM) system (copyright 1992, Gaussian, Inc.),
 the Gaussian 90(TM) system (copyright 1990, Gaussian, Inc.),
 the Gaussian 88(TM) system (copyright 1988, Gaussian, Inc.),
 the Gaussian 86(TM) system (copyright 1986, Carnegie Mellon
 University), and the Gaussian 82(TM) system (copyright 1983,
 Carnegie Mellon University). Gaussian is a federally registered
 trademark of Gaussian, Inc.
  
 This software contains proprietary and confidential information,
 including trade secrets, belonging to Gaussian, Inc.
  
 This software is provided under written license and may be
 used, copied, transmitted, or stored only in accord with that
 written license.
  
 The following legend is applicable only to US Government
 contracts under FAR:
  
                    RESTRICTED RIGHTS LEGEND
  
 Use, reproduction and disclosure by the US Government is
 subject to restrictions as set forth in subparagraphs (a)
 and (c) of the Commercial Computer Software - Restricted
 Rights clause in FAR 52.227-19.
  
 Gaussian, Inc.
 340 Quinnipiac St., Bldg. 40, Wallingford CT 06492
  
  
 ---------------------------------------------------------------
 Warning -- This program may not be used in any manner that
 competes with the business of Gaussian, Inc. or will provide
 assistance to any competitor of Gaussian, Inc.  The licensee
 of this program is prohibited from giving any competitor of
 Gaussian, Inc. access to this program.  By using this program,
 the user acknowledges that Gaussian, Inc. is engaged in the
 business of creating and licensing software in the field of
 computational chemistry and represents and warrants to the
 licensee that it is not a competitor of Gaussian, Inc. and that
 it will not use this program in any manner prohibited above.
 ---------------------------------------------------------------
  

 Cite this work as:
 Gaussian 16, Revision A.03,
 M. J. Frisch, G. W. Trucks, H. B. Schlegel, G. E. Scuseria, 
 M. A. Robb, J. R. Cheeseman, G. Scalmani, V. Barone, 
 G. A. Petersson, H. Nakatsuji, X. Li, M. Caricato, A. V. Marenich, 
 J. Bloino, B. G. Janesko, R. Gomperts, B. Mennucci, H. P. Hratchian, 
 J. V. Ortiz, A. F. Izmaylov, J. L. Sonnenberg, D. Williams-Young, 
 F. Ding, F. Lipparini, F. Egidi, J. Goings, B. Peng, A. Petrone, 
 T. Henderson, D. Ranasinghe, V. G. Zakrzewski, J. Gao, N. Rega, 
 G. Zheng, W. Liang, M. Hada, M. Ehara, K. Toyota, R. Fukuda, 
 J. Hasegawa, M. Ishida, T. Nakajima, Y. Honda, O. Kitao, H. Nakai, 
 T. Vreven, K. Throssell, J. A. Montgomery, Jr., J. E. Peralta, 
 F. Ogliaro, M. J. Bearpark, J. J. Heyd, E. N. Brothers, K. N. Kudin, 
 V. N. Staroverov, T. A. Keith, R. Kobayashi, J. Normand, 
 K. Raghavachari, A. P. Rendell, J. C. Burant, S. S. Iyengar, 
 J. Tomasi, M. Cossi, J. M. Millam, M. Klene, C. Adamo, R. Cammi, 
 J. W. Ochterski, R. L. Martin, K. Morokuma, O. Farkas, 
 J. B. Foresman, and D. J. Fox, Gaussian, Inc., Wallingford CT, 2016.
 
 ******************************************
 Gaussian 16:  ES64L-G16RevA.03 25-Dec-2016
                12-Mar-2020 
 ******************************************
 %chk=c8b_2.chk
 %nprocs=12
 Will use up to   12 processors via shared memory.
 %mem=1gb
 -----------------------------------
 #p hf/6-31g** pop=npa charge nosymm
 -----------------------------------
 1/18=10,28=-2,38=1,125=101,172=1/1;
 2/12=2,15=1,17=6,18=5,40=1/2;
 3/5=1,6=6,7=101,11=9,25=1,30=1/1,2,3;
 4//1;
 5/5=2,38=5/2;
 6/7=2,8=2,9=2,10=2,28=1,40=-1/1,7;
 99/5=1,9=1/99;
 Leave Link    1 at Thu Mar 12 14:21:44 2020, MaxMem=   134217728 cpu:               2.8 elap:               0.3
 (Enter /home/soft/g16/l101.exe)
 --------------
 Atom number=19
 --------------
 Symbolic Z-matrix:
 Charge =  0 Multiplicity = 1
 c                    -5.70334   0.0335   -0.55283 
 h                    -5.30664   0.49444   0.32755 
 c                    -5.17791   0.76996  -1.79908 
 h                    -5.48467   1.79444  -1.76374 
 h                    -5.57461   0.30903  -2.67945 
 f                    -5.31631  -1.25906  -0.59741 
 c                    -3.11457   1.43181  -3.07535 
 h                    -3.42133   2.45628  -3.04002 
 c                    -3.64001   0.69535  -1.8291 
 h                    -3.33325  -0.32913  -1.86444 
 h                    -3.2433    1.15628  -0.94872 
 c                    -1.57667   1.35719  -3.10538 
 h                    -1.26992   0.33271  -3.14071 
 h                    -1.17997   1.81813  -2.225 
 n                    -1.07512   2.06018  -4.29498 
 h                    -1.36181   3.01763  -4.26196 
 h                    -0.07649   2.01172  -4.31448 
 h                    -6.77188   0.08535  -0.53197 
 h                    -3.51128   0.97087  -3.95573 
 
 ITRead=  0  0  0  0  0  0  0  0  0  0  0  0  0  0  0  0  0  0  0
 MicOpt= -1 -1 -1 -1 -1 -1 -1 -1 -1 -1 -1 -1 -1 -1 -1 -1 -1 -1 -1
 NAtoms=     19 NQM=       19 NQMF=       0 NMMI=      0 NMMIF=      0
                NMic=       0 NMicF=      0.
                    Isotopes and Nuclear Properties:
 (Nuclear quadrupole moments (NQMom) in fm**2, nuclear magnetic moments (NMagM)
  in nuclear magnetons)

  Atom         1           2           3           4           5           6           7           8           9          10
 IAtWgt=          12           1          12           1           1          19          12           1          12           1
 AtmWgt=  12.0000000   1.0078250  12.0000000   1.0078250   1.0078250  18.9984033  12.0000000   1.0078250  12.0000000   1.0078250
 NucSpn=           0           1           0           1           1           1           0           1           0           1
 AtZEff=  -0.0000000  -0.0000000  -0.0000000  -0.0000000  -0.0000000  -0.0000000  -0.0000000  -0.0000000  -0.0000000  -0.0000000
 NQMom=    0.0000000   0.0000000   0.0000000   0.0000000   0.0000000   0.0000000   0.0000000   0.0000000   0.0000000   0.0000000
 NMagM=    0.0000000   2.7928460   0.0000000   2.7928460   2.7928460   2.6288670   0.0000000   2.7928460   0.0000000   2.7928460
 AtZNuc=   6.0000000   1.0000000   6.0000000   1.0000000   1.0000000   9.0000000   6.0000000   1.0000000   6.0000000   1.0000000

  Atom        11          12          13          14          15          16          17          18          19
 IAtWgt=           1          12           1           1          14           1           1           1           1
 AtmWgt=   1.0078250  12.0000000   1.0078250   1.0078250  14.0030740   1.0078250   1.0078250   1.0078250   1.0078250
 NucSpn=           1           0           1           1           2           1           1           1           1
 AtZEff=  -0.0000000  -0.0000000  -0.0000000  -0.0000000  -0.0000000  -0.0000000  -0.0000000  -0.0000000  -0.0000000
 NQMom=    0.0000000   0.0000000   0.0000000   0.0000000   2.0440000   0.0000000   0.0000000   0.0000000   0.0000000
 NMagM=    2.7928460   0.0000000   2.7928460   2.7928460   0.4037610   2.7928460   2.7928460   2.7928460   2.7928460
 AtZNuc=   1.0000000   6.0000000   1.0000000   1.0000000   7.0000000   1.0000000   1.0000000   1.0000000   1.0000000
 Background charge distribution read from input stream:
 Point Charges:
 XYZ=   -7.2412    0.1081   -0.5228 Q=   -0.0618 A=    0.0000 R=    0.0000 C=    0.0000
 XYZ=   -7.5480    1.1326   -0.4875 Q=    0.1834 A=    0.0000 R=    0.0000 C=    0.0000
 XYZ=   -7.6379   -0.3528   -1.4032 Q=    0.1861 A=    0.0000 R=    0.0000 C=    0.0000
 XYZ=   -7.7291   -0.5757    0.6344 Q=   -0.8071 A=    0.0000 R=    0.0000 C=    0.0000
 XYZ=   -8.6878   -0.5292    0.6531 Q=    0.4896 A=    0.0000 R=    0.0000 C=    0.0000
 Pt Chg Charge=             -0.0098 electrons
 Pt Chg Dipole moment (Debye):
    X=             -1.7927    Y=              1.6379    Z=             -2.4517  Tot=              3.4507
 Pt Chg Quadrupole moment (Debye-Ang):
   XX=             32.6661   YY=              0.6116   ZZ=              1.3306
   XY=            -11.3300   XZ=             17.3606   YZ=              0.5759
 Pt Chg Traceless Quadrupole moment (Debye-Ang):
   XX=             21.1300   YY=            -10.9245   ZZ=            -10.2055
   XY=            -11.3300   XZ=             17.3606   YZ=              0.5759
 Pt Chg Octapole moment (Debye-Ang**2):
  XXX=           -416.4065  YYY=              1.6317  ZZZ=             -2.8633  XYY=             -5.1454
  XXY=             76.1739  XXZ=           -120.4770  XZZ=            -11.0872  YZZ=             -0.0250
  YYZ=             -1.0903  XYZ=             -3.7116
 Pt Chg Hexadecapole moment (Debye-Ang**3):
 XXXX=           4646.9881 YYYY=              1.2221 ZZZZ=              3.2919 XXXY=           -490.8998
 XXXZ=            812.9042 YYYX=            -12.0495 YYYZ=             -0.3270 ZZZX=             21.2796
 ZZZY=              0.9833 XXYY=             43.6454 XXZZ=             92.8259 YYZZ=              0.2504
 XXYZ=             22.2145 YYXZ=              7.9014 ZZXY=              0.6843
 Leave Link  101 at Thu Mar 12 14:21:44 2020, MaxMem=   134217728 cpu:               1.5 elap:               0.1
 (Enter /home/soft/g16/l202.exe)
                          Input orientation:                          
 ---------------------------------------------------------------------
 Center     Atomic      Atomic             Coordinates (Angstroms)
 Number     Number       Type             X           Y           Z
 ---------------------------------------------------------------------
      1          6           0       -5.703345    0.033503   -0.552826
      2          1           0       -5.306640    0.494438    0.327550
      3          6           0       -5.177908    0.769963   -1.799078
      4          1           0       -5.484666    1.794439   -1.763742
      5          1           0       -5.574613    0.309028   -2.679455
      6          9           0       -5.316314   -1.259060   -0.597409
      7          6           0       -3.114573    1.431807   -3.075353
      8          1           0       -3.421331    2.456283   -3.040017
      9          6           0       -3.640010    0.695347   -1.829101
     10          1           0       -3.333251   -0.329129   -1.864437
     11          1           0       -3.243304    1.156282   -0.948724
     12          6           0       -1.576674    1.357190   -3.105376
     13          1           0       -1.269916    0.332714   -3.140712
     14          1           0       -1.179969    1.818126   -2.224999
     15          7           0       -1.075121    2.060175   -4.294980
     16          1           0       -1.361811    3.017629   -4.261955
     17          1           0       -0.076486    2.011723   -4.314475
     18          1           0       -6.771884    0.085347   -0.531966
     19          1           0       -3.511278    0.970872   -3.955729
 ---------------------------------------------------------------------
                    Distance matrix (angstroms):
                    1          2          3          4          5
     1  C    0.000000
     2  H    1.070000   0.000000
     3  C    1.540000   2.148263   0.000000
     4  H    2.148263   2.468846   1.070000   0.000000
     5  H    2.148263   3.024610   1.070000   1.747303   0.000000
     6  F    1.350000   1.982524   2.362224   3.273001   2.619262
     7  C    3.875582   4.154945   2.514809   2.732978   2.732978
     8  H    4.154945   4.329403   2.732978   2.514809   3.062243
     9  C    2.514809   2.732978   1.540000   2.148263   2.148263
    10  H    2.732978   3.062243   2.148263   3.024610   2.468846
    11  H    2.732978   2.514809   2.148263   2.468846   3.024610
    12  C    5.029619   5.142175   3.875582   4.154945   4.154945
    13  H    5.142175   5.324484   4.154945   4.668704   4.329403
    14  H    5.142175   5.029619   4.154945   4.329403   4.668704
    15  N    6.287413   6.459494   4.972628   5.091352   5.091352
    16  H    6.442947   6.556808   5.067580   4.973450   5.252479
    17  H    7.051588   7.155772   5.821830   5.983466   5.983466
    18  H    1.070000   1.747303   2.148263   2.468846   2.468846
    19  H    4.154945   4.668704   2.732978   3.062243   2.514809
                    6          7          8          9         10
     6  F    0.000000
     7  C    4.269500   0.000000
     8  H    4.833329   1.070000   0.000000
     9  C    2.854254   1.540000   2.148263   0.000000
    10  H    2.530349   2.148263   3.024610   1.070000   0.000000
    11  H    3.202291   2.148263   2.468846   1.070000   1.747303
    12  C    5.207645   1.540000   2.148263   2.514809   2.732978
    13  H    5.037407   2.148263   3.024610   2.732978   2.514809
    14  H    5.406243   2.148263   2.468846   2.732978   3.062243
    15  N    6.532769   2.457987   2.690081   3.810770   4.088455
    16  H    6.881647   2.644813   2.459648   4.062261   4.564588
    17  H    7.209050   3.331921   3.606919   4.539673   4.699872
    18  H    1.982524   4.653783   4.810184   3.444314   3.710993
    19  H    4.416907   1.070000   1.747303   2.148263   2.468846
                   11         12         13         14         15
    11  H    0.000000
    12  C    2.732978   0.000000
    13  H    3.062243   1.070000   0.000000
    14  H    2.514809   1.070000   1.747303   0.000000
    15  N    4.088455   1.470000   2.086720   2.086720   0.000000
    16  H    4.240535   2.034920   2.911082   2.370879   1.000000
    17  H    4.699872   2.034920   2.370879   2.370879   1.000000
    18  H    3.710993   5.935506   6.094128   6.094128   7.107273
    19  H    3.024610   2.148263   2.468846   3.024610   2.690081
                   16         17         18         19
    16  H    0.000000
    17  H    1.632993   0.000000
    18  H    7.195832   7.927589   0.000000
    19  H    2.983823   3.606919   4.810184   0.000000
 Symmetry turned off by external request.
 Stoichiometry    C5H12FN
 Framework group  C1[X(C5H12FN)]
 Deg. of freedom    51
 Full point group                 C1      NOp   1
 Rotational constants (GHZ):           8.7777562           0.8339888           0.7952807
 Leave Link  202 at Thu Mar 12 14:21:44 2020, MaxMem=   134217728 cpu:               0.4 elap:               0.1
 (Enter /home/soft/g16/l301.exe)
 Standard basis: 6-31G(d,p) (6D, 7F)
 Ernie: Thresh=  0.10000D-02 Tol=  0.10000D-05 Strict=F.
   165 basis functions,   280 primitive gaussians,   165 cartesian basis functions
    29 alpha electrons       29 beta electrons
       nuclear repulsion energy       314.6393496501 Hartrees.
 IExCor=    0 DFT=F Ex=HF Corr=None ExCW=0 ScaHFX=  1.000000
 ScaDFX=  1.000000  1.000000  1.000000  1.000000 ScalE2=  1.000000  1.000000
 IRadAn=      5 IRanWt=     -1 IRanGd=            0 ICorTp=0 IEmpDi=  4
 NAtoms=   19 NActive=   19 NUniq=   19 SFac= 1.00D+00 NAtFMM=   60 NAOKFM=F Big=F
 Integral buffers will be    131072 words long.
 Raffenetti 1 integral format.
 Two-electron integral symmetry is turned off.
 Background charge distribution read from rwf.
 PtFMM for NChg=        24 BoxLen=    40.00 Levels= 1 LMax=20 SMax=    16.3 ICnFMM=     1:
 Self energy of the charges =        -0.2440360221 a.u.
 MM   energy of the charges =         0.0000000000 a.u.
 Nuclei-charges interaction =        -0.5169091570 a.u.
 Nuclear repulsion after external point charges =      313.8784044709 Hartrees.
 Leave Link  301 at Thu Mar 12 14:21:44 2020, MaxMem=   134217728 cpu:               0.9 elap:               0.1
 (Enter /home/soft/g16/l302.exe)
 NPDir=0 NMtPBC=     1 NCelOv=     1 NCel=       1 NClECP=     1 NCelD=      1
         NCelK=      1 NCelE2=     1 NClLst=     1 CellRange=     0.0.
 One-electron integrals computed using PRISM.
 NBasis=   165 RedAO= T EigKep=  2.76D-03  NBF=   165
 NBsUse=   165 1.00D-06 EigRej= -1.00D+00 NBFU=   165
 Leave Link  302 at Thu Mar 12 14:21:44 2020, MaxMem=   134217728 cpu:               1.5 elap:               0.1
 (Enter /home/soft/g16/l303.exe)
 DipDrv:  MaxL=1.
 Leave Link  303 at Thu Mar 12 14:21:44 2020, MaxMem=   134217728 cpu:               0.4 elap:               0.1
 (Enter /home/soft/g16/l401.exe)
 ExpMin= 1.61D-01 ExpMax= 7.00D+03 ExpMxC= 1.05D+03 IAcc=3 IRadAn=         5 AccDes= 0.00D+00
 Harris functional with IExCor=  205 and IRadAn=       5 diagonalized for initial guess.
 HarFok:  IExCor=  205 AccDes= 0.00D+00 IRadAn=         5 IDoV= 1 UseB2=F ITyADJ=14
 ICtDFT=  3500011 ScaDFX=  1.000000  1.000000  1.000000  1.000000
 FoFCou: FMM=F IPFlag=           0 FMFlag=      100000 FMFlg1=           0
         NFxFlg=           0 DoJE=T BraDBF=F KetDBF=T FulRan=T
         wScrn=  0.000000 ICntrl=       500 IOpCl=  0 I1Cent=   200000004 NGrid=           0
         NMat0=    1 NMatS0=      1 NMatT0=    0 NMatD0=    1 NMtDS0=    0 NMtDT0=    0
 Symmetry not used in FoFCou.
 Harris En= -351.029875018528    
 JPrj=0 DoOrth=F DoCkMO=F.
 Leave Link  401 at Thu Mar 12 14:21:45 2020, MaxMem=   134217728 cpu:               5.4 elap:               0.5
 (Enter /home/soft/g16/l502.exe)
 Two-electron integral symmetry not used.
 Closed shell SCF:
 Using DIIS extrapolation, IDIIS=  1040.
 NGot=   134217728 LenX=   134159712 LenY=   134132046
 Requested convergence on RMS density matrix=1.00D-08 within 128 cycles.
 Requested convergence on MAX density matrix=1.00D-06.
 Requested convergence on             energy=1.00D-06.
 No special actions if energy rises.
 Fock matrices will be formed incrementally for  20 cycles.
 Integral accuracy reduced to 1.0D-05 until final iterations.

 Cycle   1  Pass 0  IDiag  1:
 FoFJK:  IHMeth= 1 ICntrl=       0 DoSepK=F KAlg= 0 I1Cent=           0 FoldK=F
 IRaf= 910000000 NMat=       1 IRICut=       1 DoRegI=T DoRafI=F ISym2E= 0 IDoP0=0 IntGTp=1.
 FoFCou: FMM=F IPFlag=           0 FMFlag=      100000 FMFlg1=           0
         NFxFlg=           0 DoJE=F BraDBF=F KetDBF=F FulRan=T
         wScrn=  0.000000 ICntrl=         0 IOpCl=  0 I1Cent=           0 NGrid=           0
         NMat0=    1 NMatS0=      1 NMatT0=    0 NMatD0=    1 NMtDS0=    0 NMtDT0=    0
 Symmetry not used in FoFCou.
 E= -350.116570110188    
 DIIS: error= 4.96D-02 at cycle   1 NSaved=   1.
 NSaved= 1 IEnMin= 1 EnMin= -350.116570110188     IErMin= 1 ErrMin= 4.96D-02
 ErrMax= 4.96D-02  0.00D+00 EMaxC= 1.00D-01 BMatC= 5.34D-01 BMatP= 5.34D-01
 IDIUse=3 WtCom= 5.04D-01 WtEn= 4.96D-01
 Coeff-Com:  0.100D+01
 Coeff-En:   0.100D+01
 Coeff:      0.100D+01
 Gap=     0.607 Goal=   None    Shift=    0.000
 GapD=    0.607 DampG=2.000 DampE=0.500 DampFc=1.0000 IDamp=-1.
 RMSDP=4.55D-03 MaxDP=1.04D-01              OVMax= 1.25D-01

 Cycle   2  Pass 0  IDiag  1:
 RMSU=  4.44D-03    CP:  9.58D-01
 E= -350.426219838957     Delta-E=       -0.309649728769 Rises=F Damp=F
 DIIS: error= 1.17D-02 at cycle   2 NSaved=   2.
 NSaved= 2 IEnMin= 2 EnMin= -350.426219838957     IErMin= 2 ErrMin= 1.17D-02
 ErrMax= 1.17D-02  0.00D+00 EMaxC= 1.00D-01 BMatC= 6.30D-02 BMatP= 5.34D-01
 IDIUse=3 WtCom= 8.83D-01 WtEn= 1.17D-01
 Coeff-Com:  0.190D+00 0.810D+00
 Coeff-En:   0.000D+00 0.100D+01
 Coeff:      0.167D+00 0.833D+00
 Gap=     0.661 Goal=   None    Shift=    0.000
 RMSDP=1.55D-03 MaxDP=4.08D-02 DE=-3.10D-01 OVMax= 4.36D-02

 Cycle   3  Pass 0  IDiag  1:
 RMSU=  9.41D-04    CP:  9.70D-01  7.30D-01
 E= -350.478437921985     Delta-E=       -0.052218083028 Rises=F Damp=F
 DIIS: error= 2.98D-03 at cycle   3 NSaved=   3.
 NSaved= 3 IEnMin= 3 EnMin= -350.478437921985     IErMin= 3 ErrMin= 2.98D-03
 ErrMax= 2.98D-03  0.00D+00 EMaxC= 1.00D-01 BMatC= 2.91D-03 BMatP= 6.30D-02
 IDIUse=3 WtCom= 9.70D-01 WtEn= 2.98D-02
 Coeff-Com: -0.245D-01 0.131D+00 0.894D+00
 Coeff-En:   0.000D+00 0.000D+00 0.100D+01
 Coeff:     -0.238D-01 0.127D+00 0.897D+00
 Gap=     0.603 Goal=   None    Shift=    0.000
 RMSDP=2.92D-04 MaxDP=9.75D-03 DE=-5.22D-02 OVMax= 9.31D-03

 Cycle   4  Pass 0  IDiag  1:
 RMSU=  1.42D-04    CP:  9.68D-01  7.86D-01  9.67D-01
 E= -350.481309164010     Delta-E=       -0.002871242025 Rises=F Damp=F
 DIIS: error= 4.22D-04 at cycle   4 NSaved=   4.
 NSaved= 4 IEnMin= 4 EnMin= -350.481309164010     IErMin= 4 ErrMin= 4.22D-04
 ErrMax= 4.22D-04  0.00D+00 EMaxC= 1.00D-01 BMatC= 6.24D-05 BMatP= 2.91D-03
 IDIUse=3 WtCom= 9.96D-01 WtEn= 4.22D-03
 Coeff-Com: -0.386D-02-0.119D-02 0.809D-01 0.924D+00
 Coeff-En:   0.000D+00 0.000D+00 0.000D+00 0.100D+01
 Coeff:     -0.384D-02-0.119D-02 0.806D-01 0.924D+00
 Gap=     0.606 Goal=   None    Shift=    0.000
 RMSDP=5.84D-05 MaxDP=2.04D-03 DE=-2.87D-03 OVMax= 1.73D-03

 Cycle   5  Pass 0  IDiag  1:
 RMSU=  4.94D-05    CP:  9.68D-01  7.87D-01  9.98D-01  1.07D+00
 E= -350.481381377042     Delta-E=       -0.000072213032 Rises=F Damp=F
 DIIS: error= 1.34D-04 at cycle   5 NSaved=   5.
 NSaved= 5 IEnMin= 5 EnMin= -350.481381377042     IErMin= 5 ErrMin= 1.34D-04
 ErrMax= 1.34D-04  0.00D+00 EMaxC= 1.00D-01 BMatC= 7.57D-06 BMatP= 6.24D-05
 IDIUse=3 WtCom= 9.99D-01 WtEn= 1.34D-03
 Coeff-Com:  0.203D-02-0.149D-01-0.841D-01 0.118D+00 0.979D+00
 Coeff-En:   0.000D+00 0.000D+00 0.000D+00 0.000D+00 0.100D+01
 Coeff:      0.202D-02-0.149D-01-0.840D-01 0.118D+00 0.979D+00
 Gap=     0.605 Goal=   None    Shift=    0.000
 RMSDP=2.51D-05 MaxDP=4.91D-04 DE=-7.22D-05 OVMax= 7.35D-04

 Cycle   6  Pass 0  IDiag  1:
 RMSU=  1.12D-05    CP:  9.68D-01  7.87D-01  1.01D+00  1.20D+00  1.12D+00
 E= -350.481391671823     Delta-E=       -0.000010294781 Rises=F Damp=F
 DIIS: error= 2.34D-05 at cycle   6 NSaved=   6.
 NSaved= 6 IEnMin= 6 EnMin= -350.481391671823     IErMin= 6 ErrMin= 2.34D-05
 ErrMax= 2.34D-05  0.00D+00 EMaxC= 1.00D-01 BMatC= 2.15D-07 BMatP= 7.57D-06
 IDIUse=1 WtCom= 1.00D+00 WtEn= 0.00D+00
 Coeff-Com:  0.351D-03-0.157D-02-0.110D-01-0.312D-01 0.805D-01 0.963D+00
 Coeff:      0.351D-03-0.157D-02-0.110D-01-0.312D-01 0.805D-01 0.963D+00
 Gap=     0.606 Goal=   None    Shift=    0.000
 RMSDP=5.45D-06 MaxDP=1.31D-04 DE=-1.03D-05 OVMax= 1.54D-04

 Initial convergence to 1.0D-05 achieved.  Increase integral accuracy.
 Cycle   7  Pass 1  IDiag  1:
 E= -350.481392693529     Delta-E=       -0.000001021706 Rises=F Damp=F
 DIIS: error= 1.06D-05 at cycle   1 NSaved=   1.
 NSaved= 1 IEnMin= 1 EnMin= -350.481392693529     IErMin= 1 ErrMin= 1.06D-05
 ErrMax= 1.06D-05  0.00D+00 EMaxC= 1.00D-01 BMatC= 2.42D-08 BMatP= 2.42D-08
 IDIUse=1 WtCom= 1.00D+00 WtEn= 0.00D+00
 Coeff-Com:  0.100D+01
 Coeff:      0.100D+01
 Gap=     0.606 Goal=   None    Shift=    0.000
 RMSDP=5.45D-06 MaxDP=1.31D-04 DE=-1.02D-06 OVMax= 4.75D-05

 Cycle   8  Pass 1  IDiag  1:
 RMSU=  1.70D-06    CP:  1.00D+00
 E= -350.481392719523     Delta-E=       -0.000000025994 Rises=F Damp=F
 DIIS: error= 3.23D-06 at cycle   2 NSaved=   2.
 NSaved= 2 IEnMin= 2 EnMin= -350.481392719523     IErMin= 2 ErrMin= 3.23D-06
 ErrMax= 3.23D-06  0.00D+00 EMaxC= 1.00D-01 BMatC= 3.66D-09 BMatP= 2.42D-08
 IDIUse=1 WtCom= 1.00D+00 WtEn= 0.00D+00
 Coeff-Com:  0.170D+00 0.830D+00
 Coeff:      0.170D+00 0.830D+00
 Gap=     0.606 Goal=   None    Shift=    0.000
 RMSDP=5.01D-07 MaxDP=1.29D-05 DE=-2.60D-08 OVMax= 1.90D-05

 Cycle   9  Pass 1  IDiag  1:
 RMSU=  4.50D-07    CP:  1.00D+00  1.13D+00
 E= -350.481392724061     Delta-E=       -0.000000004538 Rises=F Damp=F
 DIIS: error= 2.25D-06 at cycle   3 NSaved=   3.
 NSaved= 3 IEnMin= 3 EnMin= -350.481392724061     IErMin= 3 ErrMin= 2.25D-06
 ErrMax= 2.25D-06  0.00D+00 EMaxC= 1.00D-01 BMatC= 5.33D-10 BMatP= 3.66D-09
 IDIUse=1 WtCom= 1.00D+00 WtEn= 0.00D+00
 Coeff-Com: -0.104D+00 0.500D-01 0.105D+01
 Coeff:     -0.104D+00 0.500D-01 0.105D+01
 Gap=     0.606 Goal=   None    Shift=    0.000
 RMSDP=3.30D-07 MaxDP=1.13D-05 DE=-4.54D-09 OVMax= 1.56D-05

 Cycle  10  Pass 1  IDiag  1:
 RMSU=  1.65D-07    CP:  1.00D+00  1.27D+00  1.31D+00
 E= -350.481392725177     Delta-E=       -0.000000001116 Rises=F Damp=F
 DIIS: error= 7.62D-07 at cycle   4 NSaved=   4.
 NSaved= 4 IEnMin= 4 EnMin= -350.481392725177     IErMin= 4 ErrMin= 7.62D-07
 ErrMax= 7.62D-07  0.00D+00 EMaxC= 1.00D-01 BMatC= 4.98D-11 BMatP= 5.33D-10
 IDIUse=1 WtCom= 1.00D+00 WtEn= 0.00D+00
 Coeff-Com: -0.139D-01-0.915D-01-0.388D-01 0.114D+01
 Coeff:     -0.139D-01-0.915D-01-0.388D-01 0.114D+01
 Gap=     0.606 Goal=   None    Shift=    0.000
 RMSDP=1.37D-07 MaxDP=4.75D-06 DE=-1.12D-09 OVMax= 7.10D-06

 Cycle  11  Pass 1  IDiag  1:
 RMSU=  3.66D-08    CP:  1.00D+00  1.32D+00  1.49D+00  1.38D+00
 E= -350.481392725308     Delta-E=       -0.000000000132 Rises=F Damp=F
 DIIS: error= 1.78D-07 at cycle   5 NSaved=   5.
 NSaved= 5 IEnMin= 5 EnMin= -350.481392725308     IErMin= 5 ErrMin= 1.78D-07
 ErrMax= 1.78D-07  0.00D+00 EMaxC= 1.00D-01 BMatC= 4.24D-12 BMatP= 4.98D-11
 IDIUse=1 WtCom= 1.00D+00 WtEn= 0.00D+00
 Coeff-Com:  0.581D-02-0.259D-01-0.904D-01 0.253D+00 0.857D+00
 Coeff:      0.581D-02-0.259D-01-0.904D-01 0.253D+00 0.857D+00
 Gap=     0.606 Goal=   None    Shift=    0.000
 RMSDP=2.75D-08 MaxDP=9.16D-07 DE=-1.32D-10 OVMax= 1.60D-06

 Cycle  12  Pass 1  IDiag  1:
 RMSU=  1.35D-08    CP:  1.00D+00  1.33D+00  1.52D+00  1.47D+00  1.11D+00
 E= -350.481392725319     Delta-E=       -0.000000000010 Rises=F Damp=F
 DIIS: error= 5.76D-08 at cycle   6 NSaved=   6.
 NSaved= 6 IEnMin= 6 EnMin= -350.481392725319     IErMin= 6 ErrMin= 5.76D-08
 ErrMax= 5.76D-08  0.00D+00 EMaxC= 1.00D-01 BMatC= 2.52D-13 BMatP= 4.24D-12
 IDIUse=1 WtCom= 1.00D+00 WtEn= 0.00D+00
 Coeff-Com: -0.912D-03 0.128D-01 0.317D-01-0.152D+00-0.249D+00 0.136D+01
 Coeff:     -0.912D-03 0.128D-01 0.317D-01-0.152D+00-0.249D+00 0.136D+01
 Gap=     0.606 Goal=   None    Shift=    0.000
 RMSDP=1.18D-08 MaxDP=3.49D-07 DE=-1.05D-11 OVMax= 6.84D-07

 Cycle  13  Pass 1  IDiag  1:
 RMSU=  2.69D-09    CP:  1.00D+00  1.33D+00  1.53D+00  1.50D+00  1.29D+00
                    CP:  1.50D+00
 E= -350.481392725309     Delta-E=        0.000000000010 Rises=F Damp=F
 DIIS: error= 1.08D-08 at cycle   7 NSaved=   7.
 NSaved= 7 IEnMin= 6 EnMin= -350.481392725319     IErMin= 7 ErrMin= 1.08D-08
 ErrMax= 1.08D-08  0.00D+00 EMaxC= 1.00D-01 BMatC= 1.92D-14 BMatP= 2.52D-13
 IDIUse=1 WtCom= 1.00D+00 WtEn= 0.00D+00
 Coeff-Com: -0.548D-03 0.400D-02 0.115D-01-0.434D-01-0.103D+00 0.243D+00
 Coeff-Com:  0.888D+00
 Coeff:     -0.548D-03 0.400D-02 0.115D-01-0.434D-01-0.103D+00 0.243D+00
 Coeff:      0.888D+00
 Gap=     0.606 Goal=   None    Shift=    0.000
 RMSDP=2.04D-09 MaxDP=6.97D-08 DE= 1.02D-11 OVMax= 1.17D-07

 SCF Done:  E(RHF) =  -350.481392725     A.U. after   13 cycles
            NFock= 13  Conv=0.20D-08     -V/T= 2.0011
 KE= 3.500798098048D+02 PE=-1.451852591014D+03 EE= 4.374129840129D+02
 Leave Link  502 at Thu Mar 12 14:21:47 2020, MaxMem=   134217728 cpu:              22.0 elap:               1.9
 (Enter /home/soft/g16/l601.exe)
 Copying SCF densities to generalized density rwf, IOpCl= 0 IROHF=0.

 **********************************************************************

            Population analysis using the SCF density.

 **********************************************************************

 Alpha  occ. eigenvalues --  -26.25098 -15.52758 -11.27212 -11.23405 -11.21207
 Alpha  occ. eigenvalues --  -11.20724 -11.20636  -1.56787  -1.17005  -1.07324
 Alpha  occ. eigenvalues --   -0.99309  -0.89440  -0.81789  -0.79830  -0.68708
 Alpha  occ. eigenvalues --   -0.67546  -0.66280  -0.64107  -0.62857  -0.59863
 Alpha  occ. eigenvalues --   -0.56776  -0.53959  -0.51010  -0.50690  -0.48777
 Alpha  occ. eigenvalues --   -0.47796  -0.46337  -0.42432  -0.37680
 Alpha virt. eigenvalues --    0.22879   0.24256   0.26729   0.28046   0.28481
 Alpha virt. eigenvalues --    0.32107   0.33372   0.33674   0.34712   0.35298
 Alpha virt. eigenvalues --    0.36429   0.36982   0.38984   0.39368   0.40748
 Alpha virt. eigenvalues --    0.46121   0.47710   0.50066   0.70431   0.73803
 Alpha virt. eigenvalues --    0.74732   0.76549   0.79528   0.81258   0.83350
 Alpha virt. eigenvalues --    0.87492   0.92030   0.93969   0.94683   0.96737
 Alpha virt. eigenvalues --    0.99644   1.00720   1.04533   1.08299   1.09493
 Alpha virt. eigenvalues --    1.10982   1.11979   1.14775   1.16827   1.17651
 Alpha virt. eigenvalues --    1.18852   1.19928   1.20580   1.21960   1.22178
 Alpha virt. eigenvalues --    1.23391   1.24159   1.30680   1.32200   1.42083
 Alpha virt. eigenvalues --    1.50985   1.52958   1.55631   1.60807   1.63617
 Alpha virt. eigenvalues --    1.67693   1.71715   1.73076   1.77592   1.79730
 Alpha virt. eigenvalues --    1.85444   1.93959   1.97512   1.98871   2.00495
 Alpha virt. eigenvalues --    2.04142   2.08537   2.11524   2.12314   2.17473
 Alpha virt. eigenvalues --    2.19221   2.21393   2.21913   2.27110   2.32210
 Alpha virt. eigenvalues --    2.34043   2.35554   2.40723   2.42030   2.43180
 Alpha virt. eigenvalues --    2.44013   2.47864   2.50091   2.52021   2.52744
 Alpha virt. eigenvalues --    2.55100   2.57090   2.59970   2.60631   2.63620
 Alpha virt. eigenvalues --    2.65528   2.68205   2.71737   2.74520   2.75330
 Alpha virt. eigenvalues --    2.79110   2.83961   2.86780   2.90951   2.97625
 Alpha virt. eigenvalues --    2.99364   3.01670   3.04878   3.08598   3.11633
 Alpha virt. eigenvalues --    3.14683   3.17700   3.22068   3.22662   3.26669
 Alpha virt. eigenvalues --    3.28464   3.30320   3.31794   3.33742   3.35202
 Alpha virt. eigenvalues --    3.36405   3.48312   3.65733   3.68928   3.71475
 Alpha virt. eigenvalues --    3.72945   3.74159   3.77861   3.83496   3.87107
 Alpha virt. eigenvalues --    3.93366   3.95429   3.99940   4.01132   4.43582
 Alpha virt. eigenvalues --    4.66260   4.74142   4.86610   4.94518   5.04909
 Alpha virt. eigenvalues --    5.19387
          Condensed to atoms (all electrons):
               1          2          3          4          5          6
     1  C    4.510605   0.412847   0.305729  -0.034809  -0.035697   0.217607
     2  H    0.412847   0.613663  -0.054390   0.000898   0.005411  -0.029638
     3  C    0.305729  -0.054390   5.197878   0.383657   0.403804  -0.042044
     4  H   -0.034809   0.000898   0.383657   0.621791  -0.030157   0.002288
     5  H   -0.035697   0.005411   0.403804  -0.030157   0.594206   0.000839
     6  F    0.217607  -0.029638  -0.042044   0.002288   0.000839   9.272859
     7  C    0.003847  -0.000136  -0.054638  -0.004624  -0.003968   0.000081
     8  H   -0.000075   0.000015  -0.004273   0.001617   0.000354  -0.000002
     9  C   -0.043997  -0.010097   0.306722  -0.038301  -0.045252   0.002312
    10  H   -0.005556   0.000581  -0.041134   0.004678  -0.002359   0.006439
    11  H   -0.003011   0.003039  -0.042599  -0.002793   0.004626  -0.000239
    12  C   -0.000087  -0.000006   0.004657  -0.000040  -0.000081   0.000002
    13  H    0.000000   0.000000  -0.000080  -0.000006   0.000021  -0.000001
    14  H    0.000004  -0.000003  -0.000134   0.000022  -0.000007   0.000000
    15  N    0.000000  -0.000000  -0.000083  -0.000000  -0.000002   0.000000
    16  H   -0.000000   0.000000  -0.000003  -0.000002   0.000001   0.000000
    17  H   -0.000000   0.000000   0.000003   0.000000   0.000000   0.000000
    18  H    0.430452  -0.036627  -0.075692   0.000655  -0.005936  -0.024442
    19  H   -0.000035  -0.000004  -0.004904   0.000317   0.001738   0.000002
               7          8          9         10         11         12
     1  C    0.003847  -0.000075  -0.043997  -0.005556  -0.003011  -0.000087
     2  H   -0.000136   0.000015  -0.010097   0.000581   0.003039  -0.000006
     3  C   -0.054638  -0.004273   0.306722  -0.041134  -0.042599   0.004657
     4  H   -0.004624   0.001617  -0.038301   0.004678  -0.002793  -0.000040
     5  H   -0.003968   0.000354  -0.045252  -0.002359   0.004626  -0.000081
     6  F    0.000081  -0.000002   0.002312   0.006439  -0.000239   0.000002
     7  C    4.998587   0.406145   0.335846  -0.040704  -0.041327   0.362600
     8  H    0.406145   0.610017  -0.041308   0.004317  -0.002826  -0.041175
     9  C    0.335846  -0.041308   5.025635   0.415888   0.407995  -0.056151
    10  H   -0.040704   0.004317   0.415888   0.551302  -0.028278  -0.003772
    11  H   -0.041327  -0.002826   0.407995  -0.028278   0.593516  -0.003691
    12  C    0.362600  -0.041175  -0.056151  -0.003772  -0.003691   4.778514
    13  H   -0.035358   0.004662  -0.003836   0.001891   0.000201   0.413861
    14  H   -0.054026  -0.004655  -0.000239   0.000165   0.002099   0.418250
    15  N   -0.063557  -0.002347   0.003717  -0.000016  -0.000045   0.266977
    16  H   -0.006072   0.003214  -0.000162   0.000002   0.000010  -0.037113
    17  H    0.006017  -0.000060  -0.000189   0.000001  -0.000001  -0.038013
    18  H   -0.000150  -0.000003   0.007264   0.000214  -0.000096   0.000002
    19  H    0.407202  -0.031263  -0.037971  -0.002821   0.004436  -0.037143
              13         14         15         16         17         18
     1  C    0.000000   0.000004   0.000000  -0.000000  -0.000000   0.430452
     2  H    0.000000  -0.000003  -0.000000   0.000000   0.000000  -0.036627
     3  C   -0.000080  -0.000134  -0.000083  -0.000003   0.000003  -0.075692
     4  H   -0.000006   0.000022  -0.000000  -0.000002   0.000000   0.000655
     5  H    0.000021  -0.000007  -0.000002   0.000001   0.000000  -0.005936
     6  F   -0.000001   0.000000   0.000000   0.000000   0.000000  -0.024442
     7  C   -0.035358  -0.054026  -0.063557  -0.006072   0.006017  -0.000150
     8  H    0.004662  -0.004655  -0.002347   0.003214  -0.000060  -0.000003
     9  C   -0.003836  -0.000239   0.003717  -0.000162  -0.000189   0.007264
    10  H    0.001891   0.000165  -0.000016   0.000002   0.000001   0.000214
    11  H    0.000201   0.002099  -0.000045   0.000010  -0.000001  -0.000096
    12  C    0.413861   0.418250   0.266977  -0.037113  -0.038013   0.000002
    13  H    0.583773  -0.041863  -0.039762   0.005284  -0.003296  -0.000000
    14  H   -0.041863   0.648001  -0.057381  -0.003206  -0.002808   0.000000
    15  N   -0.039762  -0.057381   6.880839   0.359762   0.362525  -0.000000
    16  H    0.005284  -0.003206   0.359762   0.447977  -0.028031   0.000000
    17  H   -0.003296  -0.002808   0.362525  -0.028031   0.442022   0.000000
    18  H   -0.000000   0.000000  -0.000000   0.000000   0.000000   0.579734
    19  H   -0.004346   0.005215   0.002391  -0.000096  -0.000114   0.000003
              19
     1  C   -0.000035
     2  H   -0.000004
     3  C   -0.004904
     4  H    0.000317
     5  H    0.001738
     6  F    0.000002
     7  C    0.407202
     8  H   -0.031263
     9  C   -0.037971
    10  H   -0.002821
    11  H    0.004436
    12  C   -0.037143
    13  H   -0.004346
    14  H    0.005215
    15  N    0.002391
    16  H   -0.000096
    17  H   -0.000114
    18  H    0.000003
    19  H    0.568708
 Mulliken charges:
               1
     1  C    0.242175
     2  H    0.094447
     3  C   -0.282476
     4  H    0.094810
     5  H    0.112459
     6  F   -0.406062
     7  C   -0.215764
     8  H    0.097646
     9  C   -0.227878
    10  H    0.139163
    11  H    0.108982
    12  C   -0.027588
    13  H    0.118852
    14  H    0.090564
    15  N   -0.713018
    16  H    0.258437
    17  H    0.261944
    18  H    0.124622
    19  H    0.128684
 Sum of Mulliken charges =  -0.00000
 Mulliken charges with hydrogens summed into heavy atoms:
               1
     1  C    0.461245
     3  C   -0.075207
     6  F   -0.406062
     7  C    0.010567
     9  C    0.020267
    12  C    0.181828
    15  N   -0.192638
 Electronic spatial extent (au):  <R**2>=           5240.2396
 Charge=             -0.0000 electrons
 Dipole moment (field-independent basis, Debye):
    X=             -0.0646    Y=              1.9219    Z=              1.6715  Tot=              2.5479
 Quadrupole moment (field-independent basis, Debye-Ang):
   XX=            -37.5654   YY=            -42.8077   ZZ=            -56.2001
   XY=             -6.9208   XZ=             -6.3488   YZ=             -0.6233
 Traceless Quadrupole moment (field-independent basis, Debye-Ang):
   XX=              7.9590   YY=              2.7167   ZZ=            -10.6757
   XY=             -6.9208   XZ=             -6.3488   YZ=             -0.6233
 Octapole moment (field-independent basis, Debye-Ang**2):
  XXX=            415.7785  YYY=            -92.4506  ZZZ=            378.1761  XYY=            167.2384
  XXY=              0.4243  XXZ=            113.7945  XZZ=            187.7021  YZZ=            -46.7251
  YYZ=             88.5755  XYZ=             -2.7804
 Hexadecapole moment (field-independent basis, Debye-Ang**3):
 XXXX=          -3807.0571 YYYY=           -436.3066 ZZZZ=          -2326.7047 XXXY=             41.8809
 XXXZ=           -866.2415 YYYX=            189.3787 YYYZ=            329.3477 ZZZX=           -960.1159
 ZZZY=            484.6829 XXYY=           -855.8022 XXZZ=          -1058.4496 YYZZ=           -354.8142
 XXYZ=            123.7537 YYXZ=           -267.3520 ZZXY=            116.9136
 N-N= 3.138784044709D+02 E-N=-1.451852590491D+03  KE= 3.500798098048D+02
 No NMR shielding tensors so no spin-rotation constants.
 Leave Link  601 at Thu Mar 12 14:21:47 2020, MaxMem=   134217728 cpu:               0.9 elap:               0.1
 (Enter /home/soft/g16/l607.exe)
 ******************************Gaussian NBO Version 3.1******************************
             N A T U R A L   A T O M I C   O R B I T A L   A N D
          N A T U R A L   B O N D   O R B I T A L   A N A L Y S I S
 ******************************Gaussian NBO Version 3.1******************************
       /RESON  / : Allow strongly delocalized NBO set

 Analyzing the SCF density

 Job title: Atom number=19                                                  

 Storage needed:     82942 in NPA ( 134215733 available)
 GSVD:  LWork=       14111 too small for GESVD, short by       11406 words or       11406 for optimal perf.


 NATURAL POPULATIONS:  Natural atomic orbital occupancies 
                                                          
   NAO  Atom  No  lang   Type(AO)    Occupancy      Energy
 ----------------------------------------------------------
     1    C    1  S      Cor( 1S)     1.99912     -11.15325
     2    C    1  S      Val( 2S)     1.00744      -0.22050
     3    C    1  S      Ryd( 3S)     0.00263       1.40623
     4    C    1  S      Ryd( 4S)     0.00007       4.74104
     5    C    1  px     Val( 2p)     1.14842      -0.02931
     6    C    1  px     Ryd( 3p)     0.00354       1.01054
     7    C    1  py     Val( 2p)     0.62902       0.08149
     8    C    1  py     Ryd( 3p)     0.00678       0.85743
     9    C    1  pz     Val( 2p)     1.08148      -0.01011
    10    C    1  pz     Ryd( 3p)     0.00291       0.83610
    11    C    1  dxy    Ryd( 3d)     0.00184       2.50574
    12    C    1  dxz    Ryd( 3d)     0.00082       2.54149
    13    C    1  dyz    Ryd( 3d)     0.00239       2.64195
    14    C    1  dx2y2  Ryd( 3d)     0.00296       2.78495
    15    C    1  dz2    Ryd( 3d)     0.00174       2.67784

    16    H    2  S      Val( 1S)     0.82371       0.17434
    17    H    2  S      Ryd( 2S)     0.00129       0.81879
    18    H    2  px     Ryd( 2p)     0.00015       2.82948
    19    H    2  py     Ryd( 2p)     0.00015       2.79817
    20    H    2  pz     Ryd( 2p)     0.00063       3.17199

    21    C    3  S      Cor( 1S)     1.99938     -11.06698
    22    C    3  S      Val( 2S)     1.05088      -0.24964
    23    C    3  S      Ryd( 3S)     0.00081       1.66744
    24    C    3  S      Ryd( 4S)     0.00001       4.77978
    25    C    3  px     Val( 2p)     1.07660      -0.03858
    26    C    3  px     Ryd( 3p)     0.00096       0.82186
    27    C    3  py     Val( 2p)     1.18903      -0.05023
    28    C    3  py     Ryd( 3p)     0.00314       1.03248
    29    C    3  pz     Val( 2p)     1.14960      -0.05235
    30    C    3  pz     Ryd( 3p)     0.00212       0.94872
    31    C    3  dxy    Ryd( 3d)     0.00073       2.50561
    32    C    3  dxz    Ryd( 3d)     0.00094       2.50227
    33    C    3  dyz    Ryd( 3d)     0.00108       2.63559
    34    C    3  dx2y2  Ryd( 3d)     0.00148       2.76168
    35    C    3  dz2    Ryd( 3d)     0.00137       2.69362

    36    H    4  S      Val( 1S)     0.79208       0.17331
    37    H    4  S      Ryd( 2S)     0.00133       0.82092
    38    H    4  px     Ryd( 2p)     0.00008       2.72764
    39    H    4  py     Ryd( 2p)     0.00068       3.35700
    40    H    4  pz     Ryd( 2p)     0.00004       2.71647

    41    H    5  S      Val( 1S)     0.78680       0.18719
    42    H    5  S      Ryd( 2S)     0.00179       0.82589
    43    H    5  px     Ryd( 2p)     0.00010       2.76837
    44    H    5  py     Ryd( 2p)     0.00018       2.86224
    45    H    5  pz     Ryd( 2p)     0.00049       3.19259

    46    F    6  S      Cor( 1S)     1.99994     -25.98350
    47    F    6  S      Val( 2S)     1.82821      -1.56414
    48    F    6  S      Ryd( 3S)     0.00040       2.56069
    49    F    6  S      Ryd( 4S)     0.00005       4.43977
    50    F    6  px     Val( 2p)     1.94638      -0.57911
    51    F    6  px     Ryd( 3p)     0.00129       1.73075
    52    F    6  py     Val( 2p)     1.67498      -0.50709
    53    F    6  py     Ryd( 3p)     0.00036       1.66870
    54    F    6  pz     Val( 2p)     1.97332      -0.58695
    55    F    6  pz     Ryd( 3p)     0.00126       1.71058
    56    F    6  dxy    Ryd( 3d)     0.00140       2.55063
    57    F    6  dxz    Ryd( 3d)     0.00010       2.24934
    58    F    6  dyz    Ryd( 3d)     0.00123       2.41224
    59    F    6  dx2y2  Ryd( 3d)     0.00155       2.71439
    60    F    6  dz2    Ryd( 3d)     0.00057       2.41745

    61    C    7  S      Cor( 1S)     1.99939     -11.05893
    62    C    7  S      Val( 2S)     1.03493      -0.22971
    63    C    7  S      Ryd( 3S)     0.00091       1.68955
    64    C    7  S      Ryd( 4S)     0.00001       4.78593
    65    C    7  px     Val( 2p)     1.06125      -0.02655
    66    C    7  px     Ryd( 3p)     0.00271       0.95327
    67    C    7  py     Val( 2p)     1.18756      -0.03792
    68    C    7  py     Ryd( 3p)     0.00324       1.02043
    69    C    7  pz     Val( 2p)     1.13470      -0.03062
    70    C    7  pz     Ryd( 3p)     0.00290       0.94361
    71    C    7  dxy    Ryd( 3d)     0.00061       2.51114
    72    C    7  dxz    Ryd( 3d)     0.00077       2.51603
    73    C    7  dyz    Ryd( 3d)     0.00102       2.64769
    74    C    7  dx2y2  Ryd( 3d)     0.00166       2.76965
    75    C    7  dz2    Ryd( 3d)     0.00140       2.70378

    76    H    8  S      Val( 1S)     0.79504       0.18624
    77    H    8  S      Ryd( 2S)     0.00143       0.83978
    78    H    8  px     Ryd( 2p)     0.00010       2.78626
    79    H    8  py     Ryd( 2p)     0.00063       3.36916
    80    H    8  pz     Ryd( 2p)     0.00004       2.72012

    81    C    9  S      Cor( 1S)     1.99940     -11.05925
    82    C    9  S      Val( 2S)     1.03011      -0.22642
    83    C    9  S      Ryd( 3S)     0.00115       1.68247
    84    C    9  S      Ryd( 4S)     0.00001       4.78838
    85    C    9  px     Val( 2p)     1.05508      -0.02319
    86    C    9  px     Ryd( 3p)     0.00312       0.95948
    87    C    9  py     Val( 2p)     1.20332      -0.04282
    88    C    9  py     Ryd( 3p)     0.00359       1.03699
    89    C    9  pz     Val( 2p)     1.12818      -0.03104
    90    C    9  pz     Ryd( 3p)     0.00318       0.96779
    91    C    9  dxy    Ryd( 3d)     0.00065       2.52189
    92    C    9  dxz    Ryd( 3d)     0.00078       2.52004
    93    C    9  dyz    Ryd( 3d)     0.00108       2.64951
    94    C    9  dx2y2  Ryd( 3d)     0.00161       2.76937
    95    C    9  dz2    Ryd( 3d)     0.00134       2.70238

    96    H   10  S      Val( 1S)     0.76884       0.21839
    97    H   10  S      Ryd( 2S)     0.00197       0.84212
    98    H   10  px     Ryd( 2p)     0.00008       2.79365
    99    H   10  py     Ryd( 2p)     0.00065       3.38325
   100    H   10  pz     Ryd( 2p)     0.00004       2.73148

   101    H   11  S      Val( 1S)     0.78819       0.19502
   102    H   11  S      Ryd( 2S)     0.00142       0.84339
   103    H   11  px     Ryd( 2p)     0.00013       2.82946
   104    H   11  py     Ryd( 2p)     0.00016       2.85911
   105    H   11  pz     Ryd( 2p)     0.00048       3.20263

   106    C   12  S      Cor( 1S)     1.99940     -11.09574
   107    C   12  S      Val( 2S)     1.01296      -0.21327
   108    C   12  S      Ryd( 3S)     0.00180       1.56827
   109    C   12  S      Ryd( 4S)     0.00002       4.79182
   110    C   12  px     Val( 2p)     1.03623      -0.01624
   111    C   12  px     Ryd( 3p)     0.00117       0.80598
   112    C   12  py     Val( 2p)     1.14277      -0.02823
   113    C   12  py     Ryd( 3p)     0.00228       0.96493
   114    C   12  pz     Val( 2p)     0.99156       0.00730
   115    C   12  pz     Ryd( 3p)     0.00335       0.93403
   116    C   12  dxy    Ryd( 3d)     0.00089       2.50358
   117    C   12  dxz    Ryd( 3d)     0.00116       2.52293
   118    C   12  dyz    Ryd( 3d)     0.00152       2.64373
   119    C   12  dx2y2  Ryd( 3d)     0.00167       2.76357
   120    C   12  dz2    Ryd( 3d)     0.00225       2.69670

   121    H   13  S      Val( 1S)     0.79042       0.19834
   122    H   13  S      Ryd( 2S)     0.00128       0.81325
   123    H   13  px     Ryd( 2p)     0.00010       2.72810
   124    H   13  py     Ryd( 2p)     0.00068       3.36222
   125    H   13  pz     Ryd( 2p)     0.00003       2.73453

   126    H   14  S      Val( 1S)     0.81807       0.18089
   127    H   14  S      Ryd( 2S)     0.00175       0.81873
   128    H   14  px     Ryd( 2p)     0.00016       2.77419
   129    H   14  py     Ryd( 2p)     0.00019       2.85608
   130    H   14  pz     Ryd( 2p)     0.00048       3.20117

   131    N   15  S      Cor( 1S)     1.99968     -15.36525
   132    N   15  S      Val( 2S)     1.42216      -0.67170
   133    N   15  S      Ryd( 3S)     0.00041       1.61862
   134    N   15  S      Ryd( 4S)     0.00001       4.28513
   135    N   15  px     Val( 2p)     1.42445      -0.19604
   136    N   15  px     Ryd( 3p)     0.00283       1.20569
   137    N   15  py     Val( 2p)     1.42834      -0.19882
   138    N   15  py     Ryd( 3p)     0.00287       1.13210
   139    N   15  pz     Val( 2p)     1.64009      -0.28215
   140    N   15  pz     Ryd( 3p)     0.00436       1.04647
   141    N   15  dxy    Ryd( 3d)     0.00019       2.55378
   142    N   15  dxz    Ryd( 3d)     0.00076       2.46821
   143    N   15  dyz    Ryd( 3d)     0.00111       2.54571
   144    N   15  dx2y2  Ryd( 3d)     0.00170       3.05138
   145    N   15  dz2    Ryd( 3d)     0.00180       2.66970

   146    H   16  S      Val( 1S)     0.62512       0.29139
   147    H   16  S      Ryd( 2S)     0.00120       0.78579
   148    H   16  px     Ryd( 2p)     0.00033       2.76248
   149    H   16  py     Ryd( 2p)     0.00092       3.39023
   150    H   16  pz     Ryd( 2p)     0.00040       2.65840

   151    H   17  S      Val( 1S)     0.62056       0.29877
   152    H   17  S      Ryd( 2S)     0.00107       0.76478
   153    H   17  px     Ryd( 2p)     0.00097       3.45669
   154    H   17  py     Ryd( 2p)     0.00027       2.70363
   155    H   17  pz     Ryd( 2p)     0.00040       2.67184

   156    H   18  S      Val( 1S)     0.79148       0.21305
   157    H   18  S      Ryd( 2S)     0.00092       0.81274
   158    H   18  px     Ryd( 2p)     0.00102       3.46014
   159    H   18  py     Ryd( 2p)     0.00008       2.68620
   160    H   18  pz     Ryd( 2p)     0.00019       2.70947

   161    H   19  S      Val( 1S)     0.77501       0.21149
   162    H   19  S      Ryd( 2S)     0.00166       0.83498
   163    H   19  px     Ryd( 2p)     0.00011       2.83205
   164    H   19  py     Ryd( 2p)     0.00015       2.85542
   165    H   19  pz     Ryd( 2p)     0.00050       3.20257


 Summary of Natural Population Analysis:                  
                                                          
                                       Natural Population 
                Natural  -----------------------------------------------
    Atom  No    Charge         Core      Valence    Rydberg      Total
 -----------------------------------------------------------------------
      C    1    0.10883      1.99912     3.86637    0.02568     5.89117
      H    2    0.17406      0.00000     0.82371    0.00222     0.82594
      C    3   -0.47813      1.99938     4.46611    0.01264     6.47813
      H    4    0.20579      0.00000     0.79208    0.00214     0.79421
      H    5    0.21063      0.00000     0.78680    0.00256     0.78937
      F    6   -0.43106      1.99994     7.42289    0.00822     9.43106
      C    7   -0.43304      1.99939     4.41843    0.01522     6.43304
      H    8    0.20276      0.00000     0.79504    0.00220     0.79724
      C    9   -0.43261      1.99940     4.41670    0.01652     6.43261
      H   10    0.22843      0.00000     0.76884    0.00274     0.77157
      H   11    0.20963      0.00000     0.78819    0.00218     0.79037
      C   12   -0.19902      1.99940     4.18351    0.01610     6.19902
      H   13    0.20750      0.00000     0.79042    0.00208     0.79250
      H   14    0.17934      0.00000     0.81807    0.00259     0.82066
      N   15   -0.93076      1.99968     5.91503    0.01605     7.93076
      H   16    0.37203      0.00000     0.62512    0.00285     0.62797
      H   17    0.37673      0.00000     0.62056    0.00271     0.62327
      H   18    0.20631      0.00000     0.79148    0.00221     0.79369
      H   19    0.22257      0.00000     0.77501    0.00242     0.77743
 =======================================================================
   * Total *   -0.00000     13.99632    43.86436    0.13932    58.00000

                                 Natural Population      
 --------------------------------------------------------
   Core                      13.99632 ( 99.9737% of  14)
   Valence                   43.86436 ( 99.6917% of  44)
   Natural Minimal Basis     57.86068 ( 99.7598% of  58)
   Natural Rydberg Basis      0.13932 (  0.2402% of  58)
 --------------------------------------------------------

    Atom  No          Natural Electron Configuration
 ----------------------------------------------------------------------------
      C    1      [core]2S( 1.01)2p( 2.86)3p( 0.01)3d( 0.01)
      H    2            1S( 0.82)
      C    3      [core]2S( 1.05)2p( 3.42)3p( 0.01)3d( 0.01)
      H    4            1S( 0.79)
      H    5            1S( 0.79)
      F    6      [core]2S( 1.83)2p( 5.59)
      C    7      [core]2S( 1.03)2p( 3.38)3p( 0.01)3d( 0.01)
      H    8            1S( 0.80)
      C    9      [core]2S( 1.03)2p( 3.39)3p( 0.01)3d( 0.01)
      H   10            1S( 0.77)
      H   11            1S( 0.79)
      C   12      [core]2S( 1.01)2p( 3.17)3p( 0.01)3d( 0.01)
      H   13            1S( 0.79)
      H   14            1S( 0.82)
      N   15      [core]2S( 1.42)2p( 4.49)3p( 0.01)3d( 0.01)
      H   16            1S( 0.63)
      H   17            1S( 0.62)
      H   18            1S( 0.79)
      H   19            1S( 0.78)


 NBO analysis skipped by request.
 Leave Link  607 at Thu Mar 12 14:21:47 2020, MaxMem=   134217728 cpu:               1.3 elap:               0.1
 (Enter /home/soft/g16/l9999.exe)

 Test job not archived.
 1\1\GINC-NODE07\SP\RHF\6-31G(d,p)\C5H12F1N1\ROOT\12-Mar-2020\0\\#p hf/
 6-31g** pop=npa charge nosymm\\Atom number=19\\0,1\C,0,-5.70334476,0.0
 3350295,-0.55282649\H,0,-5.30663952,0.49443822,0.32755049\C,0,-5.17790
 776,0.76996336,-1.79907768\H,0,-5.48466583,1.79443926,-1.76374191\H,0,
 -5.57461301,0.30902809,-2.67945466\F,0,-5.31631356,-1.2590601,-0.59740
 9\C,0,-3.11457255,1.43180701,-3.07535251\H,0,-3.42133061,2.45628291,-3
 .04001674\C,0,-3.64000955,0.6953466,-1.82910132\H,0,-3.33325148,-0.329
 12931,-1.86443708\H,0,-3.2433043,1.15628186,-0.94872434\C,0,-1.5766743
 3,1.35719024,-3.10537615\H,0,-1.26991626,0.33271434,-3.14071191\H,0,-1
 .17996909,1.81812551,-2.22499917\N,0,-1.07512083,2.06017518,-4.2949795
 5\H,0,-1.36181061,3.01762929,-4.26195547\H,0,-0.07648562,2.01172274,-4
 .31447543\H,0,-6.77188443,0.08534706,-0.53196591\H,0,-3.51127779,0.970
 87174,-3.95572949\\Version=ES64L-G16RevA.03\HF=-350.4813927\RMSD=2.042
 e-09\Dipole=-0.0254137,0.7561469,0.6576002\Quadrupole=5.9173415,2.0197
 863,-7.9371279,-5.1454318,-4.7201747,-0.4634233\PG=C01 [X(C5H12F1N1)]\
 \@


 NEVER TEACH A PIG TO SING.
 IT WASTES YOUR TIME AND ANNOYS THE PIG.
     -- SEEN ON A GREETING CARD
 Job cpu time:       0 days  0 hours  0 minutes 37.4 seconds.
 Elapsed time:       0 days  0 hours  0 minutes  3.5 seconds.
 File lengths (MBytes):  RWF=     80 Int=      0 D2E=      0 Chk=      8 Scr=      8
 Normal termination of Gaussian 16 at Thu Mar 12 14:21:47 2020.
