#INFO: **** input file is /home/liwei01/wsr/dftpart/test_2body/c8b/gfea_c8.py ****
from dftpart import gfea3
from pyscf import lib

par = 8
with lib.with_omp_threads(par):
    fr0 = gfea3.GFEA()
    fr0.inputstyle = 'frg'
    fr0.method = ['hf', '6-31gss','cart','charge']
    fr0.gjfname = 'c8b'
    fr0.output = 'c8b'
    fr0.verbose = 9
    fr0.showinter = True
    fr0.kernel()

#INFO: ******************** input file end ********************


System: uname_result(system='Linux', node='master', release='3.10.0-693.el7.x86_64', version='#1 SMP Tue Aug 22 21:09:27 UTC 2017', machine='x86_64', processor='x86_64')  Threads 8
Python 3.6.4 |Anaconda, Inc.| (default, Jan 16 2018, 18:10:19) 
[GCC 7.2.0]
numpy 1.14.0  scipy 1.0.0
Date: Thu Mar 19 14:14:56 2020
PySCF version 1.6.1
PySCF path  /home/liwei01/zcheng/pyscf/pyscf
GIT HEAD      ref: refs/heads/master
GIT master branch  3adc7fd25839fe674469a52b764c3661e32d7318

[CONFIG] DEBUG = False
[CONFIG] MAX_MEMORY = 4000
[CONFIG] TMPDIR = .
[CONFIG] UNIT = angstrom
[CONFIG] VERBOSE = 3
[CONFIG] conf_file = None
[INPUT] verbose = 9
[INPUT] max_memory = 4000 
[INPUT] num. atoms = 18
[INPUT] num. electrons = 58
[INPUT] charge = 0
[INPUT] spin (= nelec alpha-beta = 2S) = 0
[INPUT] symmetry False subgroup None
[INPUT] Mole.unit = angstrom
[INPUT] Cartesian GTO integrals (6d 10f)
[INPUT]  1 C     -7.241242980000   0.108119710000  -0.522802850000 AA  -13.683966033629   0.204316640567  -0.987954203642 Bohr
[INPUT]  2 H     -7.548001040000   1.132595610000  -0.487467080000 AA  -14.263654753532   2.140295512785  -0.921179275941 Bohr
[INPUT]  3 H     -7.637948220000  -0.352815550000  -1.403179830000 AA  -14.433630289409  -0.666724761988  -2.651625582214 Bohr
[INPUT]  4 O     -7.729148760000  -0.575736380000   0.634430400000 AA  -14.605974332422  -1.087984078149   1.198899701098 Bohr
[INPUT]  5 H     -8.687838560000  -0.529222040000   0.653146440000 AA  -16.417635492836  -1.000084714684   1.234267890835 Bohr
[INPUT]  6 C     -5.703344760000   0.033502950000  -0.552826490000 AA  -10.777759590373   0.063311399865  -1.044690660505 Bohr
[INPUT]  7 H     -5.306639520000   0.494438220000   0.327550490000 AA  -10.028095334593   0.934352821317   0.618980718067 Bohr
[INPUT]  8 C     -5.177907760000   0.769963360000  -1.799077680000 AA   -9.784827564660   1.455019876350  -3.399764092018 Bohr
[INPUT]  9 H     -5.484665830000   1.794439260000  -1.763741910000 AA  -10.364516303460   3.390998748567  -3.332989164317 Bohr
[INPUT] 10 H     -5.574613010000   0.309028090000  -2.679454660000 AA  -10.534491839337   0.583978454897  -5.063435470590 Bohr
[INPUT] 11 F     -5.316313560000  -1.259060100000  -0.597409000000 AA  -10.046376620711  -2.379278763367  -1.128939394350 Bohr
[INPUT] 12 C     -3.114572550000   1.431807010000  -3.075352510000 AA   -5.885689114588   2.705723112132  -5.811573980394 Bohr
[INPUT] 13 H     -3.421330610000   2.456282910000  -3.040016740000 AA   -6.465377834491   4.641701984350  -5.744799052693 Bohr
[INPUT] 14 C     -3.640009550000   0.695346600000  -1.829101320000 AA   -6.878621140301   1.314014635647  -3.456500548880 Bohr
[INPUT] 15 H     -3.333251480000  -0.329129310000  -1.864437080000 AA   -6.298932401501  -0.621964255467  -3.523275457684 Bohr
[INPUT] 16 H     -3.243304300000   1.156281860000  -0.948724340000 AA   -6.128956865624   2.185056038203  -1.792829170309 Bohr
[INPUT] 17 H     -3.511277790000   0.970871740000  -3.955729490000 AA   -6.635353370368   1.834681690680  -7.475245358965 Bohr
[INPUT] 18 H     -2.046032880000   1.379962890000  -3.096213090000 AA   -3.866441785055   2.607751924163  -5.850994763393 Bohr
[INPUT] ---------------- BASIS SET ---------------- 
[INPUT] l, kappa, [nprim/nctr], expnt,             c_1 c_2 ...
[INPUT] H
[INPUT] 0    0    [3    /1   ]  18.731137         0.0334946
                                2.8253937         0.23472695
                                0.6401217         0.81375733
[INPUT] 0    0    [1    /1   ]  0.1612778            1
[INPUT] 1    0    [1    /1   ]  1.1                  1
[INPUT] F
[INPUT] 0    0    [6    /1   ]  7001.71309        0.0018196169
                                1051.36609        0.0139160796
                                239.28569         0.0684053245
                                67.3974453        0.23318576
                                21.5199573        0.471267439
                                7.4031013         0.356618546
[INPUT] 0    0    [3    /1   ]  20.8479528        -0.108506975
                                4.80830834        -0.146451658
                                1.34406986        1.12868858
[INPUT] 0    0    [1    /1   ]  0.358151393          1
[INPUT] 1    0    [3    /1   ]  20.8479528        0.0716287243
                                4.80830834        0.345912103
                                1.34406986        0.722469957
[INPUT] 1    0    [1    /1   ]  0.358151393          1
[INPUT] 2    0    [1    /1   ]  0.8                  1
[INPUT] O
[INPUT] 0    0    [6    /1   ]  5484.6717         0.0018311
                                825.23495         0.0139501
                                188.04696         0.0684451
                                52.9645           0.2327143
                                16.89757          0.470193
                                5.7996353         0.3585209
[INPUT] 0    0    [3    /1   ]  15.539616         -0.1107775
                                3.5999336         -0.1480263
                                1.0137618         1.130767
[INPUT] 0    0    [1    /1   ]  0.2700058            1
[INPUT] 1    0    [3    /1   ]  15.539616         0.0708743
                                3.5999336         0.3397528
                                1.0137618         0.7271586
[INPUT] 1    0    [1    /1   ]  0.2700058            1
[INPUT] 2    0    [1    /1   ]  0.8                  1
[INPUT] C
[INPUT] 0    0    [6    /1   ]  3047.5249         0.0018347
                                457.36951         0.0140373
                                103.94869         0.0688426
                                29.210155         0.2321844
                                9.286663          0.4679413
                                3.163927          0.362312
[INPUT] 0    0    [3    /1   ]  7.8682724         -0.1193324
                                1.8812885         -0.1608542
                                0.5442493         1.1434564
[INPUT] 0    0    [1    /1   ]  0.1687144            1
[INPUT] 1    0    [3    /1   ]  7.8682724         0.0689991
                                1.8812885         0.316424
                                0.5442493         0.7443083
[INPUT] 1    0    [1    /1   ]  0.1687144            1
[INPUT] 2    0    [1    /1   ]  0.8                  1

nuclear repulsion = 326.446241199013
number of shells = 75
number of NR pGTOs = 273
number of NR cGTOs = 160
basis = 6-31gss
ecp = {}
bas 0, expnt(s) = [3047.5249    457.36951   103.94869    29.210155    9.286663    3.163927]
bas 1, expnt(s) = [7.8682724 1.8812885 0.5442493]
bas 2, expnt(s) = [0.1687144]
bas 3, expnt(s) = [7.8682724 1.8812885 0.5442493]
bas 4, expnt(s) = [0.1687144]
bas 5, expnt(s) = [0.8]
bas 6, expnt(s) = [18.731137   2.8253937  0.6401217]
bas 7, expnt(s) = [0.1612778]
bas 8, expnt(s) = [1.1]
bas 9, expnt(s) = [18.731137   2.8253937  0.6401217]
bas 10, expnt(s) = [0.1612778]
bas 11, expnt(s) = [1.1]
bas 12, expnt(s) = [5484.6717     825.23495    188.04696     52.9645      16.89757
    5.7996353]
bas 13, expnt(s) = [15.539616   3.5999336  1.0137618]
bas 14, expnt(s) = [0.2700058]
bas 15, expnt(s) = [15.539616   3.5999336  1.0137618]
bas 16, expnt(s) = [0.2700058]
bas 17, expnt(s) = [0.8]
bas 18, expnt(s) = [18.731137   2.8253937  0.6401217]
bas 19, expnt(s) = [0.1612778]
bas 20, expnt(s) = [1.1]
bas 21, expnt(s) = [3047.5249    457.36951   103.94869    29.210155    9.286663    3.163927]
bas 22, expnt(s) = [7.8682724 1.8812885 0.5442493]
bas 23, expnt(s) = [0.1687144]
bas 24, expnt(s) = [7.8682724 1.8812885 0.5442493]
bas 25, expnt(s) = [0.1687144]
bas 26, expnt(s) = [0.8]
bas 27, expnt(s) = [18.731137   2.8253937  0.6401217]
bas 28, expnt(s) = [0.1612778]
bas 29, expnt(s) = [1.1]
bas 30, expnt(s) = [3047.5249    457.36951   103.94869    29.210155    9.286663    3.163927]
bas 31, expnt(s) = [7.8682724 1.8812885 0.5442493]
bas 32, expnt(s) = [0.1687144]
bas 33, expnt(s) = [7.8682724 1.8812885 0.5442493]
bas 34, expnt(s) = [0.1687144]
bas 35, expnt(s) = [0.8]
bas 36, expnt(s) = [18.731137   2.8253937  0.6401217]
bas 37, expnt(s) = [0.1612778]
bas 38, expnt(s) = [1.1]
bas 39, expnt(s) = [18.731137   2.8253937  0.6401217]
bas 40, expnt(s) = [0.1612778]
bas 41, expnt(s) = [1.1]
bas 42, expnt(s) = [7001.71309   1051.36609    239.28569     67.3974453   21.5199573
    7.4031013]
bas 43, expnt(s) = [20.8479528   4.80830834  1.34406986]
bas 44, expnt(s) = [0.35815139]
bas 45, expnt(s) = [20.8479528   4.80830834  1.34406986]
bas 46, expnt(s) = [0.35815139]
bas 47, expnt(s) = [0.8]
bas 48, expnt(s) = [3047.5249    457.36951   103.94869    29.210155    9.286663    3.163927]
bas 49, expnt(s) = [7.8682724 1.8812885 0.5442493]
bas 50, expnt(s) = [0.1687144]
bas 51, expnt(s) = [7.8682724 1.8812885 0.5442493]
bas 52, expnt(s) = [0.1687144]
bas 53, expnt(s) = [0.8]
bas 54, expnt(s) = [18.731137   2.8253937  0.6401217]
bas 55, expnt(s) = [0.1612778]
bas 56, expnt(s) = [1.1]
bas 57, expnt(s) = [3047.5249    457.36951   103.94869    29.210155    9.286663    3.163927]
bas 58, expnt(s) = [7.8682724 1.8812885 0.5442493]
bas 59, expnt(s) = [0.1687144]
bas 60, expnt(s) = [7.8682724 1.8812885 0.5442493]
bas 61, expnt(s) = [0.1687144]
bas 62, expnt(s) = [0.8]
bas 63, expnt(s) = [18.731137   2.8253937  0.6401217]
bas 64, expnt(s) = [0.1612778]
bas 65, expnt(s) = [1.1]
bas 66, expnt(s) = [18.731137   2.8253937  0.6401217]
bas 67, expnt(s) = [0.1612778]
bas 68, expnt(s) = [1.1]
bas 69, expnt(s) = [18.731137   2.8253937  0.6401217]
bas 70, expnt(s) = [0.1612778]
bas 71, expnt(s) = [1.1]
bas 72, expnt(s) = [18.731137   2.8253937  0.6401217]
bas 73, expnt(s) = [0.1612778]
bas 74, expnt(s) = [1.1]
CPU time:         0.99
arg.atm = [[ 6 20  1 23  0  0]
 [ 1 24  1 27  0  0]
 [ 1 28  1 31  0  0]
 [ 8 32  1 35  0  0]
 [ 1 36  1 39  0  0]
 [ 6 40  1 43  0  0]
 [ 1 44  1 47  0  0]
 [ 6 48  1 51  0  0]
 [ 1 52  1 55  0  0]
 [ 1 56  1 59  0  0]
 [ 9 60  1 63  0  0]
 [ 6 64  1 67  0  0]
 [ 1 68  1 71  0  0]
 [ 6 72  1 75  0  0]
 [ 1 76  1 79  0  0]
 [ 1 80  1 83  0  0]
 [ 1 84  1 87  0  0]
 [ 1 88  1 91  0  0]]
arg.bas = [[  0   0   6   1   0 162 168   0]
 [  0   0   3   1   0 174 177   0]
 [  0   0   1   1   0 180 181   0]
 [  0   1   3   1   0 182 185   0]
 [  0   1   1   1   0 188 189   0]
 [  0   2   1   1   0 190 191   0]
 [  1   0   3   1   0  92  95   0]
 [  1   0   1   1   0  98  99   0]
 [  1   1   1   1   0 100 101   0]
 [  2   0   3   1   0  92  95   0]
 [  2   0   1   1   0  98  99   0]
 [  2   1   1   1   0 100 101   0]
 [  3   0   6   1   0 132 138   0]
 [  3   0   3   1   0 144 147   0]
 [  3   0   1   1   0 150 151   0]
 [  3   1   3   1   0 152 155   0]
 [  3   1   1   1   0 158 159   0]
 [  3   2   1   1   0 160 161   0]
 [  4   0   3   1   0  92  95   0]
 [  4   0   1   1   0  98  99   0]
 [  4   1   1   1   0 100 101   0]
 [  5   0   6   1   0 162 168   0]
 [  5   0   3   1   0 174 177   0]
 [  5   0   1   1   0 180 181   0]
 [  5   1   3   1   0 182 185   0]
 [  5   1   1   1   0 188 189   0]
 [  5   2   1   1   0 190 191   0]
 [  6   0   3   1   0  92  95   0]
 [  6   0   1   1   0  98  99   0]
 [  6   1   1   1   0 100 101   0]
 [  7   0   6   1   0 162 168   0]
 [  7   0   3   1   0 174 177   0]
 [  7   0   1   1   0 180 181   0]
 [  7   1   3   1   0 182 185   0]
 [  7   1   1   1   0 188 189   0]
 [  7   2   1   1   0 190 191   0]
 [  8   0   3   1   0  92  95   0]
 [  8   0   1   1   0  98  99   0]
 [  8   1   1   1   0 100 101   0]
 [  9   0   3   1   0  92  95   0]
 [  9   0   1   1   0  98  99   0]
 [  9   1   1   1   0 100 101   0]
 [ 10   0   6   1   0 102 108   0]
 [ 10   0   3   1   0 114 117   0]
 [ 10   0   1   1   0 120 121   0]
 [ 10   1   3   1   0 122 125   0]
 [ 10   1   1   1   0 128 129   0]
 [ 10   2   1   1   0 130 131   0]
 [ 11   0   6   1   0 162 168   0]
 [ 11   0   3   1   0 174 177   0]
 [ 11   0   1   1   0 180 181   0]
 [ 11   1   3   1   0 182 185   0]
 [ 11   1   1   1   0 188 189   0]
 [ 11   2   1   1   0 190 191   0]
 [ 12   0   3   1   0  92  95   0]
 [ 12   0   1   1   0  98  99   0]
 [ 12   1   1   1   0 100 101   0]
 [ 13   0   6   1   0 162 168   0]
 [ 13   0   3   1   0 174 177   0]
 [ 13   0   1   1   0 180 181   0]
 [ 13   1   3   1   0 182 185   0]
 [ 13   1   1   1   0 188 189   0]
 [ 13   2   1   1   0 190 191   0]
 [ 14   0   3   1   0  92  95   0]
 [ 14   0   1   1   0  98  99   0]
 [ 14   1   1   1   0 100 101   0]
 [ 15   0   3   1   0  92  95   0]
 [ 15   0   1   1   0  98  99   0]
 [ 15   1   1   1   0 100 101   0]
 [ 16   0   3   1   0  92  95   0]
 [ 16   0   1   1   0  98  99   0]
 [ 16   1   1   1   0 100 101   0]
 [ 17   0   3   1   0  92  95   0]
 [ 17   0   1   1   0  98  99   0]
 [ 17   1   1   1   0 100 101   0]]
arg.env = [ 1.37036000e+02  0.00000000e+00  0.00000000e+00  0.00000000e+00
  0.00000000e+00  0.00000000e+00  0.00000000e+00  0.00000000e+00
  0.00000000e+00  0.00000000e+00  0.00000000e+00  0.00000000e+00
  0.00000000e+00  0.00000000e+00  0.00000000e+00  0.00000000e+00
  0.00000000e+00  0.00000000e+00  0.00000000e+00  0.00000000e+00
 -1.36839660e+01  2.04316641e-01 -9.87954204e-01  0.00000000e+00
 -1.42636548e+01  2.14029551e+00 -9.21179276e-01  0.00000000e+00
 -1.44336303e+01 -6.66724762e-01 -2.65162558e+00  0.00000000e+00
 -1.46059743e+01 -1.08798408e+00  1.19889970e+00  0.00000000e+00
 -1.64176355e+01 -1.00008471e+00  1.23426789e+00  0.00000000e+00
 -1.07777596e+01  6.33113999e-02 -1.04469066e+00  0.00000000e+00
 -1.00280953e+01  9.34352821e-01  6.18980718e-01  0.00000000e+00
 -9.78482756e+00  1.45501988e+00 -3.39976409e+00  0.00000000e+00
 -1.03645163e+01  3.39099875e+00 -3.33298916e+00  0.00000000e+00
 -1.05344918e+01  5.83978455e-01 -5.06343547e+00  0.00000000e+00
 -1.00463766e+01 -2.37927876e+00 -1.12893939e+00  0.00000000e+00
 -5.88568911e+00  2.70572311e+00 -5.81157398e+00  0.00000000e+00
 -6.46537783e+00  4.64170198e+00 -5.74479905e+00  0.00000000e+00
 -6.87862114e+00  1.31401464e+00 -3.45650055e+00  0.00000000e+00
 -6.29893240e+00 -6.21964255e-01 -3.52327546e+00  0.00000000e+00
 -6.12895687e+00  2.18505604e+00 -1.79282917e+00  0.00000000e+00
 -6.63535337e+00  1.83468169e+00 -7.47524536e+00  0.00000000e+00
 -3.86644179e+00  2.60775192e+00 -5.85099476e+00  0.00000000e+00
  1.87311370e+01  2.82539370e+00  6.40121700e-01  7.61926220e-01
  1.29237100e+00  1.47131900e+00  1.61277800e-01  6.42977783e-01
  1.10000000e+00  3.28643653e+00  7.00171309e+03  1.05136609e+03
  2.39285690e+02  6.73974453e+01  2.15199573e+01  7.40310130e+00
  3.51882946e+00  6.49153500e+00  1.05145933e+01  1.38579703e+01
  1.18963440e+01  4.04370270e+00  2.08479528e+01  4.80830834e+00
  1.34406986e+00 -2.67467022e+00 -1.20144405e+00  3.55963557e+00
  3.58151393e-01  1.16967446e+00  2.08479528e+01  4.80830834e+00
  1.34406986e+00  9.30895386e+00  7.18522772e+00  3.05022227e+00
  3.58151393e-01  8.08290917e-01  8.00000000e-01  1.76578110e+00
  5.48467170e+03  8.25234950e+02  1.88046960e+02  5.29645000e+01
  1.68975700e+01  5.79963530e+00  2.94842455e+00  5.42657124e+00
  8.78126489e+00  1.15432129e+01  9.90055015e+00  3.38516599e+00
  1.55396160e+01  3.59993360e+00  1.01376180e+00 -2.19051792e+00
 -9.77405528e-01  2.88629094e+00  2.70005800e-01  9.46334873e-01
  1.55396160e+01  3.59993360e+00  1.01376180e+00  6.37930734e+00
  4.91490975e+00  2.15791055e+00  2.70005800e-01  5.67807022e-01
  8.00000000e-01  1.76578110e+00  3.04752490e+03  4.57369510e+02
  1.03948690e+02  2.92101550e+01  9.28666300e+00  3.16392700e+00
  1.90125588e+00  3.50751108e+00  5.66221808e+00  7.37052623e+00
  6.28928397e+00  2.17153894e+00  7.86827240e+00  1.88128850e+00
  5.44249300e-01 -1.41639039e+00 -6.52813326e-01  1.83055623e+00
  1.68714400e-01  6.65088040e-01  7.86827240e+00  1.88128850e+00
  5.44249300e-01  2.65263212e+00  2.03386926e+00  1.01504332e+00
  1.68714400e-01  3.15445679e-01  8.00000000e-01  1.76578110e+00]
ecpbas  = []


******** <class 'pyscf.qmmm.itrf.mm_charge.<locals>.QMMM'> ********
method = QMMM-RHF
initial guess = minao
damping factor = 0
level shift factor = 0
DIIS = <class 'pyscf.scf.diis.CDIIS'>
DIIS start cycle = 1
DIIS space = 8
SCF tol = 1e-09
SCF gradient tol = None
max. SCF cycles = 50
direct_scf = True
direct_scf_tol = 1e-13
chkfile to save SCF result = /home/liwei01/wsr/dftpart/test_2body/c8b/tmpk16lp7mp
max_memory 4000 MB (current use 65 MB)
** Add background charges for <class 'pyscf.scf.hf.RHF'> **
Charge      Location
-0.197682    [-2.97948267  2.56471785 -5.86831044]
0.207616    [-2.39979393  0.62873898 -5.93508535]
0.179451    [-2.22981842  3.43575927 -4.20463906]
-0.928603    [-2.03168392  3.89316686 -8.11633506]
0.372877    [-2.57344909  5.7024929  -8.05392859]
0.377418    [-0.14453687  3.80160502 -8.15317693]
Set gradient conv threshold to 3.16228e-05
Nelec from initial guess = 57.95620056865959
cond(S) = 4136.359457342336
E1 = -1146.9994856013516  E_coul = 449.3605063951682
init E= -371.696666835736
    CPU time for initialize scf      7.60 sec, wall time      0.99 sec
  HOMO = -0.335047909266489  LUMO = 0.113553932345081
  mo_energy =
[-26.49736069 -20.80492529 -11.45144279 -11.44847378 -11.44642771
 -11.44214215 -11.41965079  -1.93037594  -1.7048098   -1.57635814
  -1.33481798  -1.14450033  -0.96883669  -0.94735469  -0.78242964
  -0.75677907  -0.70666213  -0.69150888  -0.63444383  -0.59936148
  -0.55454962  -0.51877407  -0.48101588  -0.46555419  -0.40415661
  -0.40271427  -0.38757998  -0.37093808  -0.33504791   0.11355393
   0.15416622   0.16959985   0.18160472   0.2106712    0.22390347
   0.24281527   0.24962114   0.26358305   0.2770523    0.2894917
   0.29989155   0.30820741   0.3216995    0.32599928   0.35661228
   0.37202747   0.62597604   0.65703317   0.67395108   0.68822794
   0.70687708   0.70850578   0.74990085   0.76725878   0.78334486
   0.81277505   0.84434212   0.86105573   0.90472975   0.94190653
   0.9596815    1.00238875   1.0225547    1.03971646   1.05437013
   1.06454604   1.0757481    1.09632114   1.10160918   1.11161998
   1.13031537   1.13251149   1.14976369   1.1777402    1.21667409
   1.3210961    1.35457504   1.42224613   1.45678234   1.49131506
   1.50771476   1.57155203   1.59219506   1.60042381   1.61296786
   1.71568523   1.73290308   1.76213743   1.79545663   1.82621474
   1.87214852   1.88222592   1.91145325   1.97124832   2.00008398
   2.03240834   2.0597756    2.0815488    2.14475956   2.15978364
   2.17401526   2.20444191   2.22341713   2.27146396   2.30713029
   2.32132646   2.33259388   2.34385842   2.3685316    2.40395366
   2.41470724   2.44172337   2.48876759   2.51205114   2.52340174
   2.54246499   2.55467447   2.59641727   2.60395431   2.65251405
   2.6715275    2.74188884   2.76628689   2.81597213   2.88397481
   2.9126675    2.9202593    2.95069472   2.96511134   2.99413775
   3.01208454   3.05420861   3.06758803   3.11462778   3.14647692
   3.15305533   3.17967774   3.22450817   3.22811924   3.24071046
   3.28128755   3.39517516   3.54154752   3.58588133   3.59957352
   3.62924776   3.67140622   3.71017556   3.7686709    3.81900308
   3.84113461   3.88172569   3.88661043   4.23492003   4.51442009
   4.65581028   4.7968574    4.89689137   4.93797015   5.04619656]
E1 = -1155.8996286513036  E_coul = 459.9550854448129
cycle= 1 E= -370.002230836044  delta_E= 1.69  |g|= 0.698  |ddm|= 3.44
    CPU time for cycle= 1      0.94 sec, wall time      0.12 sec
diis-norm(errvec)=1.64824
diis-c [-2.71668963  1.        ]
  HOMO = -0.38613376144003  LUMO = 0.215235608135685
  mo_energy =
[-26.05966654 -20.33072848 -11.4027335  -11.34219278 -11.20073744
 -11.16276264 -11.12504896  -1.51704407  -1.29153126  -1.08585199
  -1.00778905  -0.91695099  -0.83367192  -0.79539524  -0.70107668
  -0.67371894  -0.62903045  -0.62386979  -0.59622273  -0.59322578
  -0.53335859  -0.52599632  -0.48988797  -0.47598571  -0.4615441
  -0.44968301  -0.44338943  -0.40576272  -0.38613376   0.21523561
   0.23312251   0.2579796    0.26117144   0.29512168   0.31821767
   0.32211104   0.34312174   0.34645615   0.3606597    0.365628
   0.37169983   0.38719006   0.41505614   0.4497912    0.46027047
   0.49203333   0.71619431   0.73185973   0.75847949   0.77115443
   0.78540036   0.80503038   0.83312405   0.86034544   0.88144354
   0.93565662   0.94974626   0.97486276   0.99584228   1.05015055
   1.06173041   1.08804874   1.1247603    1.14195828   1.14492998
   1.1550903    1.18201001   1.19372567   1.20571457   1.21766668
   1.23289615   1.27839967   1.28412796   1.29375212   1.36541979
   1.45509347   1.46263717   1.51836367   1.55148209   1.61307707
   1.63315638   1.6892498    1.69906535   1.75980652   1.77715005
   1.81957667   1.84406097   1.87257228   1.90946701   1.92249726
   1.97881668   1.99850472   2.04537545   2.07169384   2.10737443
   2.14179199   2.18152258   2.21400802   2.26769914   2.2881551
   2.29999241   2.33163636   2.34122268   2.37727454   2.38662204
   2.41166557   2.41889806   2.44107727   2.46100756   2.51014513
   2.51313321   2.52557649   2.57531913   2.60337381   2.62518633
   2.63706302   2.65146241   2.67231107   2.69810051   2.74522964
   2.78607644   2.83593232   2.87049682   2.89493927   2.96104345
   2.99997861   3.01266005   3.04152388   3.06588564   3.07751034
   3.10808253   3.14907268   3.16987697   3.20531191   3.24015932
   3.25294545   3.27196435   3.31923317   3.33018685   3.34972371
   3.37328683   3.53847815   3.64138002   3.65884603   3.69491786
   3.72975044   3.79135646   3.81480441   3.86587103   3.89919023
   3.94515137   3.99177518   4.01567766   4.45578378   4.63257393
   4.82333387   4.9311703    5.02957594   5.10164485   5.18947107]
E1 = -1153.4109107478723  E_coul = 457.374703622996
cycle= 2 E= -370.093894754429  delta_E= -0.0917  |g|= 0.36  |ddm|= 0.682
    CPU time for cycle= 2      0.83 sec, wall time      0.12 sec
diis-norm(errvec)=0.7633
diis-c [-0.33185478  0.24486841  0.75513159]
  HOMO = -0.415063239856728  LUMO = 0.221392944881651
  mo_energy =
[-26.31703674 -20.61480654 -11.27832197 -11.25318101 -11.21178037
 -11.20584341 -11.17393834  -1.59838417  -1.36477655  -1.07558466
  -1.00375429  -0.91146003  -0.83041599  -0.80037311  -0.71749536
  -0.70468428  -0.66608363  -0.65417971  -0.62246432  -0.61187031
  -0.56225489  -0.54080083  -0.52806861  -0.50649017  -0.47490513
  -0.47380513  -0.46009577  -0.45217238  -0.41506324   0.22139294
   0.23907788   0.2654048    0.27412126   0.30424013   0.32332083
   0.33529732   0.34720832   0.34836871   0.36377111   0.37021069
   0.37950636   0.39744185   0.43141074   0.45745608   0.47097418
   0.49103033   0.71743854   0.73998232   0.75480934   0.76911037
   0.79765976   0.81578207   0.84270218   0.86153237   0.90416677
   0.93879576   0.95385695   0.96627444   1.00093649   1.04631013
   1.06357265   1.10374598   1.13031513   1.14534654   1.14901706
   1.17249144   1.18136911   1.19803057   1.2027589    1.22036387
   1.22812513   1.23321448   1.25065156   1.28281656   1.32197234
   1.42196026   1.45211219   1.5202596    1.55351759   1.59945915
   1.60197298   1.6783232    1.68695929   1.71183027   1.71490868
   1.80792058   1.82907415   1.8537721    1.89155916   1.92141829
   1.97865688   1.98841544   2.02479331   2.06760076   2.11909932
   2.13744233   2.17797147   2.20338635   2.25527455   2.26627706
   2.28807694   2.31752622   2.33534499   2.38121011   2.38966549
   2.41921388   2.43525387   2.44271596   2.46461514   2.50730856
   2.51470425   2.53953749   2.57843734   2.60484092   2.62432939
   2.63760052   2.65233894   2.68394826   2.70100873   2.74751349
   2.76732585   2.8383242    2.86543026   2.90199765   2.97290159
   2.99182626   3.02086107   3.03833808   3.07213537   3.08822267
   3.11187024   3.15360489   3.17642766   3.21688092   3.24505336
   3.26031966   3.27565094   3.32172851   3.33350386   3.34243818
   3.37941002   3.51586466   3.6565879    3.68819178   3.7077057
   3.74067225   3.79008748   3.81378014   3.85726364   3.9236147
   3.95391363   3.98430971   4.0083155    4.36525952   4.66114723
   4.81077046   4.94498157   5.04295161   5.0557726    5.19224967]
E1 = -1154.6496981902771  E_coul = 458.59152551070855
cycle= 3 E= -370.115860309121  delta_E= -0.022  |g|= 0.0969  |ddm|= 0.315
    CPU time for cycle= 3      0.77 sec, wall time      0.10 sec
diis-norm(errvec)=0.210782
diis-c [-0.00975881 -0.09095476  0.09123364  0.99972112]
  HOMO = -0.420616547453833  LUMO = 0.22728063188073
  mo_energy =
[-26.26225697 -20.54820784 -11.29431533 -11.27092557 -11.21701201
 -11.20487732 -11.17249467  -1.584468    -1.34408771  -1.07678347
  -1.00323436  -0.91010633  -0.82691859  -0.79803246  -0.71271739
  -0.69589693  -0.65569272  -0.64748555  -0.62025247  -0.60781854
  -0.55710059  -0.53620857  -0.52692201  -0.50610615  -0.47488449
  -0.47314894  -0.46158162  -0.44211509  -0.42061655   0.22728063
   0.24074341   0.26726158   0.2739912    0.30532033   0.32495742
   0.33656547   0.34872381   0.34952419   0.36564466   0.37239443
   0.38028027   0.39805273   0.43117633   0.45923547   0.46993433
   0.49354604   0.71744521   0.73835242   0.75568941   0.76890577
   0.7957253    0.814714     0.84164986   0.86101538   0.90030116
   0.93731095   0.95367866   0.96609183   1.00179788   1.05283836
   1.06342627   1.10480234   1.13216259   1.14648227   1.1503835
   1.17317402   1.18209818   1.19963266   1.20522005   1.22215259
   1.23083667   1.24499087   1.25904366   1.28771067   1.32809802
   1.42680133   1.45661771   1.52116153   1.55459618   1.60209318
   1.60710338   1.68148253   1.69023472   1.71690107   1.72193847
   1.81301582   1.83234338   1.86426509   1.8987424    1.92083453
   1.97912993   1.99212289   2.02866304   2.0693383    2.1179426
   2.13842769   2.1777934    2.20496266   2.25957149   2.2751493
   2.29023601   2.31991677   2.33634375   2.38309297   2.39543234
   2.42037692   2.43789455   2.44373989   2.46693551   2.51190252
   2.51626384   2.54005418   2.58183189   2.60932128   2.62692765
   2.64048784   2.65459821   2.68692302   2.70356851   2.75150827
   2.77405251   2.84147052   2.86937932   2.90581887   2.97659407
   3.00200606   3.02270969   3.04311862   3.07344753   3.09285831
   3.11464928   3.15484996   3.17811923   3.21778766   3.2491544
   3.26012198   3.27810352   3.32616486   3.33355109   3.34687528
   3.38204179   3.51937561   3.66015775   3.68786299   3.71050421
   3.7436397    3.79364216   3.8215047    3.86887724   3.92240456
   3.95522869   3.98924073   4.0117551    4.38413036   4.65583603
   4.8120545    4.940847     5.04076703   5.06038993   5.18821852]
E1 = -1154.4289467941883  E_coul = 458.3687543315949
cycle= 4 E= -370.117880092146  delta_E= -0.00202  |g|= 0.0108  |ddm|= 0.0767
    CPU time for cycle= 4      0.81 sec, wall time      0.13 sec
diis-norm(errvec)=0.0261403
diis-c [-4.16266536e-04 -1.20243214e-02 -1.57967178e-02  4.82499767e-02
  9.79571062e-01]
  HOMO = -0.419420216259662  LUMO = 0.226251010902375
  mo_energy =
[-26.26695163 -20.55395599 -11.29555701 -11.26993662 -11.20920357
 -11.2011491  -11.16830993  -1.58574556  -1.34661879  -1.07438546
  -1.00194323  -0.90883401  -0.8266402   -0.79633253  -0.71287362
  -0.69675576  -0.65662109  -0.64790384  -0.61911083  -0.60853583
  -0.55664119  -0.53580685  -0.52594307  -0.5053515   -0.47501155
  -0.4719826   -0.46042934  -0.44405358  -0.41942022   0.22625101
   0.24125189   0.26763867   0.27472969   0.30602846   0.32557934
   0.33682203   0.34949876   0.35030324   0.36624173   0.37294056
   0.38100063   0.39838014   0.43157345   0.46041311   0.47096096
   0.49432794   0.71821604   0.73902878   0.75659943   0.7696831
   0.79624263   0.81514935   0.84150521   0.86140155   0.90106376
   0.93867707   0.95410582   0.96800627   1.00231061   1.05295274
   1.06449809   1.10489086   1.13285217   1.14744049   1.15105177
   1.17333261   1.18293931   1.20100859   1.20664867   1.22332876
   1.23201833   1.24406125   1.25864984   1.28854284   1.32818736
   1.42715811   1.45636111   1.52165356   1.55525962   1.60256009
   1.60727956   1.6822703    1.69080854   1.71672042   1.72188517
   1.81262112   1.8328431    1.86365716   1.89814481   1.92050419
   1.98089817   1.99358878   2.02915709   2.06975504   2.11881779
   2.13894092   2.1789031    2.20683392   2.25932081   2.27407476
   2.29057155   2.32043253   2.33655474   2.3833387    2.39612532
   2.42049668   2.43843865   2.44481666   2.46783452   2.51293317
   2.51758661   2.54045256   2.58317528   2.60897724   2.62764164
   2.64172081   2.65607585   2.68657444   2.70399216   2.75198204
   2.77362473   2.84226761   2.87052882   2.90621411   2.97622622
   3.00101689   3.02365465   3.04307344   3.07463658   3.09198044
   3.11578424   3.15593526   3.17892526   3.21841539   3.24958808
   3.26082245   3.27889891   3.32745895   3.33456675   3.34797058
   3.38183817   3.51882706   3.66172835   3.6879126    3.71182447
   3.74478896   3.79532967   3.82185472   3.86715309   3.9225258
   3.95700143   3.99055941   4.01383687   4.38297877   4.65745378
   4.81430039   4.94292232   5.04216661   5.06051586   5.19077588]
E1 = -1154.4080216008842  E_coul = 458.34779082605115
cycle= 5 E= -370.117918404386  delta_E= -3.83e-05  |g|= 0.00317  |ddm|= 0.0171
    CPU time for cycle= 5      0.79 sec, wall time      0.10 sec
diis-norm(errvec)=0.00764308
diis-c [-3.76006294e-05  2.71446908e-03 -4.50273635e-03 -3.78834766e-02
  1.01309117e-01  9.38362626e-01]
  HOMO = -0.420354138418112  LUMO = 0.226200484397871
  mo_energy =
[-26.26639266 -20.55350616 -11.29508016 -11.26999502 -11.21220517
 -11.20320475 -11.16994658  -1.58556907  -1.34648375  -1.07522051
  -1.00239791  -0.90940241  -0.82676633  -0.7970187   -0.71287893
  -0.69677351  -0.65666448  -0.64797593  -0.61970067  -0.60857141
  -0.55713091  -0.53631828  -0.52659071  -0.50599764  -0.47527702
  -0.4726465   -0.4612033   -0.44411398  -0.42035414   0.22620048
   0.24095167   0.26738425   0.27449861   0.30579621   0.3253459
   0.33659473   0.34919315   0.34999922   0.36591989   0.37268345
   0.38064762   0.39815212   0.43134749   0.45983219   0.47053136
   0.49384766   0.71771329   0.7384846    0.75602468   0.76914573
   0.79589032   0.81478411   0.84135045   0.86108808   0.90054607
   0.93797629   0.95372171   0.96704841   1.0018612    1.05247944
   1.06389873   1.10470369   1.13241509   1.14693819   1.15060753
   1.17311733   1.18254468   1.20033883   1.20601752   1.22269101
   1.23141292   1.24410175   1.25838917   1.28801813   1.32805324
   1.42695276   1.45611256   1.52125218   1.55477145   1.60223249
   1.60711959   1.68178966   1.6903289    1.71667834   1.72178431
   1.81234202   1.83244707   1.86344094   1.89792976   1.92043146
   1.98008434   1.99286687   2.02878754   2.06941261   2.11829848
   2.13865528   2.17830371   2.20594991   2.25911246   2.27405421
   2.29025548   2.32003031   2.33636148   2.38297056   2.39567032
   2.42030028   2.43803456   2.44425991   2.4673165    2.51232945
   2.51696598   2.54001854   2.58261389   2.60880622   2.62722586
   2.64117042   2.65536633   2.68650596   2.70361897   2.75162215
   2.77343831   2.84180008   2.8699097    2.90583636   2.97602067
   3.000819     3.02311813   3.04274517   3.07401976   3.09186255
   3.11515871   3.15537081   3.17844059   3.21808528   3.24925004
   3.2604146    3.27846701   3.32678802   3.33405497   3.34740262
   3.38162596   3.51886526   3.6610377    3.68772199   3.71116971
   3.74420094   3.794562     3.8214038    3.86708707   3.92235354
   3.9562122    3.98987039   4.01293748   4.38308077   4.65689322
   4.81328344   4.94207792   5.04151077   5.06046464   5.18966439]
E1 = -1154.4135668456609  E_coul = 458.35333246597855
cycle= 6 E= -370.117922009235  delta_E= -3.6e-06  |g|= 0.000981  |ddm|= 0.00456
    CPU time for cycle= 6      0.82 sec, wall time      0.12 sec
diis-norm(errvec)=0.00218231
diis-c [-2.26378770e-06  1.23819270e-03  1.10972090e-03 -7.88649084e-03
 -7.32081391e-02  4.55289061e-02  1.03321781e+00]
  HOMO = -0.420296698450718  LUMO = 0.226224848078459
  mo_energy =
[-26.26665713 -20.55359303 -11.29514153 -11.27007229 -11.2117116
 -11.20273539 -11.1697477   -1.58574945  -1.3465348   -1.07509632
  -1.00235665  -0.9093313   -0.82677299  -0.79691826  -0.71294694
  -0.69682447  -0.65674168  -0.64806297  -0.61961727  -0.60859804
  -0.55713053  -0.5362975   -0.52651704  -0.50597734  -0.47531492
  -0.47255195  -0.46112515  -0.44421457  -0.4202967    0.22622485
   0.24100369   0.26742781   0.27453812   0.30584719   0.32537674
   0.33663764   0.3492377    0.35003771   0.36594771   0.37272343
   0.38070135   0.39816664   0.43135035   0.459905     0.47058966
   0.4939027    0.71776938   0.73853453   0.75608529   0.76917764
   0.79589497   0.81478917   0.84129891   0.86106591   0.90059372
   0.93805957   0.95374618   0.96717439   1.0019055    1.05254234
   1.06399616   1.10472176   1.13248428   1.14699755   1.15066899
   1.17313915   1.18258926   1.20043514   1.20610415   1.22279536
   1.23148311   1.24405334   1.25835481   1.28804455   1.32799725
   1.42691463   1.45610951   1.52127725   1.55481178   1.60223712
   1.60707706   1.68181151   1.69035935   1.7165504    1.72163932
   1.81236372   1.8324584    1.86344386   1.89792764   1.92037063
   1.98019052   1.99295238   2.02877856   2.0694174    2.11834767
   2.13862429   2.17835853   2.20607321   2.25909966   2.27402092
   2.29024176   2.32003397   2.3363194    2.38299382   2.39569865
   2.420271     2.43806957   2.44432966   2.46737244   2.51237469
   2.51703935   2.54006101   2.58269341   2.60879593   2.62725431
   2.64123514   2.65546032   2.68647266   2.70365325   2.75164804
   2.77342813   2.84185163   2.86997469   2.90587372   2.97603837
   3.00085883   3.02319464   3.04277962   3.07408413   3.09188044
   3.115235     3.15544147   3.17848831   3.2181014    3.24927833
   3.26044156   3.27851027   3.3268554    3.33410701   3.34746613
   3.38162669   3.51874325   3.6611321    3.68773879   3.71125789
   3.74428213   3.79468236   3.82146563   3.86711063   3.92235036
   3.95631598   3.98992346   4.01308275   4.38296517   4.65693929
   4.8134297    4.94216245   5.04158663   5.06036538   5.18983074]
E1 = -1154.411578814721  E_coul = 458.3513439813254
cycle= 7 E= -370.117922462949  delta_E= -4.54e-07  |g|= 0.000259  |ddm|= 0.00189
    CPU time for cycle= 7      0.79 sec, wall time      0.10 sec
diis-norm(errvec)=0.00060117
diis-c [-1.23859619e-07 -3.66145277e-04  1.73227501e-04  3.44822681e-03
  7.56773417e-03 -8.42448756e-02 -1.60912805e-01  1.23433464e+00]
  HOMO = -0.420298268730747  LUMO = 0.226226280117351
  mo_energy =
[-26.2666095  -20.55353919 -11.29508991 -11.26998828 -11.21173344
 -11.20280311 -11.16971476  -1.58574921  -1.34651951  -1.07510468
  -1.00234883  -0.90932511  -0.82675783  -0.79692554  -0.71293344
  -0.69681129  -0.65673574  -0.64805509  -0.61961715  -0.60857669
  -0.55713367  -0.53629232  -0.52651442  -0.50598226  -0.47530044
  -0.47255363  -0.46112716  -0.44421437  -0.42029827   0.22622628
   0.24100422   0.26743189   0.2745467    0.30585371   0.32538359
   0.33664318   0.34924214   0.35004229   0.36595237   0.37273801
   0.38070843   0.39817683   0.43136595   0.45990915   0.47059857
   0.49391088   0.71777277   0.73854103   0.75608814   0.76918537
   0.79591069   0.81480193   0.84131532   0.86108204   0.90060633
   0.93806198   0.95375534   0.96716926   1.00191333   1.05253732
   1.06400346   1.10473926   1.13248794   1.14700269   1.15067701
   1.17315386   1.18259846   1.20043491   1.20611074   1.22279632
   1.23148517   1.24405716   1.25835431   1.28805528   1.32799503
   1.42691153   1.45611683   1.52128748   1.55481703   1.60224143
   1.60708859   1.68180853   1.69036401   1.7165424    1.72162166
   1.8123684    1.83246441   1.86344756   1.89793129   1.9203871
   1.98018656   1.99294927   2.0287819    2.06942299   2.11835389
   2.13863256   2.17836294   2.20606205   2.2591106    2.27403441
   2.29024854   2.32003624   2.3363299    2.38300746   2.3957077
   2.42028852   2.43808558   2.444331     2.46738146   2.51238418
   2.51704124   2.54007003   2.58269113   2.60880507   2.62725628
   2.64123619   2.65546055   2.68649203   2.70366327   2.75165563
   2.77343492   2.84185563   2.86997547   2.90588392   2.97604867
   3.00086063   3.02319703   3.0427873    3.07409219   3.09189672
   3.11524015   3.15544642   3.17849604   3.21811383   3.24928766
   3.26045467   3.27851984   3.32685946   3.33411591   3.34746919
   3.38164429   3.51874759   3.6611351    3.68776321   3.71126836
   3.74428933   3.79467625   3.82147363   3.86712213   3.9223796
   3.95632456   3.98993522   4.0130734    4.38298257   4.65695303
   4.81342531   4.94218159   5.04159956   5.06036813   5.18982586]
E1 = -1154.4111101999338  E_coul = 458.35087532904225
cycle= 8 E= -370.117922500444  delta_E= -3.75e-08  |g|= 5.71e-05  |ddm|= 0.000552
    CPU time for cycle= 8      0.81 sec, wall time      0.10 sec
diis-norm(errvec)=0.000130056
diis-c [-7.50616296e-09 -1.29803788e-04 -3.19284497e-05  1.00621633e-03
  5.76032620e-03 -1.47388600e-02 -7.95655750e-02  1.54586048e-01
  9.33113576e-01]
  HOMO = -0.420303328993475  LUMO = 0.226222367559193
  mo_energy =
[-26.26663374 -20.55355705 -11.2951017  -11.27002355 -11.21175383
 -11.202785   -11.16974543  -1.58576407  -1.34653128  -1.07510932
  -1.00235594  -0.90933393  -0.82676505  -0.79692632  -0.71294203
  -0.69682162  -0.6567461   -0.64806508  -0.61961947  -0.6085856
  -0.55714036  -0.5362996   -0.52652174  -0.50598867  -0.47530813
  -0.47255305  -0.46112905  -0.44422449  -0.42030333   0.22622237
   0.24100268   0.26742952   0.27454401   0.30585299   0.3253815
   0.33664027   0.34924085   0.35004062   0.36595057   0.37273303
   0.38070458   0.3981731    0.43135924   0.45990474   0.47059239
   0.49390643   0.71777006   0.73853701   0.75608536   0.76917971
   0.79590357   0.81479458   0.8413058    0.86107304   0.90059796
   0.93805822   0.95374985   0.96716552   1.00190784   1.0525353
   1.06399768   1.10473405   1.13248624   1.14700018   1.15067293
   1.17314655   1.18259501   1.20043254   1.20610526   1.22279277
   1.23148195   1.24405393   1.25834805   1.28804912   1.32798971
   1.42690647   1.45610983   1.52128084   1.55481063   1.60223692
   1.60708215   1.68180398   1.69035745   1.71653303   1.72161237
   1.81236231   1.8324583    1.86344248   1.89792595   1.9203775
   1.98018299   1.9929487    2.02877535   2.06941719   2.11834758
   2.13862457   2.1783571    2.20606136   2.25910277   2.27402614
   2.29024083   2.32002839   2.33632118   2.38299886   2.3957033
   2.42028204   2.43807827   2.44432895   2.46737695   2.51237816
   2.51703855   2.54006267   2.58269301   2.60879833   2.62725208
   2.64123478   2.65545762   2.68648566   2.70365852   2.7516524
   2.77343004   2.84185324   2.86997359   2.90587951   2.97604339
   3.00085702   3.023195     3.04278229   3.07408635   3.09188874
   3.1152353    3.15544318   3.17849112   3.21810963   3.24928413
   3.2604476    3.2785165    3.32685572   3.33410996   3.34746725
   3.38163574   3.51873715   3.66113291   3.6877549    3.71126125
   3.74428583   3.79467696   3.82146937   3.86711507   3.92237022
   3.95631768   3.98992785   4.0130754    4.38297374   4.65694242
   4.81342033   4.94216597   5.04159128   5.06035921   5.18982004]
E1 = -1154.4113515132476  E_coul = 458.3511166410403
cycle= 9 E= -370.11792250176  delta_E= -1.32e-09  |g|= 1.41e-05  |ddm|= 8.89e-05
    CPU time for cycle= 9      0.81 sec, wall time      0.10 sec
diis-norm(errvec)=3.16385e-05
diis-c [-5.99456221e-10  9.81154976e-01 -5.77126598e-06 -1.71114370e-05
  5.17091913e-05  3.09038592e-03  8.97200504e-05 -5.07298222e-02
  6.63659135e-02]
  HOMO = -0.420301081507152  LUMO = 0.226223091466211
  mo_energy =
[-26.26663171 -20.55355303 -11.29509922 -11.27001493 -11.21175103
 -11.20278876 -11.16973929  -1.58576355  -1.34652859  -1.07510795
  -1.00235402  -0.90933157  -0.82676316  -0.79692544  -0.7129408
  -0.69681991  -0.65674473  -0.64806343  -0.61961858  -0.60858317
  -0.55713913  -0.53629757  -0.52652036  -0.50598731  -0.47530632
  -0.47255232  -0.46112779  -0.44422196  -0.42030108   0.22622309
   0.24100315   0.2674303    0.2745446    0.30585338   0.32538224
   0.33664108   0.34924145   0.35004119   0.3659513    0.37273429
   0.38070539   0.39817388   0.43136046   0.45990595   0.47059378
   0.49390781   0.71777099   0.7385384    0.75608654   0.76918119
   0.79590535   0.81479584   0.8413071    0.86107482   0.90060003
   0.93805936   0.95375114   0.96716697   1.00190916   1.05253582
   1.06399882   1.10473532   1.13248705   1.14700119   1.15067407
   1.17314866   1.1825961    1.20043326   1.20610652   1.2227938
   1.2314831    1.24405509   1.25834946   1.2880505    1.32799092
   1.42690764   1.45611114   1.52128242   1.55481208   1.60223811
   1.60708339   1.68180499   1.690359     1.71653396   1.7216129
   1.81236384   1.83245978   1.86344373   1.89792727   1.92037905
   1.98018386   1.9929497    2.02877656   2.06941841   2.11834898
   2.13862557   2.17835852   2.20606186   2.25910437   2.27402826
   2.29024235   2.32002977   2.3363227    2.38300091   2.39570466
   2.42028306   2.43808026   2.44432988   2.46737834   2.51237974
   2.51703936   2.54006432   2.58269332   2.60879953   2.6272528
   2.64123562   2.65545857   2.68648706   2.70365962   2.75165346
   2.77343106   2.84185416   2.8699745    2.90588051   2.97604464
   3.00085786   3.02319593   3.04278354   3.07408783   3.09189112
   3.11523658   3.15544403   3.17849249   3.21811055   3.24928542
   3.26044918   3.2785175    3.32685704   3.33411117   3.34746839
   3.38163772   3.51873803   3.66113378   3.68775726   3.71126285
   3.74428693   3.79467744   3.82147061   3.86711677   3.92237254
   3.9563191    3.98992953   4.01307577   4.38297557   4.6569446
   4.81342182   4.94216956   5.04159347   5.06036035   5.18982144]
E1 = -1154.4113237476408  E_coul = 458.3510888753399
cycle= 10 E= -370.117922501854  delta_E= -9.37e-11  |g|= 4.08e-06  |ddm|= 2.51e-05
    CPU time for cycle= 10      0.76 sec, wall time      0.09 sec
  HOMO = -0.420300513663224  LUMO = 0.226222839712641
  mo_energy =
[-26.2666324  -20.55355424 -11.29509904 -11.27001591 -11.21174967
 -11.20278671 -11.16973916  -1.58576367  -1.34652904  -1.07510739
  -1.00235373  -0.90933134  -0.82676305  -0.79692489  -0.71294084
  -0.6968202   -0.65674498  -0.64806339  -0.61961828  -0.60858333
  -0.55713892  -0.53629741  -0.52652022  -0.50598702  -0.47530631
  -0.47255192  -0.46112733  -0.44422209  -0.42030051   0.22622284
   0.24100327   0.2674304    0.27454472   0.30585351   0.32538239
   0.33664113   0.34924163   0.35004138   0.36595151   0.37273432
   0.38070548   0.39817398   0.43136058   0.45990628   0.47059398
   0.49390808   0.71777128   0.73853865   0.75608681   0.76918143
   0.79590546   0.81479601   0.84130712   0.86107489   0.90060019
   0.93805979   0.95375132   0.96716753   1.00190931   1.05253599
   1.06399896   1.10473529   1.13248727   1.14700148   1.15067422
   1.1731486    1.1825963    1.20043364   1.20610673   1.22279408
   1.23148343   1.24405496   1.25834953   1.28805073   1.32799094
   1.42690772   1.45611112   1.52128255   1.55481226   1.60223827
   1.60708345   1.68180523   1.69035916   1.71653391   1.7216129
   1.81236384   1.83245992   1.86344367   1.89792723   1.92037903
   1.9801843    1.99295013   2.02877677   2.06941853   2.11834928
   2.13862573   2.17835885   2.20606245   2.25910434   2.27402806
   2.29024248   2.3200299    2.33632274   2.38300094   2.39570478
   2.42028316   2.43808028   2.44433018   2.46737853   2.51237996
   2.51703973   2.54006439   2.58269369   2.60879946   2.62725299
   2.64123592   2.65545894   2.68648699   2.70365975   2.7516536
   2.77343099   2.8418544    2.86997487   2.9058806    2.97604456
   3.00085764   3.02319623   3.04278352   3.07408812   3.09189088
   3.11523681   3.15544436   3.17849271   3.21811073   3.24928552
   3.2604493    3.27851768   3.32685737   3.33411138   3.34746868
   3.3816376    3.51873803   3.66113416   3.68775714   3.71126303
   3.74428721   3.79467789   3.82147071   3.86711634   3.92237242
   3.9563194    3.9899298    4.01307638   4.38297531   4.65694489
   4.81342244   4.94216971   5.04159383   5.06036037   5.18982214]
E1 = -1154.411323600901  E_coul = 458.3510887285909
Extra cycle  E= -370.117922501863  delta_E= -9.09e-12  |g|= 1.77e-06  |ddm|= 7.35e-06
    CPU time for scf_cycle     16.49 sec, wall time      2.17 sec
    CPU time for SCF     16.50 sec, wall time      2.17 sec
converged SCF energy = -370.117922501863
