Atom number=19                                                          
SP        RHF                                                         6-31G(d,p)          
Number of atoms                            I               19
Info1-9                                    I   N=           9
          35          34           0           0           0         111
           1           1           2
Full Title                                 C   N=           2
Atom number=19          
Route                                      C   N=           3
#p hf/6-31g** pop=npa charge nosymm 
Charge                                     I                0
Multiplicity                               I                1
Number of electrons                        I               58
Number of alpha electrons                  I               29
Number of beta electrons                   I               29
Number of basis functions                  I              165
Number of independent functions            I              165
Number of point charges in /Mol/           I                0
Number of translation vectors              I                0
Atomic numbers                             I   N=          19
           6           1           6           1           1           9
           6           1           6           1           1           6
           1           1           7           1           1           1
           1
Nuclear charges                            R   N=          19
  6.00000000E+00  1.00000000E+00  6.00000000E+00  1.00000000E+00  1.00000000E+00
  9.00000000E+00  6.00000000E+00  1.00000000E+00  6.00000000E+00  1.00000000E+00
  1.00000000E+00  6.00000000E+00  1.00000000E+00  1.00000000E+00  7.00000000E+00
  1.00000000E+00  1.00000000E+00  1.00000000E+00  1.00000000E+00
Current cartesian coordinates              R   N=          57
 -1.07777596E+01  6.33113999E-02 -1.04469066E+00 -1.00280953E+01  9.34352821E-01
  6.18980718E-01 -9.78482756E+00  1.45501988E+00 -3.39976409E+00 -1.03645163E+01
  3.39099875E+00 -3.33298916E+00 -1.05344918E+01  5.83978455E-01 -5.06343547E+00
 -1.00463766E+01 -2.37927876E+00 -1.12893939E+00 -5.88568911E+00  2.70572311E+00
 -5.81157398E+00 -6.46537783E+00  4.64170198E+00 -5.74479905E+00 -6.87862114E+00
  1.31401464E+00 -3.45650055E+00 -6.29893240E+00 -6.21964255E-01 -3.52327546E+00
 -6.12895687E+00  2.18505604E+00 -1.79282917E+00 -2.97948267E+00  2.56471785E+00
 -5.86831044E+00 -2.39979393E+00  6.28738980E-01 -5.93508535E+00 -2.22981842E+00
  3.43575927E+00 -4.20463906E+00 -2.03168392E+00  3.89316686E+00 -8.11633506E+00
 -2.57344909E+00  5.70249290E+00 -8.05392859E+00 -1.44536874E-01  3.80160502E+00
 -8.15317693E+00 -1.27970069E+01  1.61282569E-01 -1.00526988E+00 -6.63535337E+00
  1.83468169E+00 -7.47524536E+00
Number of symbols in /Mol/                 I                0
Force Field                                I                0
Atom Types                                 C   N=          19
                                                            
                                                            
                                                            
                                                
Int Atom Types                             I   N=          19
           0           0           0           0           0           0
           0           0           0           0           0           0
           0           0           0           0           0           0
           0
MM charges                                 R   N=          19
  0.00000000E+00  0.00000000E+00  0.00000000E+00  0.00000000E+00  0.00000000E+00
  0.00000000E+00  0.00000000E+00  0.00000000E+00  0.00000000E+00  0.00000000E+00
  0.00000000E+00  0.00000000E+00  0.00000000E+00  0.00000000E+00  0.00000000E+00
  0.00000000E+00  0.00000000E+00  0.00000000E+00  0.00000000E+00
Integer atomic weights                     I   N=          19
          12           1          12           1           1          19
          12           1          12           1           1          12
           1           1          14           1           1           1
           1
Real atomic weights                        R   N=          19
  1.20000000E+01  1.00782504E+00  1.20000000E+01  1.00782504E+00  1.00782504E+00
  1.89984032E+01  1.20000000E+01  1.00782504E+00  1.20000000E+01  1.00782504E+00
  1.00782504E+00  1.20000000E+01  1.00782504E+00  1.00782504E+00  1.40030740E+01
  1.00782504E+00  1.00782504E+00  1.00782504E+00  1.00782504E+00
Atom fragment info                         I   N=          19
           0           0           0           0           0           0
           0           0           0           0           0           0
           0           0           0           0           0           0
           0
Atom residue num                           I   N=          19
           0           0           0           0           0           0
           0           0           0           0           0           0
           0           0           0           0           0           0
           0
Nuclear spins                              I   N=          19
           0           1           0           1           1           1
           0           1           0           1           1           0
           1           1           2           1           1           1
           1
Nuclear ZEff                               R   N=          19
 -3.60000000E+00 -1.00000000E+00 -3.60000000E+00 -1.00000000E+00 -1.00000000E+00
 -6.75000000E+00 -3.60000000E+00 -1.00000000E+00 -3.60000000E+00 -1.00000000E+00
 -1.00000000E+00 -3.60000000E+00 -1.00000000E+00 -1.00000000E+00 -4.55000000E+00
 -1.00000000E+00 -1.00000000E+00 -1.00000000E+00 -1.00000000E+00
Nuclear ZNuc                               R   N=          19
  6.00000000E+00  1.00000000E+00  6.00000000E+00  1.00000000E+00  1.00000000E+00
  9.00000000E+00  6.00000000E+00  1.00000000E+00  6.00000000E+00  1.00000000E+00
  1.00000000E+00  6.00000000E+00  1.00000000E+00  1.00000000E+00  7.00000000E+00
  1.00000000E+00  1.00000000E+00  1.00000000E+00  1.00000000E+00
Nuclear QMom                               R   N=          19
  0.00000000E+00  0.00000000E+00  0.00000000E+00  0.00000000E+00  0.00000000E+00
  0.00000000E+00  0.00000000E+00  0.00000000E+00  0.00000000E+00  0.00000000E+00
  0.00000000E+00  0.00000000E+00  0.00000000E+00  0.00000000E+00  2.04400000E+00
  0.00000000E+00  0.00000000E+00  0.00000000E+00  0.00000000E+00
Nuclear GFac                               R   N=          19
  0.00000000E+00  2.79284600E+00  0.00000000E+00  2.79284600E+00  2.79284600E+00
  2.62886700E+00  0.00000000E+00  2.79284600E+00  0.00000000E+00  2.79284600E+00
  2.79284600E+00  0.00000000E+00  2.79284600E+00  2.79284600E+00  4.03761000E-01
  2.79284600E+00  2.79284600E+00  2.79284600E+00  2.79284600E+00
MicOpt                                     I   N=          19
          -1          -1          -1          -1          -1          -1
          -1          -1          -1          -1          -1          -1
          -1          -1          -1          -1          -1          -1
          -1
Number of residues                         I                0
Number of secondary structures             I                0
Number of contracted shells                I               64
Number of primitive shells                 I              137
Pure/Cartesian d shells                    I                1
Pure/Cartesian f shells                    I                0
Highest angular momentum                   I                2
Largest degree of contraction              I                6
Shell types                                I   N=          64
           0          -1          -1           2           0           0
           1           0          -1          -1           2           0
           0           1           0           0           1           0
          -1          -1           2           0          -1          -1
           2           0           0           1           0          -1
          -1           2           0           0           1           0
           0           1           0          -1          -1           2
           0           0           1           0           0           1
           0          -1          -1           2           0           0
           1           0           0           1           0           0
           1           0           0           1
Number of primitives per shell             I   N=          64
           6           3           1           1           3           1
           1           6           3           1           1           3
           1           1           3           1           1           6
           3           1           1           6           3           1
           1           3           1           1           6           3
           1           1           3           1           1           3
           1           1           6           3           1           1
           3           1           1           3           1           1
           6           3           1           1           3           1
           1           3           1           1           3           1
           1           3           1           1
Shell to atom map                          I   N=          64
           1           1           1           1           2           2
           2           3           3           3           3           4
           4           4           5           5           5           6
           6           6           6           7           7           7
           7           8           8           8           9           9
           9           9          10          10          10          11
          11          11          12          12          12          12
          13          13          13          14          14          14
          15          15          15          15          16          16
          16          17          17          17          18          18
          18          19          19          19
Primitive exponents                        R   N=         137
  3.04752488E+03  4.57369518E+02  1.03948685E+02  2.92101553E+01  9.28666296E+00
  3.16392696E+00  7.86827235E+00  1.88128854E+00  5.44249258E-01  1.68714478E-01
  8.00000000E-01  1.87311370E+01  2.82539436E+00  6.40121692E-01  1.61277759E-01
  1.10000000E+00  3.04752488E+03  4.57369518E+02  1.03948685E+02  2.92101553E+01
  9.28666296E+00  3.16392696E+00  7.86827235E+00  1.88128854E+00  5.44249258E-01
  1.68714478E-01  8.00000000E-01  1.87311370E+01  2.82539436E+00  6.40121692E-01
  1.61277759E-01  1.10000000E+00  1.87311370E+01  2.82539436E+00  6.40121692E-01
  1.61277759E-01  1.10000000E+00  7.00171309E+03  1.05136609E+03  2.39285690E+02
  6.73974453E+01  2.15199573E+01  7.40310130E+00  2.08479528E+01  4.80830834E+00
  1.34406986E+00  3.58151393E-01  8.00000000E-01  3.04752488E+03  4.57369518E+02
  1.03948685E+02  2.92101553E+01  9.28666296E+00  3.16392696E+00  7.86827235E+00
  1.88128854E+00  5.44249258E-01  1.68714478E-01  8.00000000E-01  1.87311370E+01
  2.82539436E+00  6.40121692E-01  1.61277759E-01  1.10000000E+00  3.04752488E+03
  4.57369518E+02  1.03948685E+02  2.92101553E+01  9.28666296E+00  3.16392696E+00
  7.86827235E+00  1.88128854E+00  5.44249258E-01  1.68714478E-01  8.00000000E-01
  1.87311370E+01  2.82539436E+00  6.40121692E-01  1.61277759E-01  1.10000000E+00
  1.87311370E+01  2.82539436E+00  6.40121692E-01  1.61277759E-01  1.10000000E+00
  3.04752488E+03  4.57369518E+02  1.03948685E+02  2.92101553E+01  9.28666296E+00
  3.16392696E+00  7.86827235E+00  1.88128854E+00  5.44249258E-01  1.68714478E-01
  8.00000000E-01  1.87311370E+01  2.82539436E+00  6.40121692E-01  1.61277759E-01
  1.10000000E+00  1.87311370E+01  2.82539436E+00  6.40121692E-01  1.61277759E-01
  1.10000000E+00  4.17351146E+03  6.27457911E+02  1.42902093E+02  4.02343293E+01
  1.28202129E+01  4.39043701E+00  1.16263619E+01  2.71627981E+00  7.72218397E-01
  2.12031498E-01  8.00000000E-01  1.87311370E+01  2.82539436E+00  6.40121692E-01
  1.61277759E-01  1.10000000E+00  1.87311370E+01  2.82539436E+00  6.40121692E-01
  1.61277759E-01  1.10000000E+00  1.87311370E+01  2.82539436E+00  6.40121692E-01
  1.61277759E-01  1.10000000E+00  1.87311370E+01  2.82539436E+00  6.40121692E-01
  1.61277759E-01  1.10000000E+00
Contraction coefficients                   R   N=         137
  1.83473713E-03  1.40373228E-02  6.88426223E-02  2.32184443E-01  4.67941348E-01
  3.62311985E-01 -1.19332420E-01 -1.60854152E-01  1.14345644E+00  1.00000000E+00
  1.00000000E+00  3.34946043E-02  2.34726953E-01  8.13757326E-01  1.00000000E+00
  1.00000000E+00  1.83473713E-03  1.40373228E-02  6.88426223E-02  2.32184443E-01
  4.67941348E-01  3.62311985E-01 -1.19332420E-01 -1.60854152E-01  1.14345644E+00
  1.00000000E+00  1.00000000E+00  3.34946043E-02  2.34726953E-01  8.13757326E-01
  1.00000000E+00  1.00000000E+00  3.34946043E-02  2.34726953E-01  8.13757326E-01
  1.00000000E+00  1.00000000E+00  1.81961690E-03  1.39160796E-02  6.84053245E-02
  2.33185760E-01  4.71267439E-01  3.56618546E-01 -1.08506975E-01 -1.46451658E-01
  1.12868858E+00  1.00000000E+00  1.00000000E+00  1.83473713E-03  1.40373228E-02
  6.88426223E-02  2.32184443E-01  4.67941348E-01  3.62311985E-01 -1.19332420E-01
 -1.60854152E-01  1.14345644E+00  1.00000000E+00  1.00000000E+00  3.34946043E-02
  2.34726953E-01  8.13757326E-01  1.00000000E+00  1.00000000E+00  1.83473713E-03
  1.40373228E-02  6.88426223E-02  2.32184443E-01  4.67941348E-01  3.62311985E-01
 -1.19332420E-01 -1.60854152E-01  1.14345644E+00  1.00000000E+00  1.00000000E+00
  3.34946043E-02  2.34726953E-01  8.13757326E-01  1.00000000E+00  1.00000000E+00
  3.34946043E-02  2.34726953E-01  8.13757326E-01  1.00000000E+00  1.00000000E+00
  1.83473713E-03  1.40373228E-02  6.88426223E-02  2.32184443E-01  4.67941348E-01
  3.62311985E-01 -1.19332420E-01 -1.60854152E-01  1.14345644E+00  1.00000000E+00
  1.00000000E+00  3.34946043E-02  2.34726953E-01  8.13757326E-01  1.00000000E+00
  1.00000000E+00  3.34946043E-02  2.34726953E-01  8.13757326E-01  1.00000000E+00
  1.00000000E+00  1.83477216E-03  1.39946270E-02  6.85865518E-02  2.32240873E-01
  4.69069948E-01  3.60455199E-01 -1.14961182E-01 -1.69117479E-01  1.14585195E+00
  1.00000000E+00  1.00000000E+00  3.34946043E-02  2.34726953E-01  8.13757326E-01
  1.00000000E+00  1.00000000E+00  3.34946043E-02  2.34726953E-01  8.13757326E-01
  1.00000000E+00  1.00000000E+00  3.34946043E-02  2.34726953E-01  8.13757326E-01
  1.00000000E+00  1.00000000E+00  3.34946043E-02  2.34726953E-01  8.13757326E-01
  1.00000000E+00  1.00000000E+00
P(S=P) Contraction coefficients            R   N=         137
  0.00000000E+00  0.00000000E+00  0.00000000E+00  0.00000000E+00  0.00000000E+00
  0.00000000E+00  6.89990666E-02  3.16423961E-01  7.44308291E-01  1.00000000E+00
  0.00000000E+00  0.00000000E+00  0.00000000E+00  0.00000000E+00  0.00000000E+00
  0.00000000E+00  0.00000000E+00  0.00000000E+00  0.00000000E+00  0.00000000E+00
  0.00000000E+00  0.00000000E+00  6.89990666E-02  3.16423961E-01  7.44308291E-01
  1.00000000E+00  0.00000000E+00  0.00000000E+00  0.00000000E+00  0.00000000E+00
  0.00000000E+00  0.00000000E+00  0.00000000E+00  0.00000000E+00  0.00000000E+00
  0.00000000E+00  0.00000000E+00  0.00000000E+00  0.00000000E+00  0.00000000E+00
  0.00000000E+00  0.00000000E+00  0.00000000E+00  7.16287242E-02  3.45912103E-01
  7.22469956E-01  1.00000000E+00  0.00000000E+00  0.00000000E+00  0.00000000E+00
  0.00000000E+00  0.00000000E+00  0.00000000E+00  0.00000000E+00  6.89990666E-02
  3.16423961E-01  7.44308291E-01  1.00000000E+00  0.00000000E+00  0.00000000E+00
  0.00000000E+00  0.00000000E+00  0.00000000E+00  0.00000000E+00  0.00000000E+00
  0.00000000E+00  0.00000000E+00  0.00000000E+00  0.00000000E+00  0.00000000E+00
  6.89990666E-02  3.16423961E-01  7.44308291E-01  1.00000000E+00  0.00000000E+00
  0.00000000E+00  0.00000000E+00  0.00000000E+00  0.00000000E+00  0.00000000E+00
  0.00000000E+00  0.00000000E+00  0.00000000E+00  0.00000000E+00  0.00000000E+00
  0.00000000E+00  0.00000000E+00  0.00000000E+00  0.00000000E+00  0.00000000E+00
  0.00000000E+00  6.89990666E-02  3.16423961E-01  7.44308291E-01  1.00000000E+00
  0.00000000E+00  0.00000000E+00  0.00000000E+00  0.00000000E+00  0.00000000E+00
  0.00000000E+00  0.00000000E+00  0.00000000E+00  0.00000000E+00  0.00000000E+00
  0.00000000E+00  0.00000000E+00  0.00000000E+00  0.00000000E+00  0.00000000E+00
  0.00000000E+00  0.00000000E+00  6.75797439E-02  3.23907296E-01  7.40895140E-01
  1.00000000E+00  0.00000000E+00  0.00000000E+00  0.00000000E+00  0.00000000E+00
  0.00000000E+00  0.00000000E+00  0.00000000E+00  0.00000000E+00  0.00000000E+00
  0.00000000E+00  0.00000000E+00  0.00000000E+00  0.00000000E+00  0.00000000E+00
  0.00000000E+00  0.00000000E+00  0.00000000E+00  0.00000000E+00  0.00000000E+00
  0.00000000E+00  0.00000000E+00
Coordinates of each shell                  R   N=         192
 -1.07777596E+01  6.33113999E-02 -1.04469066E+00 -1.07777596E+01  6.33113999E-02
 -1.04469066E+00 -1.07777596E+01  6.33113999E-02 -1.04469066E+00 -1.07777596E+01
  6.33113999E-02 -1.04469066E+00 -1.00280953E+01  9.34352821E-01  6.18980718E-01
 -1.00280953E+01  9.34352821E-01  6.18980718E-01 -1.00280953E+01  9.34352821E-01
  6.18980718E-01 -9.78482756E+00  1.45501988E+00 -3.39976409E+00 -9.78482756E+00
  1.45501988E+00 -3.39976409E+00 -9.78482756E+00  1.45501988E+00 -3.39976409E+00
 -9.78482756E+00  1.45501988E+00 -3.39976409E+00 -1.03645163E+01  3.39099875E+00
 -3.33298916E+00 -1.03645163E+01  3.39099875E+00 -3.33298916E+00 -1.03645163E+01
  3.39099875E+00 -3.33298916E+00 -1.05344918E+01  5.83978455E-01 -5.06343547E+00
 -1.05344918E+01  5.83978455E-01 -5.06343547E+00 -1.05344918E+01  5.83978455E-01
 -5.06343547E+00 -1.00463766E+01 -2.37927876E+00 -1.12893939E+00 -1.00463766E+01
 -2.37927876E+00 -1.12893939E+00 -1.00463766E+01 -2.37927876E+00 -1.12893939E+00
 -1.00463766E+01 -2.37927876E+00 -1.12893939E+00 -5.88568911E+00  2.70572311E+00
 -5.81157398E+00 -5.88568911E+00  2.70572311E+00 -5.81157398E+00 -5.88568911E+00
  2.70572311E+00 -5.81157398E+00 -5.88568911E+00  2.70572311E+00 -5.81157398E+00
 -6.46537783E+00  4.64170198E+00 -5.74479905E+00 -6.46537783E+00  4.64170198E+00
 -5.74479905E+00 -6.46537783E+00  4.64170198E+00 -5.74479905E+00 -6.87862114E+00
  1.31401464E+00 -3.45650055E+00 -6.87862114E+00  1.31401464E+00 -3.45650055E+00
 -6.87862114E+00  1.31401464E+00 -3.45650055E+00 -6.87862114E+00  1.31401464E+00
 -3.45650055E+00 -6.29893240E+00 -6.21964255E-01 -3.52327546E+00 -6.29893240E+00
 -6.21964255E-01 -3.52327546E+00 -6.29893240E+00 -6.21964255E-01 -3.52327546E+00
 -6.12895687E+00  2.18505604E+00 -1.79282917E+00 -6.12895687E+00  2.18505604E+00
 -1.79282917E+00 -6.12895687E+00  2.18505604E+00 -1.79282917E+00 -2.97948267E+00
  2.56471785E+00 -5.86831044E+00 -2.97948267E+00  2.56471785E+00 -5.86831044E+00
 -2.97948267E+00  2.56471785E+00 -5.86831044E+00 -2.97948267E+00  2.56471785E+00
 -5.86831044E+00 -2.39979393E+00  6.28738980E-01 -5.93508535E+00 -2.39979393E+00
  6.28738980E-01 -5.93508535E+00 -2.39979393E+00  6.28738980E-01 -5.93508535E+00
 -2.22981842E+00  3.43575927E+00 -4.20463906E+00 -2.22981842E+00  3.43575927E+00
 -4.20463906E+00 -2.22981842E+00  3.43575927E+00 -4.20463906E+00 -2.03168392E+00
  3.89316686E+00 -8.11633506E+00 -2.03168392E+00  3.89316686E+00 -8.11633506E+00
 -2.03168392E+00  3.89316686E+00 -8.11633506E+00 -2.03168392E+00  3.89316686E+00
 -8.11633506E+00 -2.57344909E+00  5.70249290E+00 -8.05392859E+00 -2.57344909E+00
  5.70249290E+00 -8.05392859E+00 -2.57344909E+00  5.70249290E+00 -8.05392859E+00
 -1.44536874E-01  3.80160502E+00 -8.15317693E+00 -1.44536874E-01  3.80160502E+00
 -8.15317693E+00 -1.44536874E-01  3.80160502E+00 -8.15317693E+00 -1.27970069E+01
  1.61282569E-01 -1.00526988E+00 -1.27970069E+01  1.61282569E-01 -1.00526988E+00
 -1.27970069E+01  1.61282569E-01 -1.00526988E+00 -6.63535337E+00  1.83468169E+00
 -7.47524536E+00 -6.63535337E+00  1.83468169E+00 -7.47524536E+00 -6.63535337E+00
  1.83468169E+00 -7.47524536E+00
Num ILSW                                   I              100
ILSW                                       I   N=         100
           0           1           0           0           2           0
           0           0           0           0           0          -1
           5           0           0           0           0           0
           0           0           0           0           0           0
           1           1           0           0           0           0
           0           0      100000           0          -1           0
           0           0           0           0           0           0
           0           0           0           1           0           0
           0 -2000000000           1           0           0           0
           0           0           4          52           0           0
           0           1           0           0           0           0
           0           0           0          19           0           1
           0           0           0           0           0           0
           0           0           0           0           0           0
           0           0           0           0           0           0
           0           0           0           0           0           0
           0           0           0           0
Num RLSW                                   I               52
RLSW                                       R   N=          52
  1.00000000E+00  1.00000000E+00  1.00000000E+00  1.00000000E+00  1.00000000E+00
  0.00000000E+00  0.00000000E+00  1.00000000E+00  0.00000000E+00  0.00000000E+00
  0.00000000E+00  0.00000000E+00  1.00000000E+00  0.00000000E+00  0.00000000E+00
  0.00000000E+00  0.00000000E+00  1.00000000E+00  0.00000000E+00  0.00000000E+00
  0.00000000E+00  0.00000000E+00  1.00000000E+00  0.00000000E+00  0.00000000E+00
  0.00000000E+00  0.00000000E+00  1.00000000E+00  0.00000000E+00  0.00000000E+00
  0.00000000E+00  0.00000000E+00  1.00000000E+00  0.00000000E+00  0.00000000E+00
  0.00000000E+00  0.00000000E+00  0.00000000E+00  1.00000000E+00  1.00000000E+00
  0.00000000E+00  1.00000000E+00  0.00000000E+00  0.00000000E+00  0.00000000E+00
  0.00000000E+00  0.00000000E+00  0.00000000E+00  0.00000000E+00  0.00000000E+00
  0.00000000E+00  0.00000000E+00
MxBond                                     I                4
NBond                                      I   N=          19
           4           1           4           1           1           1
           4           1           4           1           1           4
           1           1           3           1           1           1
           1
IBond                                      I   N=          76
           2           3           6          18           1           0
           0           0           1           4           5           9
           3           0           0           0           3           0
           0           0           1           0           0           0
           8           9          12          19           7           0
           0           0           3           7          10          11
           9           0           0           0           9           0
           0           0           7          13          14          15
          12           0           0           0          12           0
           0           0          12          16          17           0
          15           0           0           0          15           0
           0           0           1           0           0           0
           7           0           0           0
RBond                                      R   N=          76
  1.00000000E+00  1.00000000E+00  1.00000000E+00  1.00000000E+00  1.00000000E+00
  0.00000000E+00  0.00000000E+00  0.00000000E+00  1.00000000E+00  1.00000000E+00
  1.00000000E+00  1.00000000E+00  1.00000000E+00  0.00000000E+00  0.00000000E+00
  0.00000000E+00  1.00000000E+00  0.00000000E+00  0.00000000E+00  0.00000000E+00
  1.00000000E+00  0.00000000E+00  0.00000000E+00  0.00000000E+00  1.00000000E+00
  1.00000000E+00  1.00000000E+00  1.00000000E+00  1.00000000E+00  0.00000000E+00
  0.00000000E+00  0.00000000E+00  1.00000000E+00  1.00000000E+00  1.00000000E+00
  1.00000000E+00  1.00000000E+00  0.00000000E+00  0.00000000E+00  0.00000000E+00
  1.00000000E+00  0.00000000E+00  0.00000000E+00  0.00000000E+00  1.00000000E+00
  1.00000000E+00  1.00000000E+00  1.00000000E+00  1.00000000E+00  0.00000000E+00
  0.00000000E+00  0.00000000E+00  1.00000000E+00  0.00000000E+00  0.00000000E+00
  0.00000000E+00  1.00000000E+00  1.00000000E+00  1.00000000E+00  0.00000000E+00
  1.00000000E+00  0.00000000E+00  0.00000000E+00  0.00000000E+00  1.00000000E+00
  0.00000000E+00  0.00000000E+00  0.00000000E+00  1.00000000E+00  0.00000000E+00
  0.00000000E+00  0.00000000E+00  1.00000000E+00  0.00000000E+00  0.00000000E+00
  0.00000000E+00
Virial Ratio                               R      2.001147118197901E+00
SCF Energy                                 R     -3.504813927253086E+02
Total Energy                               R     -3.504813927253086E+02
RMS Density                                R      2.041958239106880E-09
Job Status                                 I                1
Nuclear derivative order                   I                0
External E-field                           R   N=          35
  0.00000000E+00  0.00000000E+00  0.00000000E+00  0.00000000E+00  0.00000000E+00
  0.00000000E+00  0.00000000E+00  0.00000000E+00  0.00000000E+00  0.00000000E+00
  0.00000000E+00  0.00000000E+00  0.00000000E+00  0.00000000E+00  0.00000000E+00
  0.00000000E+00  0.00000000E+00  0.00000000E+00  0.00000000E+00  0.00000000E+00
  0.00000000E+00  0.00000000E+00  0.00000000E+00  0.00000000E+00  0.00000000E+00
  0.00000000E+00  0.00000000E+00  0.00000000E+00  0.00000000E+00  0.00000000E+00
  0.00000000E+00  0.00000000E+00  0.00000000E+00  0.00000000E+00  0.00000000E+00
IOpCl                                      I                0
IROHF                                      I                0
Alpha Orbital Energies                     R   N=         165
 -2.62509810E+01 -1.55275772E+01 -1.12721180E+01 -1.12340477E+01 -1.12120740E+01
 -1.12072350E+01 -1.12063606E+01 -1.56786669E+00 -1.17005000E+00 -1.07323718E+00
 -9.93089077E-01 -8.94403701E-01 -8.17894019E-01 -7.98304120E-01 -6.87077130E-01
 -6.75455416E-01 -6.62802069E-01 -6.41069363E-01 -6.28567072E-01 -5.98632868E-01
 -5.67757955E-01 -5.39586441E-01 -5.10097104E-01 -5.06902663E-01 -4.87765975E-01
 -4.77964547E-01 -4.63369445E-01 -4.24320243E-01 -3.76800069E-01  2.28793366E-01
  2.42557571E-01  2.67289951E-01  2.80455961E-01  2.84810329E-01  3.21067957E-01
  3.33724749E-01  3.36739097E-01  3.47123168E-01  3.52976991E-01  3.64287917E-01
  3.69824132E-01  3.89838051E-01  3.93676092E-01  4.07479250E-01  4.61213378E-01
  4.77104797E-01  5.00660431E-01  7.04310492E-01  7.38029099E-01  7.47315269E-01
  7.65489889E-01  7.95278287E-01  8.12579944E-01  8.33500871E-01  8.74921176E-01
  9.20301732E-01  9.39691887E-01  9.46826790E-01  9.67365828E-01  9.96443263E-01
  1.00720312E+00  1.04532637E+00  1.08299093E+00  1.09492734E+00  1.10981811E+00
  1.11979219E+00  1.14775407E+00  1.16826974E+00  1.17650791E+00  1.18852288E+00
  1.19928154E+00  1.20580051E+00  1.21959918E+00  1.22177950E+00  1.23390839E+00
  1.24159042E+00  1.30679547E+00  1.32200383E+00  1.42082763E+00  1.50985406E+00
  1.52958459E+00  1.55630867E+00  1.60807398E+00  1.63617264E+00  1.67692634E+00
  1.71714716E+00  1.73075556E+00  1.77591646E+00  1.79729989E+00  1.85444280E+00
  1.93959157E+00  1.97511991E+00  1.98870580E+00  2.00495491E+00  2.04142421E+00
  2.08537452E+00  2.11524335E+00  2.12314257E+00  2.17472583E+00  2.19221264E+00
  2.21393031E+00  2.21913011E+00  2.27109671E+00  2.32210186E+00  2.34042811E+00
  2.35554113E+00  2.40723281E+00  2.42029525E+00  2.43179593E+00  2.44012550E+00
  2.47863654E+00  2.50090699E+00  2.52020592E+00  2.52743990E+00  2.55099844E+00
  2.57089773E+00  2.59970196E+00  2.60630894E+00  2.63620461E+00  2.65527522E+00
  2.68204872E+00  2.71736592E+00  2.74519929E+00  2.75329517E+00  2.79110093E+00
  2.83961293E+00  2.86779773E+00  2.90950559E+00  2.97625048E+00  2.99363782E+00
  3.01669829E+00  3.04878351E+00  3.08597529E+00  3.11632984E+00  3.14682894E+00
  3.17699906E+00  3.22068105E+00  3.22662454E+00  3.26669098E+00  3.28463633E+00
  3.30320353E+00  3.31793534E+00  3.33741974E+00  3.35201582E+00  3.36405484E+00
  3.48311734E+00  3.65732965E+00  3.68928192E+00  3.71475318E+00  3.72944968E+00
  3.74159434E+00  3.77860919E+00  3.83495998E+00  3.87107023E+00  3.93366332E+00
  3.95429196E+00  3.99939826E+00  4.01131790E+00  4.43581682E+00  4.66259549E+00
  4.74142345E+00  4.86610067E+00  4.94517871E+00  5.04909382E+00  5.19387359E+00
Alpha MO coefficients                      R   N=       27225
 -2.67415947E-05  1.88091400E-04  1.37962652E-04 -5.59060876E-04  8.04345645E-06
  5.08035688E-04  1.47847652E-04  1.10866934E-04 -1.34564095E-04 -3.56709332E-07
  2.54477457E-04 -2.34872391E-05 -9.55549935E-05  1.51146674E-06  1.52154737E-05
 -6.79102352E-05 -1.41155289E-04 -1.03437116E-05  7.20642510E-05  4.94557655E-05
  4.40721314E-06  9.09159776E-05  6.99752473E-06  7.48193577E-06 -1.68446352E-05
 -2.42020870E-04  7.71888780E-05  1.91838448E-04 -1.42208412E-04  2.26286744E-06
 -6.85885785E-05 -3.15326825E-05 -7.92306983E-06  1.07061732E-05  4.38010882E-05
  5.64949322E-06 -3.72410343E-05  3.20160111E-06 -1.23505305E-05 -7.72226511E-07
  2.78774627E-05 -2.19686405E-05 -6.58062668E-06 -1.47646262E-05 -1.39184393E-07
  9.94420014E-01  1.78432966E-02 -2.52547283E-04  8.77913812E-04  1.36121390E-05