#INFO: **** input file is /home/liwei01/wsr/dftpart/test_2body/c8b/gfea_c8.py ****
from dftpart import gfea3
from pyscf import lib

par = 8
with lib.with_omp_threads(par):
    fr0 = gfea3.GFEA()
    fr0.inputstyle = 'frg'
    fr0.method = ['hf', '6-31gss','charge']
    fr0.gjfname = 'c8b'
    fr0.output = 'c8b'
    fr0.verbose = 9
    fr0.showinter = True
    #fr0.do_deriv = True
    fr0.kernel()

#INFO: ******************** input file end ********************


System: uname_result(system='Linux', node='master', release='3.10.0-693.el7.x86_64', version='#1 SMP Tue Aug 22 21:09:27 UTC 2017', machine='x86_64', processor='x86_64')  Threads 8
Python 3.6.4 |Anaconda, Inc.| (default, Jan 16 2018, 18:10:19) 
[GCC 7.2.0]
numpy 1.14.0  scipy 1.0.0
Date: Sat May  9 15:56:34 2020
PySCF version 1.6.1
PySCF path  /home/liwei01/zcheng/pyscf/pyscf
GIT HEAD      ref: refs/heads/master
GIT master branch  3adc7fd25839fe674469a52b764c3661e32d7318

[CONFIG] DEBUG = False
[CONFIG] MAX_MEMORY = 4000
[CONFIG] TMPDIR = .
[CONFIG] UNIT = angstrom
[CONFIG] VERBOSE = 3
[CONFIG] conf_file = None
[INPUT] verbose = 9
[INPUT] max_memory = 4000 
[INPUT] num. atoms = 19
[INPUT] num. electrons = 58
[INPUT] charge = 0
[INPUT] spin (= nelec alpha-beta = 2S) = 0
[INPUT] symmetry False subgroup None
[INPUT] Mole.unit = angstrom
[INPUT]  1 C     -5.703344760000   0.033502950000  -0.552826490000 AA  -10.777759590373   0.063311399865  -1.044690660505 Bohr
[INPUT]  2 H     -5.306639520000   0.494438220000   0.327550490000 AA  -10.028095334593   0.934352821317   0.618980718067 Bohr
[INPUT]  3 C     -5.177907760000   0.769963360000  -1.799077680000 AA   -9.784827564660   1.455019876350  -3.399764092018 Bohr
[INPUT]  4 H     -5.484665830000   1.794439260000  -1.763741910000 AA  -10.364516303460   3.390998748567  -3.332989164317 Bohr
[INPUT]  5 H     -5.574613010000   0.309028090000  -2.679454660000 AA  -10.534491839337   0.583978454897  -5.063435470590 Bohr
[INPUT]  6 F     -5.316313560000  -1.259060100000  -0.597409000000 AA  -10.046376620711  -2.379278763367  -1.128939394350 Bohr
[INPUT]  7 C     -3.114572550000   1.431807010000  -3.075352510000 AA   -5.885689114588   2.705723112132  -5.811573980394 Bohr
[INPUT]  8 H     -3.421330610000   2.456282910000  -3.040016740000 AA   -6.465377834491   4.641701984350  -5.744799052693 Bohr
[INPUT]  9 C     -3.640009550000   0.695346600000  -1.829101320000 AA   -6.878621140301   1.314014635647  -3.456500548880 Bohr
[INPUT] 10 H     -3.333251480000  -0.329129310000  -1.864437080000 AA   -6.298932401501  -0.621964255467  -3.523275457684 Bohr
[INPUT] 11 H     -3.243304300000   1.156281860000  -0.948724340000 AA   -6.128956865624   2.185056038203  -1.792829170309 Bohr
[INPUT] 12 C     -1.576674330000   1.357190240000  -3.105376150000 AA   -2.979482671332   2.564717852533  -5.868310437256 Bohr
[INPUT] 13 H     -1.269916260000   0.332714340000  -3.140711910000 AA   -2.399793932532   0.628738980315  -5.935085346060 Bohr
[INPUT] 14 H     -1.179969090000   1.818125510000  -2.224999170000 AA   -2.229818415552   3.435759273985  -4.204639058685 Bohr
[INPUT] 15 N     -1.075120830000   2.060175180000  -4.294979550000 AA   -2.031683919515   3.893166858827  -8.116335060108 Bohr
[INPUT] 16 H     -1.361810610000   3.017629290000  -4.261955470000 AA   -2.573449086427   5.702492903566  -8.053928593392 Bohr
[INPUT] 17 H     -0.076485620000   2.011722740000  -4.314475430000 AA   -0.144536874268   3.801605017160  -8.153176933865 Bohr
[INPUT] 18 H     -6.771884430000   0.085347060000  -0.531965910000 AA  -12.797006919906   0.161282568937  -1.005269877505 Bohr
[INPUT] 19 H     -3.511277790000   0.970871740000  -3.955729490000 AA   -6.635353370368   1.834681690680  -7.475245358965 Bohr
[INPUT] ---------------- BASIS SET ---------------- 
[INPUT] l, kappa, [nprim/nctr], expnt,             c_1 c_2 ...
[INPUT] F
[INPUT] 0    0    [6    /1   ]  7001.71309        0.0018196169
                                1051.36609        0.0139160796
                                239.28569         0.0684053245
                                67.3974453        0.23318576
                                21.5199573        0.471267439
                                7.4031013         0.356618546
[INPUT] 0    0    [3    /1   ]  20.8479528        -0.108506975
                                4.80830834        -0.146451658
                                1.34406986        1.12868858
[INPUT] 0    0    [1    /1   ]  0.358151393          1
[INPUT] 1    0    [3    /1   ]  20.8479528        0.0716287243
                                4.80830834        0.345912103
                                1.34406986        0.722469957
[INPUT] 1    0    [1    /1   ]  0.358151393          1
[INPUT] 2    0    [1    /1   ]  0.8                  1
[INPUT] C
[INPUT] 0    0    [6    /1   ]  3047.5249         0.0018347
                                457.36951         0.0140373
                                103.94869         0.0688426
                                29.210155         0.2321844
                                9.286663          0.4679413
                                3.163927          0.362312
[INPUT] 0    0    [3    /1   ]  7.8682724         -0.1193324
                                1.8812885         -0.1608542
                                0.5442493         1.1434564
[INPUT] 0    0    [1    /1   ]  0.1687144            1
[INPUT] 1    0    [3    /1   ]  7.8682724         0.0689991
                                1.8812885         0.316424
                                0.5442493         0.7443083
[INPUT] 1    0    [1    /1   ]  0.1687144            1
[INPUT] 2    0    [1    /1   ]  0.8                  1
[INPUT] H
[INPUT] 0    0    [3    /1   ]  18.731137         0.0334946
                                2.8253937         0.23472695
                                0.6401217         0.81375733
[INPUT] 0    0    [1    /1   ]  0.1612778            1
[INPUT] 1    0    [1    /1   ]  1.1                  1
[INPUT] N
[INPUT] 0    0    [6    /1   ]  4173.511          0.0018348
                                627.4579          0.013995
                                142.9021          0.068587
                                40.23433          0.232241
                                12.82021          0.46907
                                4.390437          0.360455
[INPUT] 0    0    [3    /1   ]  11.626358         -0.114961
                                2.71628           -0.169118
                                0.772218          1.145852
[INPUT] 0    0    [1    /1   ]  0.2120313            1
[INPUT] 1    0    [3    /1   ]  11.626358         0.06758
                                2.71628           0.323907
                                0.772218          0.740895
[INPUT] 1    0    [1    /1   ]  0.2120313            1
[INPUT] 2    0    [1    /1   ]  0.8                  1

nuclear repulsion = 314.639349650099
number of shells = 78
number of NR pGTOs = 273
number of NR cGTOs = 158
basis = 6-31gss
ecp = {}
bas 0, expnt(s) = [3047.5249    457.36951   103.94869    29.210155    9.286663    3.163927]
bas 1, expnt(s) = [7.8682724 1.8812885 0.5442493]
bas 2, expnt(s) = [0.1687144]
bas 3, expnt(s) = [7.8682724 1.8812885 0.5442493]
bas 4, expnt(s) = [0.1687144]
bas 5, expnt(s) = [0.8]
bas 6, expnt(s) = [18.731137   2.8253937  0.6401217]
bas 7, expnt(s) = [0.1612778]
bas 8, expnt(s) = [1.1]
bas 9, expnt(s) = [3047.5249    457.36951   103.94869    29.210155    9.286663    3.163927]
bas 10, expnt(s) = [7.8682724 1.8812885 0.5442493]
bas 11, expnt(s) = [0.1687144]
bas 12, expnt(s) = [7.8682724 1.8812885 0.5442493]
bas 13, expnt(s) = [0.1687144]
bas 14, expnt(s) = [0.8]
bas 15, expnt(s) = [18.731137   2.8253937  0.6401217]
bas 16, expnt(s) = [0.1612778]
bas 17, expnt(s) = [1.1]
bas 18, expnt(s) = [18.731137   2.8253937  0.6401217]
bas 19, expnt(s) = [0.1612778]
bas 20, expnt(s) = [1.1]
bas 21, expnt(s) = [7001.71309   1051.36609    239.28569     67.3974453   21.5199573
    7.4031013]
bas 22, expnt(s) = [20.8479528   4.80830834  1.34406986]
bas 23, expnt(s) = [0.35815139]
bas 24, expnt(s) = [20.8479528   4.80830834  1.34406986]
bas 25, expnt(s) = [0.35815139]
bas 26, expnt(s) = [0.8]
bas 27, expnt(s) = [3047.5249    457.36951   103.94869    29.210155    9.286663    3.163927]
bas 28, expnt(s) = [7.8682724 1.8812885 0.5442493]
bas 29, expnt(s) = [0.1687144]
bas 30, expnt(s) = [7.8682724 1.8812885 0.5442493]
bas 31, expnt(s) = [0.1687144]
bas 32, expnt(s) = [0.8]
bas 33, expnt(s) = [18.731137   2.8253937  0.6401217]
bas 34, expnt(s) = [0.1612778]
bas 35, expnt(s) = [1.1]
bas 36, expnt(s) = [3047.5249    457.36951   103.94869    29.210155    9.286663    3.163927]
bas 37, expnt(s) = [7.8682724 1.8812885 0.5442493]
bas 38, expnt(s) = [0.1687144]
bas 39, expnt(s) = [7.8682724 1.8812885 0.5442493]
bas 40, expnt(s) = [0.1687144]
bas 41, expnt(s) = [0.8]
bas 42, expnt(s) = [18.731137   2.8253937  0.6401217]
bas 43, expnt(s) = [0.1612778]
bas 44, expnt(s) = [1.1]
bas 45, expnt(s) = [18.731137   2.8253937  0.6401217]
bas 46, expnt(s) = [0.1612778]
bas 47, expnt(s) = [1.1]
bas 48, expnt(s) = [3047.5249    457.36951   103.94869    29.210155    9.286663    3.163927]
bas 49, expnt(s) = [7.8682724 1.8812885 0.5442493]
bas 50, expnt(s) = [0.1687144]
bas 51, expnt(s) = [7.8682724 1.8812885 0.5442493]
bas 52, expnt(s) = [0.1687144]
bas 53, expnt(s) = [0.8]
bas 54, expnt(s) = [18.731137   2.8253937  0.6401217]
bas 55, expnt(s) = [0.1612778]
bas 56, expnt(s) = [1.1]
bas 57, expnt(s) = [18.731137   2.8253937  0.6401217]
bas 58, expnt(s) = [0.1612778]
bas 59, expnt(s) = [1.1]
bas 60, expnt(s) = [4173.511     627.4579    142.9021     40.23433    12.82021     4.390437]
bas 61, expnt(s) = [11.626358  2.71628   0.772218]
bas 62, expnt(s) = [0.2120313]
bas 63, expnt(s) = [11.626358  2.71628   0.772218]
bas 64, expnt(s) = [0.2120313]
bas 65, expnt(s) = [0.8]
bas 66, expnt(s) = [18.731137   2.8253937  0.6401217]
bas 67, expnt(s) = [0.1612778]
bas 68, expnt(s) = [1.1]
bas 69, expnt(s) = [18.731137   2.8253937  0.6401217]
bas 70, expnt(s) = [0.1612778]
bas 71, expnt(s) = [1.1]
bas 72, expnt(s) = [18.731137   2.8253937  0.6401217]
bas 73, expnt(s) = [0.1612778]
bas 74, expnt(s) = [1.1]
bas 75, expnt(s) = [18.731137   2.8253937  0.6401217]
bas 76, expnt(s) = [0.1612778]
bas 77, expnt(s) = [1.1]
CPU time:        41.09
arg.atm = [[ 6 20  1 23  0  0]
 [ 1 24  1 27  0  0]
 [ 6 28  1 31  0  0]
 [ 1 32  1 35  0  0]
 [ 1 36  1 39  0  0]
 [ 9 40  1 43  0  0]
 [ 6 44  1 47  0  0]
 [ 1 48  1 51  0  0]
 [ 6 52  1 55  0  0]
 [ 1 56  1 59  0  0]
 [ 1 60  1 63  0  0]
 [ 6 64  1 67  0  0]
 [ 1 68  1 71  0  0]
 [ 1 72  1 75  0  0]
 [ 7 76  1 79  0  0]
 [ 1 80  1 83  0  0]
 [ 1 84  1 87  0  0]
 [ 1 88  1 91  0  0]
 [ 1 92  1 95  0  0]]
arg.bas = [[  0   0   6   1   0 126 132   0]
 [  0   0   3   1   0 138 141   0]
 [  0   0   1   1   0 144 145   0]
 [  0   1   3   1   0 146 149   0]
 [  0   1   1   1   0 152 153   0]
 [  0   2   1   1   0 154 155   0]
 [  1   0   3   1   0 156 159   0]
 [  1   0   1   1   0 162 163   0]
 [  1   1   1   1   0 164 165   0]
 [  2   0   6   1   0 126 132   0]
 [  2   0   3   1   0 138 141   0]
 [  2   0   1   1   0 144 145   0]
 [  2   1   3   1   0 146 149   0]
 [  2   1   1   1   0 152 153   0]
 [  2   2   1   1   0 154 155   0]
 [  3   0   3   1   0 156 159   0]
 [  3   0   1   1   0 162 163   0]
 [  3   1   1   1   0 164 165   0]
 [  4   0   3   1   0 156 159   0]
 [  4   0   1   1   0 162 163   0]
 [  4   1   1   1   0 164 165   0]
 [  5   0   6   1   0  96 102   0]
 [  5   0   3   1   0 108 111   0]
 [  5   0   1   1   0 114 115   0]
 [  5   1   3   1   0 116 119   0]
 [  5   1   1   1   0 122 123   0]
 [  5   2   1   1   0 124 125   0]
 [  6   0   6   1   0 126 132   0]
 [  6   0   3   1   0 138 141   0]
 [  6   0   1   1   0 144 145   0]
 [  6   1   3   1   0 146 149   0]
 [  6   1   1   1   0 152 153   0]
 [  6   2   1   1   0 154 155   0]
 [  7   0   3   1   0 156 159   0]
 [  7   0   1   1   0 162 163   0]
 [  7   1   1   1   0 164 165   0]
 [  8   0   6   1   0 126 132   0]
 [  8   0   3   1   0 138 141   0]
 [  8   0   1   1   0 144 145   0]
 [  8   1   3   1   0 146 149   0]
 [  8   1   1   1   0 152 153   0]
 [  8   2   1   1   0 154 155   0]
 [  9   0   3   1   0 156 159   0]
 [  9   0   1   1   0 162 163   0]
 [  9   1   1   1   0 164 165   0]
 [ 10   0   3   1   0 156 159   0]
 [ 10   0   1   1   0 162 163   0]
 [ 10   1   1   1   0 164 165   0]
 [ 11   0   6   1   0 126 132   0]
 [ 11   0   3   1   0 138 141   0]
 [ 11   0   1   1   0 144 145   0]
 [ 11   1   3   1   0 146 149   0]
 [ 11   1   1   1   0 152 153   0]
 [ 11   2   1   1   0 154 155   0]
 [ 12   0   3   1   0 156 159   0]
 [ 12   0   1   1   0 162 163   0]
 [ 12   1   1   1   0 164 165   0]
 [ 13   0   3   1   0 156 159   0]
 [ 13   0   1   1   0 162 163   0]
 [ 13   1   1   1   0 164 165   0]
 [ 14   0   6   1   0 166 172   0]
 [ 14   0   3   1   0 178 181   0]
 [ 14   0   1   1   0 184 185   0]
 [ 14   1   3   1   0 186 189   0]
 [ 14   1   1   1   0 192 193   0]
 [ 14   2   1   1   0 194 195   0]
 [ 15   0   3   1   0 156 159   0]
 [ 15   0   1   1   0 162 163   0]
 [ 15   1   1   1   0 164 165   0]
 [ 16   0   3   1   0 156 159   0]
 [ 16   0   1   1   0 162 163   0]
 [ 16   1   1   1   0 164 165   0]
 [ 17   0   3   1   0 156 159   0]
 [ 17   0   1   1   0 162 163   0]
 [ 17   1   1   1   0 164 165   0]
 [ 18   0   3   1   0 156 159   0]
 [ 18   0   1   1   0 162 163   0]
 [ 18   1   1   1   0 164 165   0]]
arg.env = [ 1.37036000e+02  0.00000000e+00  0.00000000e+00  0.00000000e+00
  0.00000000e+00  0.00000000e+00  0.00000000e+00  0.00000000e+00
  0.00000000e+00  0.00000000e+00  0.00000000e+00  0.00000000e+00
  0.00000000e+00  0.00000000e+00  0.00000000e+00  0.00000000e+00
  0.00000000e+00  0.00000000e+00  0.00000000e+00  0.00000000e+00
 -1.07777596e+01  6.33113999e-02 -1.04469066e+00  0.00000000e+00
 -1.00280953e+01  9.34352821e-01  6.18980718e-01  0.00000000e+00
 -9.78482756e+00  1.45501988e+00 -3.39976409e+00  0.00000000e+00
 -1.03645163e+01  3.39099875e+00 -3.33298916e+00  0.00000000e+00
 -1.05344918e+01  5.83978455e-01 -5.06343547e+00  0.00000000e+00
 -1.00463766e+01 -2.37927876e+00 -1.12893939e+00  0.00000000e+00
 -5.88568911e+00  2.70572311e+00 -5.81157398e+00  0.00000000e+00
 -6.46537783e+00  4.64170198e+00 -5.74479905e+00  0.00000000e+00
 -6.87862114e+00  1.31401464e+00 -3.45650055e+00  0.00000000e+00
 -6.29893240e+00 -6.21964255e-01 -3.52327546e+00  0.00000000e+00
 -6.12895687e+00  2.18505604e+00 -1.79282917e+00  0.00000000e+00
 -2.97948267e+00  2.56471785e+00 -5.86831044e+00  0.00000000e+00
 -2.39979393e+00  6.28738980e-01 -5.93508535e+00  0.00000000e+00
 -2.22981842e+00  3.43575927e+00 -4.20463906e+00  0.00000000e+00
 -2.03168392e+00  3.89316686e+00 -8.11633506e+00  0.00000000e+00
 -2.57344909e+00  5.70249290e+00 -8.05392859e+00  0.00000000e+00
 -1.44536874e-01  3.80160502e+00 -8.15317693e+00  0.00000000e+00
 -1.27970069e+01  1.61282569e-01 -1.00526988e+00  0.00000000e+00
 -6.63535337e+00  1.83468169e+00 -7.47524536e+00  0.00000000e+00
  7.00171309e+03  1.05136609e+03  2.39285690e+02  6.73974453e+01
  2.15199573e+01  7.40310130e+00  3.51882946e+00  6.49153500e+00
  1.05145933e+01  1.38579703e+01  1.18963440e+01  4.04370270e+00
  2.08479528e+01  4.80830834e+00  1.34406986e+00 -2.67467022e+00
 -1.20144405e+00  3.55963557e+00  3.58151393e-01  1.16967446e+00
  2.08479528e+01  4.80830834e+00  1.34406986e+00  9.30895386e+00
  7.18522772e+00  3.05022227e+00  3.58151393e-01  8.08290917e-01
  8.00000000e-01  1.76578110e+00  3.04752490e+03  4.57369510e+02
  1.03948690e+02  2.92101550e+01  9.28666300e+00  3.16392700e+00
  1.90125588e+00  3.50751108e+00  5.66221808e+00  7.37052623e+00
  6.28928397e+00  2.17153894e+00  7.86827240e+00  1.88128850e+00
  5.44249300e-01 -1.41639039e+00 -6.52813326e-01  1.83055623e+00
  1.68714400e-01  6.65088040e-01  7.86827240e+00  1.88128850e+00
  5.44249300e-01  2.65263212e+00  2.03386926e+00  1.01504332e+00
  1.68714400e-01  3.15445679e-01  8.00000000e-01  1.76578110e+00
  1.87311370e+01  2.82539370e+00  6.40121700e-01  7.61926220e-01
  1.29237100e+00  1.47131900e+00  1.61277800e-01  6.42977783e-01
  1.10000000e+00  3.28643653e+00  4.17351100e+03  6.27457900e+02
  1.42902100e+02  4.02343300e+01  1.28202100e+01  4.39043700e+00
  2.40702054e+00  4.43278063e+00  7.16202212e+00  9.37349097e+00
  8.02923011e+00  2.76214682e+00  1.16263580e+01  2.71628000e+00
  7.72218000e-01 -1.82872504e+00 -9.04036253e-01  2.38478141e+00
  2.12031300e-01  7.89432508e-01  1.16263580e+01  2.71628000e+00
  7.72218000e-01  4.23260113e+00  3.29513374e+00  1.56464604e+00
  2.12031300e-01  4.19743870e-01  8.00000000e-01  1.76578110e+00]
ecpbas  = []


******** <class 'pyscf.qmmm.itrf.mm_charge.<locals>.QMMM'> ********
method = QMMM-RHF
initial guess = minao
damping factor = 0
level shift factor = 0
DIIS = <class 'pyscf.scf.diis.CDIIS'>
DIIS start cycle = 1
DIIS space = 8
SCF tol = 1e-09
SCF gradient tol = None
max. SCF cycles = 50
direct_scf = True
direct_scf_tol = 1e-13
chkfile to save SCF result = /home/liwei01/wsr/dftpart/test_2body/c8b/tmp_pju3qtx
max_memory 4000 MB (current use 227 MB)
** Add background charges for <class 'pyscf.scf.hf.RHF'> **
Charge      Location
-0.061835    [-13.68396603   0.20431664  -0.9879542 ]
0.183434    [-14.26365475   2.14029551  -0.92117928]
0.186056    [-14.43363029  -0.66672476  -2.65162558]
-0.807128    [-14.60597433  -1.08798408   1.1988997 ]
0.489623    [-16.41763549  -1.00008471   1.23426789]
Set gradient conv threshold to 3.16228e-05
Nelec from initial guess = 57.95860065956667
cond(S) = 1831.3752029655209
E1 = -1095.0792117697015  E_coul = 429.068491777519
init E= -351.888279499125
    CPU time for initialize scf      6.33 sec, wall time      0.79 sec
  HOMO = -0.277545018885277  LUMO = 0.140534247005599
  mo_energy =
[-26.46104078 -15.64943769 -11.44068685 -11.43794517 -11.43384118
 -11.42888142 -11.40477373  -1.87565905  -1.67265329  -1.51848239
  -1.30545186  -1.09414456  -0.95757828  -0.94555657  -0.74278974
  -0.71771137  -0.68602529  -0.68015177  -0.62997357  -0.59043068
  -0.53869152  -0.49825652  -0.46601666  -0.44276887  -0.41850281
  -0.40161179  -0.38009111  -0.33729218  -0.27754502   0.14053425
   0.14796639   0.17669175   0.18840995   0.20530966   0.20855732
   0.23673029   0.24800867   0.26007898   0.26699202   0.2812703
   0.28854599   0.29253589   0.30332799   0.31505767   0.32337692
   0.35626634   0.37222551   0.61314753   0.65559277   0.66887779
   0.68714891   0.70380402   0.71996648   0.73920944   0.77566814
   0.80503469   0.82113373   0.8389353    0.87406433   0.89568112
   0.90594935   0.94151773   0.96551358   1.0001766    1.01388669
   1.02055901   1.05727433   1.06523101   1.08020087   1.08424224
   1.09286349   1.10800988   1.11275295   1.12285502   1.13826405
   1.14328622   1.22953347   1.25231163   1.40014053   1.41939235
   1.42994206   1.47417732   1.52734272   1.54326774   1.59465246
   1.61200245   1.62864528   1.69010843   1.70340714   1.76309581
   1.84137312   1.86466927   1.88007523   1.89512789   1.94980361
   1.98006711   2.00770472   2.03362656   2.05302762   2.07202997
   2.09693527   2.1203748    2.1984325    2.21930167   2.25551325
   2.27323295   2.30307269   2.32021978   2.33358059   2.33683145
   2.3735389    2.3928174    2.41198714   2.43886721   2.47474879
   2.48747867   2.49822912   2.51024084   2.543805     2.56020375
   2.57996083   2.62042184   2.6511316    2.65798853   2.69955403
   2.74966207   2.77086481   2.82692677   2.8741057    2.88877853
   2.90734668   2.9275088    2.98388909   3.02093639   3.04896576
   3.07046554   3.11219592   3.12927429   3.15124089   3.17535514
   3.19916851   3.21480644   3.24072638   3.25655501   3.28175968
   3.37761192   3.53708511   3.57526747   3.60584265   3.62810908
   3.65087215   3.69339534   3.72416318   3.76760151   3.83366568
   3.85469805   3.8800645    3.88412325]
E1 = -1102.7817391591147  E_coul = 438.51264005931864
cycle= 1 E= -350.146658606738  delta_E= 1.74  |g|= 0.579  |ddm|= 3.57
    CPU time for cycle= 1      0.73 sec, wall time      0.09 sec
diis-norm(errvec)=1.15725
diis-c [-1.33923846  1.        ]
  HOMO = -0.358278671527433  LUMO = 0.226578090908448
  mo_energy =
[-26.0542785  -15.47749924 -11.38126037 -11.23572995 -11.18653733
 -11.17381917 -11.16182831  -1.50999762  -1.16421598  -1.07016124
  -0.99516892  -0.89872314  -0.82021815  -0.79398647  -0.67843376
  -0.65846758  -0.65514066  -0.62242881  -0.60131413  -0.58580095
  -0.55670234  -0.51665256  -0.49956348  -0.47823199  -0.47006561
  -0.46357934  -0.44886257  -0.40648798  -0.35827867   0.22657809
   0.23552323   0.2617816    0.27659968   0.28085463   0.31245093
   0.32150041   0.33079406   0.34049428   0.34906495   0.36109034
   0.37271477   0.39052033   0.39335845   0.4021966    0.46189073
   0.47555777   0.49650865   0.71006074   0.73842853   0.75138987
   0.77572146   0.79565903   0.80857501   0.82232291   0.87062871
   0.92611391   0.94894383   0.95527345   0.97013302   1.00689241
   1.02431967   1.0528913    1.07224505   1.09394146   1.11389409
   1.11785528   1.1454366    1.15711373   1.17895394   1.1812805
   1.20140918   1.20736311   1.21945025   1.23074092   1.23507696
   1.24218542   1.31897922   1.34507225   1.50932785   1.53101723
   1.54090929   1.60103538   1.6355343    1.65497806   1.69807244
   1.75501989   1.77150934   1.79922731   1.80202237   1.85212381
   1.93807392   1.98150847   1.99416842   2.01041299   2.04815161
   2.09566696   2.12740602   2.14406378   2.19239028   2.20173666
   2.22157958   2.25278615   2.322124     2.33946611   2.34831336
   2.38152386   2.39494237   2.42439083   2.43470906   2.43851108
   2.46762843   2.49264391   2.5082128    2.53097801   2.54169747
   2.56994516   2.59801416   2.60870773   2.63296059   2.64771893
   2.68055812   2.71588235   2.74301342   2.7520147    2.78797422
   2.82090436   2.86418316   2.90533295   2.97447368   2.99047838
   3.01366892   3.05276579   3.07953818   3.11325707   3.14266193
   3.17416579   3.21533994   3.22019809   3.26581702   3.28818927
   3.29290216   3.32201487   3.32720096   3.3493684    3.36052237
   3.49249052   3.6448664    3.67764288   3.70123427   3.7288897
   3.73943042   3.77822625   3.83220507   3.85744278   3.91583453
   3.95196013   3.99749592   4.01809746]
E1 = -1101.096750927622  E_coul = 436.75124787589584
cycle= 2 E= -350.223062558669  delta_E= -0.0764  |g|= 0.251  |ddm|= 0.552
    CPU time for cycle= 2      0.73 sec, wall time      0.09 sec
diis-norm(errvec)=0.452714
diis-c [-0.15756934  0.16683332  0.83316668]
  HOMO = -0.380192211884516  LUMO = 0.226477974568658
  mo_energy =
[-26.31668145 -15.54256581 -11.2429236  -11.23604659 -11.21901181
 -11.21659806 -11.21394294  -1.58696784  -1.17721392  -1.07791813
  -0.99611544  -0.8979222   -0.82262985  -0.80326784  -0.6950573
  -0.68477671  -0.66877754  -0.64949084  -0.6364419   -0.60287461
  -0.57108982  -0.54332337  -0.51244256  -0.50965624  -0.48908797
  -0.4800438   -0.46267332  -0.42152216  -0.38019221   0.22647797
   0.24062832   0.26555054   0.27821052   0.28279622   0.31869217
   0.33322562   0.33498712   0.34598931   0.35057188   0.36269849
   0.36693025   0.38858935   0.3901787    0.40569581   0.45707521
   0.47434624   0.49893407   0.70406283   0.73857538   0.7471345
   0.7632998    0.79435447   0.81458707   0.8364382    0.87736727
   0.9204538    0.93738201   0.94472359   0.96951483   0.99439074
   1.01286795   1.04295798   1.08009225   1.09851232   1.10951585
   1.12941446   1.14787318   1.16589188   1.17507591   1.19078645
   1.19858165   1.20469639   1.21979804   1.22268835   1.2323232
   1.24086375   1.31043008   1.34090371   1.49482069   1.52583464
   1.53087413   1.5693038    1.62086658   1.63574293   1.6848581
   1.70731454   1.72116477   1.77856521   1.79615384   1.85344736
   1.93738799   1.97073229   1.98457275   2.00171722   2.03867931
   2.08878012   2.11479334   2.12691384   2.17006328   2.1900044
   2.21390068   2.23029844   2.31198341   2.32920989   2.34465158
   2.36045275   2.40649901   2.42153603   2.43093705   2.43841285
   2.47720204   2.49751823   2.5202686    2.52331976   2.54494362
   2.56560506   2.59551465   2.60501246   2.63179058   2.6526514
   2.67742333   2.71318417   2.74061572   2.7493074    2.78814095
   2.84076221   2.86808912   2.90672988   2.97161526   2.9907272
   3.01580877   3.04551286   3.08374591   3.11570234   3.14605591
   3.17432473   3.21828799   3.22530532   3.26248088   3.27968674
   3.30312064   3.31541316   3.33697938   3.34840879   3.36032523
   3.48415105   3.65234017   3.68602083   3.71542964   3.73323572
   3.74416112   3.7835697    3.83432232   3.87180243   3.93518199
   3.95165637   3.99542949   4.00489799]
E1 = -1102.0284577120963  E_coul = 437.67189433267754
cycle= 3 E= -350.234122886361  delta_E= -0.0111  |g|= 0.0873  |ddm|= 0.217
    CPU time for cycle= 3      0.75 sec, wall time      0.09 sec
diis-norm(errvec)=0.150253
diis-c [-0.00507003 -0.09063595  0.12835442  0.96228153]
  HOMO = -0.376504099134119  LUMO = 0.229422826426901
  mo_energy =
[-26.23434631 -15.52682088 -11.27128437 -11.23270167 -11.21455074
 -11.20691135 -11.20581766  -1.56316609  -1.16979795  -1.07417259
  -0.99352667  -0.89435301  -0.81772508  -0.79866188  -0.68553842
  -0.6730055   -0.66228749  -0.63980825  -0.62715436  -0.59833615
  -0.56763787  -0.53903655  -0.50989328  -0.50603664  -0.4870179
  -0.47809642  -0.46291359  -0.42382819  -0.3765041    0.22942283
   0.24311912   0.26741821   0.28026609   0.28484695   0.32111693
   0.33419036   0.33669249   0.34789859   0.35294738   0.36451123
   0.36970654   0.39083144   0.39328205   0.40764401   0.46121653
   0.47709265   0.500817     0.70590307   0.73880399   0.74779908
   0.76599471   0.79622865   0.81452588   0.83568745   0.87646098
   0.92182378   0.94102712   0.94709473   0.969781     0.99948203
   1.01580354   1.04635264   1.08295527   1.09858848   1.11227875
   1.13046178   1.14943421   1.16901142   1.18043574   1.1918625
   1.20136548   1.20831352   1.22279358   1.22678681   1.23547884
   1.24422452   1.31428729   1.34397156   1.50146186   1.52987412
   1.53475463   1.57830385   1.62614882   1.64240891   1.68894842
   1.72081447   1.73335805   1.78306748   1.79949657   1.85557086
   1.94022975   1.97539738   1.98887459   2.00580808   2.04376291
   2.09301746   2.12311169   2.13000881   2.1764115    2.19499517
   2.21690868   2.23738787   2.31694579   2.33418095   2.35164497
   2.36702058   2.40887612   2.42576141   2.43618118   2.44086696
   2.48032014   2.50135289   2.5208868    2.52800086   2.55211781
   2.57064102   2.60060423   2.60855392   2.6360682    2.65590691
   2.68267932   2.71800375   2.74603864   2.75357717   2.79297149
   2.84050175   2.87108189   2.91233364   2.97659784   2.99466109
   3.01859714   3.0498326    3.08719291   3.11865421   3.14866303
   3.17827171   3.22177057   3.22769302   3.26738691   3.28485151
   3.30391477   3.31894346   3.33932901   3.35347083   3.36525045
   3.48894363   3.65731177   3.69007549   3.71830849   3.7373077
   3.7481574    3.78801071   3.8394       3.87439507   3.93600073
   3.95510183   3.99959412   4.01119539]
E1 = -1101.791440960965  E_coul = 437.43332397317755
cycle= 4 E= -350.23567649473  delta_E= -0.00155  |g|= 0.0123  |ddm|= 0.069
    CPU time for cycle= 4      0.77 sec, wall time      0.10 sec
diis-norm(errvec)=0.021218
diis-c [-2.64068455e-04 -1.34326010e-02 -1.31877346e-02  9.37606248e-02
  9.32859711e-01]
  HOMO = -0.376212318687408  LUMO = 0.229489863931837
  mo_energy =
[-26.24814402 -15.52551066 -11.27272149 -11.23273695 -11.20880732
 -11.20495055 -11.20401467  -1.56821847  -1.16967117  -1.07260494
  -0.99274664  -0.89424237  -0.81768336  -0.79786594  -0.68730952
  -0.67575244  -0.66256432  -0.64139673  -0.62842026  -0.59831527
  -0.567331    -0.53919048  -0.50963187  -0.50651719  -0.48746885
  -0.47745844  -0.46291071  -0.42364104  -0.37621232   0.22948986
   0.24332177   0.26783019   0.28081248   0.28501256   0.32129648
   0.33405162   0.33709201   0.3478661    0.35325063   0.36466671
   0.37014672   0.39103156   0.39402252   0.40777534   0.46199772
   0.47761465   0.50123873   0.7062744    0.73907405   0.74833935
   0.76657872   0.7964523    0.81461639   0.83426721   0.8764898
   0.92241939   0.94160921   0.94789252   0.97037891   0.99955036
   1.01663839   1.046941     1.08355663   1.0985147    1.11324931
   1.13081716   1.14940143   1.16955783   1.18056686   1.19197299
   1.20178415   1.20899828   1.22300959   1.22760035   1.23565888
   1.24446266   1.31439962   1.34419046   1.50071154   1.52980542
   1.53513346   1.57737973   1.62614488   1.64182567   1.689174
   1.71869602   1.73088494   1.78290017   1.79970717   1.85541106
   1.94018012   1.97639339   1.98961274   2.00605371   2.04381267
   2.09263711   2.1221546    2.1298897    2.17614941   2.19559784
   2.21773015   2.23712036   2.31628117   2.33401506   2.34964607
   2.36558791   2.408083     2.42573168   2.43629887   2.44147349
   2.48041762   2.50146085   2.5208022    2.52858762   2.55165215
   2.57132204   2.600974     2.60849419   2.63656382   2.65614896
   2.68284507   2.71840397   2.74637236   2.75405687   2.79306406
   2.84046987   2.87135405   2.91225488   2.97699381   2.99480248
   3.01896597   3.05062629   3.08711576   3.11873387   3.14913457
   3.17847076   3.22202243   3.22807545   3.26788581   3.2856234
   3.30393324   3.31968664   3.33940546   3.3534377    3.36515246
   3.48657201   3.65807329   3.69055535   3.71877822   3.73743411
   3.74842981   3.78817434   3.83995783   3.87455856   3.93609328
   3.95556857   4.00041382   4.01220217]
E1 = -1101.7903839926237  E_coul = 437.432229609995
cycle= 5 E= -350.235713889571  delta_E= -3.74e-05  |g|= 0.00345  |ddm|= 0.0158
    CPU time for cycle= 5      0.73 sec, wall time      0.09 sec
diis-norm(errvec)=0.00647013
diis-c [-2.06719348e-05  3.63979632e-03 -8.35498104e-03 -4.57487741e-02
  1.21118293e-01  9.29345665e-01]
  HOMO = -0.376752522323634  LUMO = 0.229284130353167
  mo_energy =
[-26.24578538 -15.52675919 -11.27169504 -11.23302738 -11.21121308
 -11.20639895 -11.20549006  -1.56733253  -1.17012071  -1.07336348
  -0.99317423  -0.89445381  -0.8179481   -0.79835976  -0.68708271
  -0.67536361  -0.66283655  -0.64118697  -0.62856644  -0.59867436
  -0.56782323  -0.53960063  -0.51012241  -0.50690272  -0.48776185
  -0.47802385  -0.46338494  -0.42433722  -0.37675252   0.22928413
   0.24306327   0.26760676   0.28054763   0.28485107   0.32107994
   0.33399561   0.33688627   0.34773532   0.35299627   0.36448676
   0.36983679   0.39085714   0.39362468   0.40752606   0.46151531
   0.47715748   0.50089533   0.70584258   0.73859333   0.74780553
   0.76609481   0.79610421   0.81427756   0.83447046   0.87621067
   0.92190041   0.94102456   0.94719228   0.96984208   0.99906255
   1.01596171   1.04646117   1.0831481    1.09833036   1.11268286
   1.13048616   1.14916004   1.16911219   1.18017399   1.19175536
   1.20144823   1.20847005   1.22265241   1.22708536   1.2353365
   1.2440556    1.31397969   1.34385178   1.50074523   1.52942269
   1.5346708    1.57739808   1.62581614   1.64164388   1.68876885
   1.71890503   1.73125138   1.78264595   1.7992605    1.85518781
   1.93985774   1.9757556    1.98901142   2.00555252   2.04345491
   2.09239664   2.12206828   2.12959473   2.17580249   2.19504445
   2.21710624   2.23678557   2.31610522   2.33369915   2.34991372
   2.36569117   2.40803018   2.42544505   2.43593935   2.44096543
   2.48011315   2.50109596   2.52053797   2.52805013   2.55130238
   2.57088393   2.60059819   2.60822306   2.63619038   2.6558085
   2.68243531   2.7179793    2.74592903   2.7536297    2.79271397
   2.84021364   2.87098358   2.9119395    2.97656421   2.99443655
   3.01851136   3.05001684   3.08682335   3.11841014   3.14872442
   3.17808271   3.22164639   3.22767845   3.26741058   3.28506788
   3.3036987    3.31918879   3.33913228   3.35312338   3.36480031
   3.48700817   3.65754929   3.69012027   3.71836899   3.73706437
   3.74801372   3.78775587   3.83944905   3.874202     3.93583571
   3.95507774   3.99986799   4.01154145]
E1 = -1101.7928706297196  E_coul = 437.4347122019141
cycle= 6 E= -350.235717934748  delta_E= -4.05e-06  |g|= 0.00093  |ddm|= 0.00491
    CPU time for cycle= 6      0.73 sec, wall time      0.09 sec
diis-norm(errvec)=0.00178204
diis-c [-1.75765080e-06  1.40716378e-03  6.92437508e-04 -1.16731108e-02
 -6.55808495e-02  1.25976721e-02  1.06255669e+00]
  HOMO = -0.376743527852854  LUMO = 0.22931488454071
  mo_energy =
[-26.24611085 -15.52639726 -11.2717513  -11.23309093 -11.21088445
 -11.20615167 -11.2052643   -1.56751604  -1.17001011  -1.07326851
  -0.99313311  -0.89443848  -0.8179171   -0.79831634  -0.6871364
  -0.67546987  -0.6627851   -0.64121006  -0.62856351  -0.59863297
  -0.56775918  -0.53958474  -0.51008657  -0.50690094  -0.48776889
  -0.47797929  -0.46336685  -0.42431128  -0.37674353   0.22931488
   0.24309813   0.26761647   0.28057806   0.28487487   0.3211407
   0.33400043   0.33690142   0.34773862   0.35302477   0.36449716
   0.36987522   0.39086069   0.39366544   0.40755517   0.46157525
   0.47721146   0.50092673   0.70587375   0.73862219   0.74783859
   0.76612512   0.79611778   0.8142937    0.8344106    0.87621691
   0.92193524   0.94107995   0.94725194   0.9698998    0.99910158
   1.01602967   1.046508     1.08319025   1.09834899   1.11275567
   1.13051873   1.14919146   1.16919043   1.18025645   1.19178136
   1.2014684    1.20852617   1.22270484   1.22711785   1.23536374
   1.24411375   1.31403315   1.34388056   1.50069574   1.52944287
   1.53471323   1.57735562   1.625838     1.64164037   1.68880446
   1.71877861   1.7311105    1.78264125   1.79931374   1.85518113
   1.93987049   1.97580477   1.98906088   2.00560281   2.04348137
   2.09240455   2.12202894   2.12961922   2.17580466   2.19509048
   2.21715831   2.23679589   2.31609807   2.33371842   2.3498323
   2.36563301   2.40802051   2.425456     2.43596518   2.4410151
   2.48012503   2.5011283    2.52055896   2.52810119   2.55137575
   2.57090082   2.60061426   2.6082322    2.636206     2.65582659
   2.6824789    2.71801118   2.74597061   2.75366285   2.79274744
   2.84023575   2.87101948   2.91197882   2.97659898   2.99447458
   3.01855289   3.05007678   3.08685278   3.11843441   3.14875228
   3.1781226    3.22167085   3.227717     3.26744482   3.28510781
   3.30370883   3.31922413   3.33914865   3.35315039   3.36484653
   3.48690378   3.65759261   3.69015605   3.71840923   3.73710714
   3.74806391   3.7878161    3.83951137   3.87424793   3.93585696
   3.95514216   3.99991035   4.01159636]
E1 = -1101.7906007125875  E_coul = 437.43244179257556
cycle= 7 E= -350.235718426954  delta_E= -4.92e-07  |g|= 0.000265  |ddm|= 0.00219
    CPU time for cycle= 7      0.73 sec, wall time      0.09 sec
diis-norm(errvec)=0.000516831
diis-c [-1.23597052e-07 -3.71463224e-04  4.66637611e-04  3.95536322e-03
  2.27551148e-03 -7.69107133e-02 -1.46407670e-01  1.21699233e+00]
  HOMO = -0.376784334585751  LUMO = 0.229310348600193
  mo_energy =
[-26.24610684 -15.52649663 -11.27178126 -11.23300992 -11.21090335
 -11.20618842 -11.20528719  -1.56754149  -1.17002138  -1.07328692
  -0.99314295  -0.89444391  -0.81792158  -0.79832343  -0.68714763
  -0.67548983  -0.66278851  -0.64121172  -0.62858234  -0.59863662
  -0.56775725  -0.5395956   -0.51009096  -0.50691038  -0.48777179
  -0.4779817   -0.46337526  -0.42432486  -0.37678433   0.22931035
   0.24309186   0.26761931   0.28057641   0.28487412   0.32113809
   0.33400009   0.33690581   0.34773752   0.35302455   0.36449829
   0.36987105   0.39086553   0.39366568   0.40755409   0.46156951
   0.47721041   0.50092627   0.705872     0.73862266   0.74783651
   0.76612399   0.79611694   0.81429579   0.83440044   0.87621575
   0.92192838   0.94106894   0.94725237   0.96989149   0.99907431
   1.01602323   1.04650621   1.08319374   1.09834926   1.11274956
   1.13051848   1.14919024   1.16918236   1.18024443   1.19178115
   1.20147266   1.20852352   1.22270083   1.22711836   1.23536451
   1.24410584   1.31402373   1.34387216   1.50068405   1.52943074
   1.5347091    1.57734458   1.62583335   1.64163183   1.68879846
   1.71875308   1.73108332   1.78263374   1.79930444   1.85517666
   1.93986584   1.97579859   1.98905747   2.00559387   2.04347509
   2.09239294   2.12201524   2.12961124   2.17579875   2.19508943
   2.21715889   2.23678519   2.31608627   2.33371518   2.34982272
   2.36562022   2.40801598   2.42545617   2.4359647    2.44101126
   2.48012781   2.50112445   2.52055833   2.52809561   2.55137202
   2.57090166   2.60061487   2.60822257   2.63620718   2.65582614
   2.68247631   2.71801173   2.7459668    2.75366162   2.79274463
   2.84023184   2.87101818   2.91197526   2.97659991   2.99447142
   3.01854583   3.05007242   3.08684719   3.11842938   3.14875184
   3.17811957   3.22167259   3.22771611   3.26744344   3.28510426
   3.30370428   3.31922094   3.33914879   3.35315191   3.36484106
   3.48688216   3.65759058   3.69015977   3.7184104    3.73710649
   3.7480653    3.78780928   3.83949933   3.87424431   3.93585526
   3.95513931   3.99991717   4.01159243]
E1 = -1101.7907788188556  E_coul = 437.43261984671864
cycle= 8 E= -350.235718479079  delta_E= -5.21e-08  |g|= 7.15e-05  |ddm|= 0.00087
    CPU time for cycle= 8      0.73 sec, wall time      0.09 sec
diis-norm(errvec)=0.000138792
diis-c [-8.40180684e-09 -1.21934889e-04 -3.00919170e-05  1.08066793e-03
  6.09919520e-03 -7.92173638e-03 -9.68239957e-02  1.08030525e-01
  9.89687371e-01]
  HOMO = -0.376776076068724  LUMO = 0.229311373475938
  mo_energy =
[-26.24609353 -15.52644497 -11.27175393 -11.23304858 -11.2109178
 -11.20618177 -11.20529186  -1.56753821  -1.17001164  -1.07328564
  -0.99314222  -0.89444198  -0.81792197  -0.79832403  -0.68714358
  -0.67548587  -0.66278373  -0.6412063   -0.6285767   -0.59863425
  -0.56775607  -0.53959562  -0.51009142  -0.50690943  -0.48777105
  -0.47798152  -0.46337261  -0.42432133  -0.37677608   0.22931137
   0.24309261   0.26761837   0.28057586   0.28487536   0.32114126
   0.33400096   0.33690535   0.3477396    0.35302491   0.36449803
   0.3698718    0.39086625   0.39366566   0.40755453   0.46157217
   0.47720962   0.50092648   0.70587277   0.73862208   0.74783762
   0.76612349   0.79611664   0.81429523   0.83440585   0.87621771
   0.92193033   0.94107073   0.94724853   0.96989307   0.99908139
   1.01602366   1.04650784   1.08319264   1.09835158   1.11274986
   1.13052069   1.14919391   1.16918641   1.18025259   1.19178559
   1.20147304   1.20852213   1.22270527   1.22711754   1.23536289
   1.24410964   1.31402781   1.34387539   1.50068621   1.52943239
   1.53471108   1.57734704   1.62583623   1.64163459   1.68879972
   1.71875288   1.7310844    1.78263468   1.7993086    1.85517804
   1.93986622   1.9758002    1.98905564   2.00559538   2.04347763
   2.09239549   2.12201588   2.12961364   2.17579664   2.19508869
   2.21715676   2.23678626   2.3160886    2.33371594   2.34982655
   2.36562246   2.4080208    2.42545674   2.43596554   2.44101228
   2.48012729   2.50112683   2.52056146   2.52809604   2.55137694
   2.57090141   2.60061349   2.60822529   2.63620684   2.65582774
   2.6824789    2.71801208   2.74596888   2.75366283   2.79274756
   2.84023531   2.87102007   2.91197845   2.97659936   2.99447235
   3.01854773   3.05007227   3.08685079   3.11843209   3.14875226
   3.1781218    3.22167164   3.22771749   3.26744304   3.28510416
   3.30370741   3.31922225   3.33914992   3.35315425   3.36484482
   3.48688832   3.65759133   3.69015893   3.71841094   3.73711043
   3.74806487   3.7878151    3.83950434   3.87424611   3.93585978
   3.95514335   3.99991409   4.01159188]
E1 = -1101.7907366016864  E_coul = 437.43257762675495
cycle= 9 E= -350.235718481874  delta_E= -2.79e-09  |g|= 1.9e-05  |ddm|= 0.000194
    CPU time for cycle= 9      0.74 sec, wall time      0.09 sec
diis-norm(errvec)=3.79307e-05
diis-c [-8.27358222e-10  9.18297702e-01 -3.30545999e-05 -3.64467980e-05
  9.60577687e-04  3.77787308e-03 -6.76005632e-03 -5.88798237e-02
  1.42673229e-01]
  HOMO = -0.376778495145905  LUMO = 0.229312072896641
  mo_energy =
[-26.246095   -15.5264573  -11.27175629 -11.23303892 -11.21091326
 -11.20618013 -11.2052873   -1.56753925  -1.17001222  -1.07328391
  -0.99314073  -0.89444087  -0.8179203   -0.79832247  -0.6871437
  -0.67548624  -0.66278359  -0.64120583  -0.62857698  -0.59863326
  -0.56775484  -0.53959442  -0.5100902   -0.50690813  -0.48776988
  -0.47798013  -0.46337147  -0.42431913  -0.3767785    0.22931207
   0.24309284   0.26761871   0.28057654   0.28487579   0.32114125
   0.3340016    0.3369058    0.34773978   0.35302563   0.36449875
   0.36987257   0.3908667    0.39366667   0.40755563   0.46157317
   0.477211     0.50092743   0.70587401   0.73862379   0.74783872
   0.76612498   0.79611773   0.81429653   0.83440525   0.87621848
   0.92193119   0.94107173   0.94725137   0.96989426   0.99907971
   1.01602518   1.04650821   1.0831941    1.0983523    1.112751
   1.13052118   1.14919425   1.16918663   1.1802517    1.19178555
   1.20147357   1.20852353   1.22270517   1.22711857   1.23536492
   1.24410983   1.31402789   1.34387605   1.50068656   1.52943328
   1.53471203   1.57734749   1.62583667   1.64163503   1.68880061
   1.71875309   1.73108421   1.78263554   1.79930901   1.85517887
   1.93986727   1.97580136   1.98905762   2.00559634   2.04347817
   2.09239596   2.12201647   2.12961448   2.17579832   2.1950905
   2.21715881   2.23678711   2.31608901   2.33371684   2.3498259
   2.36562259   2.40802081   2.42545804   2.43596651   2.4410131
   2.48012867   2.50112759   2.52056178   2.52809744   2.55137665
   2.57090253   2.6006147    2.60822578   2.63620811   2.65582804
   2.68247944   2.71801325   2.74596908   2.75366355   2.79274779
   2.84023563   2.87102105   2.91197872   2.97660061   2.99447376
   3.01854841   3.05007391   3.08685114   3.11843271   3.14875327
   3.17812257   3.22167327   3.22771811   3.26744452   3.28510555
   3.30370794   3.31922339   3.3391506    3.35315449   3.36484495
   3.48688762   3.65759247   3.69016031   3.71841204   3.73711025
   3.74806624   3.78781461   3.83950495   3.8742473    3.93586002
   3.95514309   3.99991595   4.01159372]
E1 = -1101.7907512177844  E_coul = 437.43259224266
cycle= 10 E= -350.235718482067  delta_E= -1.93e-10  |g|= 5.83e-06  |ddm|= 4.76e-05
    CPU time for cycle= 10      0.73 sec, wall time      0.09 sec
  HOMO = -0.376777623353428  LUMO = 0.229312073648554
  mo_energy =
[-26.24609599 -15.52645375 -11.27175674 -11.23303946 -11.21091304
 -11.20618099 -11.20528859  -1.56753932  -1.17001114  -1.07328404
  -0.99314079  -0.89444084  -0.81792025  -0.79832258  -0.68714386
  -0.67548633  -0.66278326  -0.64120601  -0.62857668  -0.59863311
  -0.56775469  -0.53959451  -0.51009022  -0.50690823  -0.48777012
  -0.47798042  -0.46337165  -0.42431916  -0.37677762   0.22931207
   0.24309287   0.26761873   0.28057647   0.28487573   0.32114134
   0.3340015    0.33690575   0.34773971   0.35302563   0.36449867
   0.36987239   0.39086667   0.39366662   0.40755547   0.46157305
   0.47721093   0.50092749   0.70587393   0.73862376   0.74783867
   0.76612471   0.79611763   0.81429646   0.83440521   0.87621855
   0.92193116   0.94107165   0.9472512    0.9698942    0.99908055
   1.01602505   1.04650838   1.08319383   1.09835223   1.11275079
   1.13052109   1.14919435   1.16918672   1.18025211   1.19178559
   1.20147358   1.20852347   1.22270534   1.22711854   1.23536478
   1.24410988   1.31402813   1.3438761    1.50068651   1.52943317
   1.53471217   1.57734756   1.62583692   1.64163516   1.68880072
   1.71875315   1.73108425   1.78263557   1.79930913   1.85517881
   1.9398672    1.97580111   1.98905741   2.00559634   2.04347836
   2.09239603   2.12201646   2.12961459   2.1757982    2.19509046
   2.21715866   2.2367871    2.31608893   2.33371704   2.34982583
   2.36562259   2.40802066   2.42545807   2.4359668    2.441013
   2.48012854   2.50112746   2.52056163   2.52809725   2.55137697
   2.57090238   2.6006146    2.60822559   2.63620802   2.65582798
   2.68247964   2.71801315   2.74596928   2.75366359   2.7927479
   2.84023556   2.87102106   2.91197889   2.9766006    2.99447382
   3.0185483    3.05007368   3.08685126   3.11843259   3.14875323
   3.1781226    3.22167325   3.22771801   3.26744438   3.28510533
   3.30370778   3.31922316   3.33915059   3.35315474   3.36484526
   3.48688756   3.65759225   3.69016018   3.71841194   3.73711041
   3.74806634   3.7878149    3.83950473   3.87424731   3.93585998
   3.95514343   3.9999159    4.01159337]
E1 = -1101.7907550110845  E_coul = 437.4325960359386
Extra cycle  E= -350.235718482088  delta_E= -2.15e-11  |g|= 2.68e-06  |ddm|= 1.41e-05
    CPU time for scf_cycle     14.42 sec, wall time      1.80 sec
    CPU time for SCF     14.43 sec, wall time      1.80 sec
converged SCF energy = -350.235718482088
