 Entering Gaussian System, Link 0=g16
 Input=c8b_1.gjf
 Output=c8b_1.log
 Initial command:
 /home/soft/g16/l1.exe "/tmp/liwei01/gaussian/liaokang/Gau-45316.inp" -scrdir="/tmp/liwei01/gaussian/liaokang/"
 Entering Link 1 = /home/soft/g16/l1.exe PID=     45317.
  
 Copyright (c) 1988,1990,1992,1993,1995,1998,2003,2009,2016,
            Gaussian, Inc.  All Rights Reserved.
  
 This is part of the Gaussian(R) 16 program.  It is based on
 the Gaussian(R) 09 system (copyright 2009, Gaussian, Inc.),
 the Gaussian(R) 03 system (copyright 2003, Gaussian, Inc.),
 the Gaussian(R) 98 system (copyright 1998, Gaussian, Inc.),
 the Gaussian(R) 94 system (copyright 1995, Gaussian, Inc.),
 the Gaussian 92(TM) system (copyright 1992, Gaussian, Inc.),
 the Gaussian 90(TM) system (copyright 1990, Gaussian, Inc.),
 the Gaussian 88(TM) system (copyright 1988, Gaussian, Inc.),
 the Gaussian 86(TM) system (copyright 1986, Carnegie Mellon
 University), and the Gaussian 82(TM) system (copyright 1983,
 Carnegie Mellon University). Gaussian is a federally registered
 trademark of Gaussian, Inc.
  
 This software contains proprietary and confidential information,
 including trade secrets, belonging to Gaussian, Inc.
  
 This software is provided under written license and may be
 used, copied, transmitted, or stored only in accord with that
 written license.
  
 The following legend is applicable only to US Government
 contracts under FAR:
  
                    RESTRICTED RIGHTS LEGEND
  
 Use, reproduction and disclosure by the US Government is
 subject to restrictions as set forth in subparagraphs (a)
 and (c) of the Commercial Computer Software - Restricted
 Rights clause in FAR 52.227-19.
  
 Gaussian, Inc.
 340 Quinnipiac St., Bldg. 40, Wallingford CT 06492
  
  
 ---------------------------------------------------------------
 Warning -- This program may not be used in any manner that
 competes with the business of Gaussian, Inc. or will provide
 assistance to any competitor of Gaussian, Inc.  The licensee
 of this program is prohibited from giving any competitor of
 Gaussian, Inc. access to this program.  By using this program,
 the user acknowledges that Gaussian, Inc. is engaged in the
 business of creating and licensing software in the field of
 computational chemistry and represents and warrants to the
 licensee that it is not a competitor of Gaussian, Inc. and that
 it will not use this program in any manner prohibited above.
 ---------------------------------------------------------------
  

 Cite this work as:
 Gaussian 16, Revision A.03,
 M. J. Frisch, G. W. Trucks, H. B. Schlegel, G. E. Scuseria, 
 M. A. Robb, J. R. Cheeseman, G. Scalmani, V. Barone, 
 G. A. Petersson, H. Nakatsuji, X. Li, M. Caricato, A. V. Marenich, 
 J. Bloino, B. G. Janesko, R. Gomperts, B. Mennucci, H. P. Hratchian, 
 J. V. Ortiz, A. F. Izmaylov, J. L. Sonnenberg, D. Williams-Young, 
 F. Ding, F. Lipparini, F. Egidi, J. Goings, B. Peng, A. Petrone, 
 T. Henderson, D. Ranasinghe, V. G. Zakrzewski, J. Gao, N. Rega, 
 G. Zheng, W. Liang, M. Hada, M. Ehara, K. Toyota, R. Fukuda, 
 J. Hasegawa, M. Ishida, T. Nakajima, Y. Honda, O. Kitao, H. Nakai, 
 T. Vreven, K. Throssell, J. A. Montgomery, Jr., J. E. Peralta, 
 F. Ogliaro, M. J. Bearpark, J. J. Heyd, E. N. Brothers, K. N. Kudin, 
 V. N. Staroverov, T. A. Keith, R. Kobayashi, J. Normand, 
 K. Raghavachari, A. P. Rendell, J. C. Burant, S. S. Iyengar, 
 J. Tomasi, M. Cossi, J. M. Millam, M. Klene, C. Adamo, R. Cammi, 
 J. W. Ochterski, R. L. Martin, K. Morokuma, O. Farkas, 
 J. B. Foresman, and D. J. Fox, Gaussian, Inc., Wallingford CT, 2016.
 
 ******************************************
 Gaussian 16:  ES64L-G16RevA.03 25-Dec-2016
                12-Mar-2020 
 ******************************************
 %chk=c8b_1.chk
 %nprocs=12
 Will use up to   12 processors via shared memory.
 %mem=1gb
 -----------------------------------
 #p hf/6-31g** pop=npa charge nosymm
 -----------------------------------
 1/18=10,28=-2,38=1,125=101,172=1/1;
 2/12=2,15=1,17=6,18=5,40=1/2;
 3/5=1,6=6,7=101,11=9,25=1,30=1/1,2,3;
 4//1;
 5/5=2,38=5/2;
 6/7=2,8=2,9=2,10=2,28=1,40=-1/1,7;
 99/5=1,9=1/99;
 Leave Link    1 at Thu Mar 12 14:21:44 2020, MaxMem=   134217728 cpu:               1.4 elap:               0.1
 (Enter /home/soft/g16/l101.exe)
 --------------
 Atom number=18
 --------------
 Symbolic Z-matrix:
 Charge =  0 Multiplicity = 1
 c                    -7.24124   0.10812  -0.5228 
 h                    -7.548     1.1326   -0.48747 
 h                    -7.63795  -0.35282  -1.40318 
 o                    -7.72915  -0.57574   0.63443 
 h                    -8.68784  -0.52922   0.65315 
 c                    -5.70334   0.0335   -0.55283 
 h                    -5.30664   0.49444   0.32755 
 c                    -5.17791   0.76996  -1.79908 
 h                    -5.48467   1.79444  -1.76374 
 h                    -5.57461   0.30903  -2.67945 
 f                    -5.31631  -1.25906  -0.59741 
 c                    -3.11457   1.43181  -3.07535 
 h                    -3.42133   2.45628  -3.04002 
 c                    -3.64001   0.69535  -1.8291 
 h                    -3.33325  -0.32913  -1.86444 
 h                    -3.2433    1.15628  -0.94872 
 h                    -3.51128   0.97087  -3.95573 
 h                    -2.04603   1.37996  -3.09621 
 
 ITRead=  0  0  0  0  0  0  0  0  0  0  0  0  0  0  0  0  0  0
 MicOpt= -1 -1 -1 -1 -1 -1 -1 -1 -1 -1 -1 -1 -1 -1 -1 -1 -1 -1
 NAtoms=     18 NQM=       18 NQMF=       0 NMMI=      0 NMMIF=      0
                NMic=       0 NMicF=      0.
                    Isotopes and Nuclear Properties:
 (Nuclear quadrupole moments (NQMom) in fm**2, nuclear magnetic moments (NMagM)
  in nuclear magnetons)

  Atom         1           2           3           4           5           6           7           8           9          10
 IAtWgt=          12           1           1          16           1          12           1          12           1           1
 AtmWgt=  12.0000000   1.0078250   1.0078250  15.9949146   1.0078250  12.0000000   1.0078250  12.0000000   1.0078250   1.0078250
 NucSpn=           0           1           1           0           1           0           1           0           1           1
 AtZEff=  -0.0000000  -0.0000000  -0.0000000  -0.0000000  -0.0000000  -0.0000000  -0.0000000  -0.0000000  -0.0000000  -0.0000000
 NQMom=    0.0000000   0.0000000   0.0000000   0.0000000   0.0000000   0.0000000   0.0000000   0.0000000   0.0000000   0.0000000
 NMagM=    0.0000000   2.7928460   2.7928460   0.0000000   2.7928460   0.0000000   2.7928460   0.0000000   2.7928460   2.7928460
 AtZNuc=   6.0000000   1.0000000   1.0000000   8.0000000   1.0000000   6.0000000   1.0000000   6.0000000   1.0000000   1.0000000

  Atom        11          12          13          14          15          16          17          18
 IAtWgt=          19          12           1          12           1           1           1           1
 AtmWgt=  18.9984033  12.0000000   1.0078250  12.0000000   1.0078250   1.0078250   1.0078250   1.0078250
 NucSpn=           1           0           1           0           1           1           1           1
 AtZEff=  -0.0000000  -0.0000000  -0.0000000  -0.0000000  -0.0000000  -0.0000000  -0.0000000  -0.0000000
 NQMom=    0.0000000   0.0000000   0.0000000   0.0000000   0.0000000   0.0000000   0.0000000   0.0000000
 NMagM=    2.6288670   0.0000000   2.7928460   0.0000000   2.7928460   2.7928460   2.7928460   2.7928460
 AtZNuc=   9.0000000   6.0000000   1.0000000   6.0000000   1.0000000   1.0000000   1.0000000   1.0000000
 Background charge distribution read from input stream:
 Point Charges:
 XYZ=   -1.5767    1.3572   -3.1054 Q=   -0.1977 A=    0.0000 R=    0.0000 C=    0.0000
 XYZ=   -1.2699    0.3327   -3.1407 Q=    0.2076 A=    0.0000 R=    0.0000 C=    0.0000
 XYZ=   -1.1800    1.8181   -2.2250 Q=    0.1795 A=    0.0000 R=    0.0000 C=    0.0000
 XYZ=   -1.0751    2.0602   -4.2950 Q=   -0.9286 A=    0.0000 R=    0.0000 C=    0.0000
 XYZ=   -1.3618    3.0176   -4.2620 Q=    0.3729 A=    0.0000 R=    0.0000 C=    0.0000
 XYZ=   -0.0765    2.0117   -4.3145 Q=    0.3774 A=    0.0000 R=    0.0000 C=    0.0000
 Pt Chg Charge=              0.0111 electrons
 Pt Chg Dipole moment (Debye):
    X=              1.4313    Y=              0.4728    Z=              1.6010  Tot=              2.1989
 Pt Chg Quadrupole moment (Debye-Ang):
   XX=             -1.3756   YY=              5.9254   ZZ=            -11.0533
   XY=              2.0016   XZ=             -8.0113   YZ=              0.1707
 Pt Chg Traceless Quadrupole moment (Debye-Ang):
   XX=              0.7923   YY=              8.0932   ZZ=             -8.8855
   XY=              2.0016   XZ=             -8.0113   YZ=              0.1707
 Pt Chg Octapole moment (Debye-Ang**2):
  XXX=              1.2820  YYY=             27.8162  ZZZ=             57.1845  XYY=             -3.1627
  XXY=             -1.0635  XXZ=              7.5500  XZZ=             38.4848  YZZ=             -4.8470
  YYZ=            -21.1092  XYZ=            -10.7313
 Pt Chg Hexadecapole moment (Debye-Ang**3):
 XXXX=             -1.4026 YYYY=            104.0631 ZZZZ=           -268.8346 XXXY=             -0.4350
 XXXZ=             -6.5170 YYYX=            -28.6359 YYYZ=           -110.1907 ZZZX=           -174.3715
 ZZZY=             27.7900 XXYY=              8.2040 XXZZ=            -35.5317 YYZZ=             81.9232
 XXYZ=              6.2218 YYXZ=              9.0204 ZZXY=             49.6415
 Leave Link  101 at Thu Mar 12 14:21:44 2020, MaxMem=   134217728 cpu:               1.5 elap:               0.2
 (Enter /home/soft/g16/l202.exe)
                          Input orientation:                          
 ---------------------------------------------------------------------
 Center     Atomic      Atomic             Coordinates (Angstroms)
 Number     Number       Type             X           Y           Z
 ---------------------------------------------------------------------
      1          6           0       -7.241243    0.108120   -0.522803
      2          1           0       -7.548001    1.132596   -0.487467
      3          1           0       -7.637948   -0.352816   -1.403180
      4          8           0       -7.729149   -0.575736    0.634430
      5          1           0       -8.687839   -0.529222    0.653146
      6          6           0       -5.703345    0.033503   -0.552826
      7          1           0       -5.306640    0.494438    0.327550
      8          6           0       -5.177908    0.769963   -1.799078
      9          1           0       -5.484666    1.794439   -1.763742
     10          1           0       -5.574613    0.309028   -2.679455
     11          9           0       -5.316314   -1.259060   -0.597409
     12          6           0       -3.114573    1.431807   -3.075353
     13          1           0       -3.421331    2.456283   -3.040017
     14          6           0       -3.640010    0.695347   -1.829101
     15          1           0       -3.333251   -0.329129   -1.864437
     16          1           0       -3.243304    1.156282   -0.948724
     17          1           0       -3.511278    0.970872   -3.955729
     18          1           0       -2.046033    1.379963   -3.096213
 ---------------------------------------------------------------------
                    Distance matrix (angstroms):
                    1          2          3          4          5
     1  C    0.000000
     2  H    1.070000   0.000000
     3  H    1.070000   1.747303   0.000000
     4  O    1.430000   2.051796   2.051796   0.000000
     5  H    1.970203   2.315570   2.315570   0.960000   0.000000
     6  C    1.540000   2.148263   2.148263   2.425826   3.267757
     7  H    2.148263   2.468846   3.024610   2.666083   3.547732
     8  C    2.514809   2.732978   2.732978   3.773818   4.474472
     9  H    2.732978   2.514809   3.062243   4.050514   4.636924
    10  H    2.732978   3.062243   2.514809   4.050514   4.636924
    11  F    2.362224   3.273001   2.619262   2.793946   3.669296
    12  C    5.029619   5.142175   5.142175   6.251962   6.986318
    13  H    5.142175   5.029619   5.324484   6.422772   7.091460
    14  C    3.875582   4.154945   4.154945   4.940213   5.756883
    15  H    4.154945   4.668704   4.329403   5.062516   5.920293
    16  H    4.154945   4.329403   4.668704   5.062516   5.920293
    17  H    5.142175   5.324484   5.029619   6.422772   7.091460
    18  H    5.935506   6.094128   6.094128   7.073915   7.862332
                    6          7          8          9         10
     6  C    0.000000
     7  H    1.070000   0.000000
     8  C    1.540000   2.148263   0.000000
     9  H    2.148263   2.468846   1.070000   0.000000
    10  H    2.148263   3.024610   1.070000   1.747303   0.000000
    11  F    1.350000   1.982524   2.362224   3.273001   2.619262
    12  C    3.875582   4.154945   2.514809   2.732978   2.732978
    13  H    4.154945   4.329403   2.732978   2.514809   3.062243
    14  C    2.514809   2.732978   1.540000   2.148263   2.148263
    15  H    2.732978   3.062243   2.148263   3.024610   2.468846
    16  H    2.732978   2.514809   2.148263   2.468846   3.024610
    17  H    4.154945   4.668704   2.732978   3.062243   2.514809
    18  H    4.653783   4.810184   3.444314   3.710993   3.710993
                   11         12         13         14         15
    11  F    0.000000
    12  C    4.269500   0.000000
    13  H    4.833329   1.070000   0.000000
    14  C    2.854254   1.540000   2.148263   0.000000
    15  H    2.530349   2.148263   3.024610   1.070000   0.000000
    16  H    3.202291   2.148263   2.468846   1.070000   1.747303
    17  H    4.416907   1.070000   1.747303   2.148263   2.468846
    18  H    4.889090   1.070000   1.747303   2.148263   2.468846
                   16         17         18
    16  H    0.000000
    17  H    3.024610   0.000000
    18  H    2.468846   1.747303   0.000000
 Symmetry turned off by external request.
 Stoichiometry    C5H11FO
 Framework group  C1[X(C5H11FO)]
 Deg. of freedom    48
 Full point group                 C1      NOp   1
 Rotational constants (GHZ):           7.0196802           1.1204174           1.0196375
 Leave Link  202 at Thu Mar 12 14:21:44 2020, MaxMem=   134217728 cpu:               0.1 elap:               0.0
 (Enter /home/soft/g16/l301.exe)
 Standard basis: 6-31G(d,p) (6D, 7F)
 Ernie: Thresh=  0.10000D-02 Tol=  0.10000D-05 Strict=F.
   160 basis functions,   273 primitive gaussians,   160 cartesian basis functions
    29 alpha electrons       29 beta electrons
       nuclear repulsion energy       326.4462411990 Hartrees.
 IExCor=    0 DFT=F Ex=HF Corr=None ExCW=0 ScaHFX=  1.000000
 ScaDFX=  1.000000  1.000000  1.000000  1.000000 ScalE2=  1.000000  1.000000
 IRadAn=      5 IRanWt=     -1 IRanGd=            0 ICorTp=0 IEmpDi=  4
 NAtoms=   18 NActive=   18 NUniq=   18 SFac= 1.00D+00 NAtFMM=   60 NAOKFM=F Big=F
 Integral buffers will be    131072 words long.
 Raffenetti 1 integral format.
 Two-electron integral symmetry is turned off.
 Background charge distribution read from rwf.
 PtFMM for NChg=        24 BoxLen=    40.00 Levels= 1 LMax=20 SMax=    16.3 ICnFMM=     1:
 Self energy of the charges =        -0.3516698931 a.u.
 MM   energy of the charges =         0.0000000000 a.u.
 Nuclei-charges interaction =        -0.5039288286 a.u.
 Nuclear repulsion after external point charges =      325.5906424773 Hartrees.
 Leave Link  301 at Thu Mar 12 14:21:44 2020, MaxMem=   134217728 cpu:               1.0 elap:               0.1
 (Enter /home/soft/g16/l302.exe)
 NPDir=0 NMtPBC=     1 NCelOv=     1 NCel=       1 NClECP=     1 NCelD=      1
         NCelK=      1 NCelE2=     1 NClLst=     1 CellRange=     0.0.
 One-electron integrals computed using PRISM.
 NBasis=   160 RedAO= T EigKep=  2.55D-03  NBF=   160
 NBsUse=   160 1.00D-06 EigRej= -1.00D+00 NBFU=   160
 Leave Link  302 at Thu Mar 12 14:21:44 2020, MaxMem=   134217728 cpu:               1.5 elap:               0.2
 (Enter /home/soft/g16/l303.exe)
 DipDrv:  MaxL=1.
 Leave Link  303 at Thu Mar 12 14:21:44 2020, MaxMem=   134217728 cpu:               0.4 elap:               0.1
 (Enter /home/soft/g16/l401.exe)
 ExpMin= 1.61D-01 ExpMax= 7.00D+03 ExpMxC= 1.05D+03 IAcc=3 IRadAn=         5 AccDes= 0.00D+00
 Harris functional with IExCor=  205 and IRadAn=       5 diagonalized for initial guess.
 HarFok:  IExCor=  205 AccDes= 0.00D+00 IRadAn=         5 IDoV= 1 UseB2=F ITyADJ=14
 ICtDFT=  3500011 ScaDFX=  1.000000  1.000000  1.000000  1.000000
 FoFCou: FMM=F IPFlag=           0 FMFlag=      100000 FMFlg1=           0
         NFxFlg=           0 DoJE=T BraDBF=F KetDBF=T FulRan=T
         wScrn=  0.000000 ICntrl=       500 IOpCl=  0 I1Cent=   200000004 NGrid=           0
         NMat0=    1 NMatS0=      1 NMatT0=    0 NMatD0=    1 NMtDS0=    0 NMtDT0=    0
 Symmetry not used in FoFCou.
 Harris En= -370.982288563523    
 JPrj=0 DoOrth=F DoCkMO=F.
 Leave Link  401 at Thu Mar 12 14:21:45 2020, MaxMem=   134217728 cpu:               5.0 elap:               0.5
 (Enter /home/soft/g16/l502.exe)
 Two-electron integral symmetry not used.
 Closed shell SCF:
 Using DIIS extrapolation, IDIIS=  1040.
 NGot=   134217728 LenX=   134163078 LenY=   134137037
 Requested convergence on RMS density matrix=1.00D-08 within 128 cycles.
 Requested convergence on MAX density matrix=1.00D-06.
 Requested convergence on             energy=1.00D-06.
 No special actions if energy rises.
 Fock matrices will be formed incrementally for  20 cycles.
 Integral accuracy reduced to 1.0D-05 until final iterations.

 Cycle   1  Pass 0  IDiag  1:
 FoFJK:  IHMeth= 1 ICntrl=       0 DoSepK=F KAlg= 0 I1Cent=           0 FoldK=F
 IRaf= 920000000 NMat=       1 IRICut=       1 DoRegI=T DoRafI=F ISym2E= 0 IDoP0=0 IntGTp=1.
 FoFCou: FMM=F IPFlag=           0 FMFlag=      100000 FMFlg1=           0
         NFxFlg=           0 DoJE=F BraDBF=F KetDBF=F FulRan=T
         wScrn=  0.000000 ICntrl=         0 IOpCl=  0 I1Cent=           0 NGrid=           0
         NMat0=    1 NMatS0=      1 NMatT0=    0 NMatD0=    1 NMtDS0=    0 NMtDT0=    0
 Symmetry not used in FoFCou.
 E= -370.115817144958    
 DIIS: error= 4.62D-02 at cycle   1 NSaved=   1.
 NSaved= 1 IEnMin= 1 EnMin= -370.115817144958     IErMin= 1 ErrMin= 4.62D-02
 ErrMax= 4.62D-02  0.00D+00 EMaxC= 1.00D-01 BMatC= 5.30D-01 BMatP= 5.30D-01
 IDIUse=3 WtCom= 5.38D-01 WtEn= 4.62D-01
 Coeff-Com:  0.100D+01
 Coeff-En:   0.100D+01
 Coeff:      0.100D+01
 Gap=     0.708 Goal=   None    Shift=    0.000
 GapD=    0.708 DampG=2.000 DampE=0.500 DampFc=1.0000 IDamp=-1.
 RMSDP=4.49D-03 MaxDP=1.25D-01              OVMax= 1.29D-01

 Cycle   2  Pass 0  IDiag  1:
 RMSU=  4.39D-03    CP:  9.62D-01
 E= -370.417510993210     Delta-E=       -0.301693848252 Rises=F Damp=F
 DIIS: error= 1.28D-02 at cycle   2 NSaved=   2.
 NSaved= 2 IEnMin= 2 EnMin= -370.417510993210     IErMin= 2 ErrMin= 1.28D-02
 ErrMax= 1.28D-02  0.00D+00 EMaxC= 1.00D-01 BMatC= 6.18D-02 BMatP= 5.30D-01
 IDIUse=3 WtCom= 8.72D-01 WtEn= 1.28D-01
 Coeff-Com:  0.188D+00 0.812D+00
 Coeff-En:   0.000D+00 0.100D+01
 Coeff:      0.164D+00 0.836D+00
 Gap=     0.681 Goal=   None    Shift=    0.000
 RMSDP=1.53D-03 MaxDP=3.73D-02 DE=-3.02D-01 OVMax= 4.16D-02

 Cycle   3  Pass 0  IDiag  1:
 RMSU=  1.03D-03    CP:  9.72D-01  7.49D-01
 E= -370.466456900873     Delta-E=       -0.048945907663 Rises=F Damp=F
 DIIS: error= 3.62D-03 at cycle   3 NSaved=   3.
 NSaved= 3 IEnMin= 3 EnMin= -370.466456900873     IErMin= 3 ErrMin= 3.62D-03
 ErrMax= 3.62D-03  0.00D+00 EMaxC= 1.00D-01 BMatC= 3.42D-03 BMatP= 6.18D-02
 IDIUse=3 WtCom= 9.64D-01 WtEn= 3.62D-02
 Coeff-Com: -0.220D-01 0.146D+00 0.876D+00
 Coeff-En:   0.000D+00 0.000D+00 0.100D+01
 Coeff:     -0.212D-01 0.140D+00 0.881D+00
 Gap=     0.648 Goal=   None    Shift=    0.000
 RMSDP=3.03D-04 MaxDP=1.13D-02 DE=-4.89D-02 OVMax= 8.86D-03

 Cycle   4  Pass 0  IDiag  1:
 RMSU=  1.78D-04    CP:  9.70D-01  8.03D-01  9.55D-01
 E= -370.469453882647     Delta-E=       -0.002996981774 Rises=F Damp=F
 DIIS: error= 6.37D-04 at cycle   4 NSaved=   4.
 NSaved= 4 IEnMin= 4 EnMin= -370.469453882647     IErMin= 4 ErrMin= 6.37D-04
 ErrMax= 6.37D-04  0.00D+00 EMaxC= 1.00D-01 BMatC= 1.37D-04 BMatP= 3.42D-03
 IDIUse=3 WtCom= 9.94D-01 WtEn= 6.37D-03
 Coeff-Com: -0.741D-02 0.152D-01 0.199D+00 0.793D+00
 Coeff-En:   0.000D+00 0.000D+00 0.000D+00 0.100D+01
 Coeff:     -0.736D-02 0.151D-01 0.198D+00 0.795D+00
 Gap=     0.645 Goal=   None    Shift=    0.000
 RMSDP=7.20D-05 MaxDP=2.61D-03 DE=-3.00D-03 OVMax= 2.01D-03

 Cycle   5  Pass 0  IDiag  1:
 RMSU=  5.67D-05    CP:  9.70D-01  8.06D-01  9.95D-01  9.33D-01
 E= -370.469575978217     Delta-E=       -0.000122095570 Rises=F Damp=F
 DIIS: error= 1.47D-04 at cycle   5 NSaved=   5.
 NSaved= 5 IEnMin= 5 EnMin= -370.469575978217     IErMin= 5 ErrMin= 1.47D-04
 ErrMax= 1.47D-04  0.00D+00 EMaxC= 1.00D-01 BMatC= 9.81D-06 BMatP= 1.37D-04
 IDIUse=3 WtCom= 9.99D-01 WtEn= 1.47D-03
 Coeff-Com:  0.204D-02-0.160D-01-0.870D-01 0.338D-01 0.107D+01
 Coeff-En:   0.000D+00 0.000D+00 0.000D+00 0.000D+00 0.100D+01
 Coeff:      0.204D-02-0.160D-01-0.869D-01 0.338D-01 0.107D+01
 Gap=     0.646 Goal=   None    Shift=    0.000
 RMSDP=3.28D-05 MaxDP=7.64D-04 DE=-1.22D-04 OVMax= 8.80D-04

 Cycle   6  Pass 0  IDiag  1:
 RMSU=  1.35D-05    CP:  9.70D-01  8.06D-01  1.01D+00  1.06D+00  1.20D+00
 E= -370.469590057186     Delta-E=       -0.000014078969 Rises=F Damp=F
 DIIS: error= 2.79D-05 at cycle   6 NSaved=   6.
 NSaved= 6 IEnMin= 6 EnMin= -370.469590057186     IErMin= 6 ErrMin= 2.79D-05
 ErrMax= 2.79D-05  0.00D+00 EMaxC= 1.00D-01 BMatC= 3.27D-07 BMatP= 9.81D-06
 IDIUse=1 WtCom= 1.00D+00 WtEn= 0.00D+00
 Coeff-Com:  0.564D-03-0.307D-02-0.192D-01-0.267D-01 0.135D+00 0.913D+00
 Coeff:      0.564D-03-0.307D-02-0.192D-01-0.267D-01 0.135D+00 0.913D+00
 Gap=     0.646 Goal=   None    Shift=    0.000
 RMSDP=6.24D-06 MaxDP=1.27D-04 DE=-1.41D-05 OVMax= 1.58D-04

 Initial convergence to 1.0D-05 achieved.  Increase integral accuracy.
 Cycle   7  Pass 1  IDiag  1:
 E= -370.469592338549     Delta-E=       -0.000002281363 Rises=F Damp=F
 DIIS: error= 9.64D-06 at cycle   1 NSaved=   1.
 NSaved= 1 IEnMin= 1 EnMin= -370.469592338549     IErMin= 1 ErrMin= 9.64D-06
 ErrMax= 9.64D-06  0.00D+00 EMaxC= 1.00D-01 BMatC= 3.30D-08 BMatP= 3.30D-08
 IDIUse=1 WtCom= 1.00D+00 WtEn= 0.00D+00
 Coeff-Com:  0.100D+01
 Coeff:      0.100D+01
 Gap=     0.647 Goal=   None    Shift=    0.000
 RMSDP=6.24D-06 MaxDP=1.27D-04 DE=-2.28D-06 OVMax= 4.63D-05

 Cycle   8  Pass 1  IDiag  1:
 RMSU=  1.91D-06    CP:  1.00D+00
 E= -370.469592375784     Delta-E=       -0.000000037234 Rises=F Damp=F
 DIIS: error= 3.33D-06 at cycle   2 NSaved=   2.
 NSaved= 2 IEnMin= 2 EnMin= -370.469592375784     IErMin= 2 ErrMin= 3.33D-06
 ErrMax= 3.33D-06  0.00D+00 EMaxC= 1.00D-01 BMatC= 5.95D-09 BMatP= 3.30D-08
 IDIUse=1 WtCom= 1.00D+00 WtEn= 0.00D+00
 Coeff-Com:  0.201D+00 0.799D+00
 Coeff:      0.201D+00 0.799D+00
 Gap=     0.647 Goal=   None    Shift=    0.000
 RMSDP=5.61D-07 MaxDP=1.21D-05 DE=-3.72D-08 OVMax= 1.58D-05

 Cycle   9  Pass 1  IDiag  1:
 RMSU=  5.21D-07    CP:  1.00D+00  1.11D+00
 E= -370.469592382472     Delta-E=       -0.000000006689 Rises=F Damp=F
 DIIS: error= 2.13D-06 at cycle   3 NSaved=   3.
 NSaved= 3 IEnMin= 3 EnMin= -370.469592382472     IErMin= 3 ErrMin= 2.13D-06
 ErrMax= 2.13D-06  0.00D+00 EMaxC= 1.00D-01 BMatC= 7.72D-10 BMatP= 5.95D-09
 IDIUse=1 WtCom= 1.00D+00 WtEn= 0.00D+00
 Coeff-Com: -0.136D+00-0.144D-01 0.115D+01
 Coeff:     -0.136D+00-0.144D-01 0.115D+01
 Gap=     0.647 Goal=   None    Shift=    0.000
 RMSDP=4.14D-07 MaxDP=9.97D-06 DE=-6.69D-09 OVMax= 1.19D-05

 Cycle  10  Pass 1  IDiag  1:
 RMSU=  1.76D-07    CP:  1.00D+00  1.28D+00  1.30D+00
 E= -370.469592384126     Delta-E=       -0.000000001653 Rises=F Damp=F
 DIIS: error= 4.58D-07 at cycle   4 NSaved=   4.
 NSaved= 4 IEnMin= 4 EnMin= -370.469592384126     IErMin= 4 ErrMin= 4.58D-07
 ErrMax= 4.58D-07  0.00D+00 EMaxC= 1.00D-01 BMatC= 4.97D-11 BMatP= 7.72D-10
 IDIUse=1 WtCom= 1.00D+00 WtEn= 0.00D+00
 Coeff-Com: -0.158D-01-0.645D-01-0.620D-02 0.109D+01
 Coeff:     -0.158D-01-0.645D-01-0.620D-02 0.109D+01
 Gap=     0.647 Goal=   None    Shift=    0.000
 RMSDP=1.07D-07 MaxDP=2.35D-06 DE=-1.65D-09 OVMax= 3.36D-06

 Cycle  11  Pass 1  IDiag  1:
 RMSU=  4.08D-08    CP:  1.00D+00  1.32D+00  1.40D+00  1.27D+00
 E= -370.469592384217     Delta-E=       -0.000000000091 Rises=F Damp=F
 DIIS: error= 1.60D-07 at cycle   5 NSaved=   5.
 NSaved= 5 IEnMin= 5 EnMin= -370.469592384217     IErMin= 5 ErrMin= 1.60D-07
 ErrMax= 1.60D-07  0.00D+00 EMaxC= 1.00D-01 BMatC= 6.35D-12 BMatP= 4.97D-11
 IDIUse=1 WtCom= 1.00D+00 WtEn= 0.00D+00
 Coeff-Com:  0.759D-02-0.144D-01-0.995D-01 0.298D+00 0.808D+00
 Coeff:      0.759D-02-0.144D-01-0.995D-01 0.298D+00 0.808D+00
 Gap=     0.647 Goal=   None    Shift=    0.000
 RMSDP=2.10D-08 MaxDP=5.03D-07 DE=-9.12D-11 OVMax= 6.89D-07

 Cycle  12  Pass 1  IDiag  1:
 RMSU=  1.38D-08    CP:  1.00D+00  1.32D+00  1.42D+00  1.34D+00  9.98D-01
 E= -370.469592384230     Delta-E=       -0.000000000013 Rises=F Damp=F
 DIIS: error= 3.21D-08 at cycle   6 NSaved=   6.
 NSaved= 6 IEnMin= 6 EnMin= -370.469592384230     IErMin= 6 ErrMin= 3.21D-08
 ErrMax= 3.21D-08  0.00D+00 EMaxC= 1.00D-01 BMatC= 2.48D-13 BMatP= 6.35D-12
 IDIUse=1 WtCom= 1.00D+00 WtEn= 0.00D+00
 Coeff-Com: -0.126D-02 0.840D-02 0.290D-01-0.155D+00-0.252D+00 0.137D+01
 Coeff:     -0.126D-02 0.840D-02 0.290D-01-0.155D+00-0.252D+00 0.137D+01
 Gap=     0.647 Goal=   None    Shift=    0.000
 RMSDP=8.94D-09 MaxDP=2.00D-07 DE=-1.32D-11 OVMax= 2.49D-07

 SCF Done:  E(RHF) =  -370.469592384     A.U. after   12 cycles
            NFock= 12  Conv=0.89D-08     -V/T= 2.0020
 KE= 3.697213802957D+02 PE=-1.524132703700D+03 EE= 4.583510885423D+02
 Leave Link  502 at Thu Mar 12 14:21:47 2020, MaxMem=   134217728 cpu:              22.0 elap:               2.0
 (Enter /home/soft/g16/l601.exe)
 Copying SCF densities to generalized density rwf, IOpCl= 0 IROHF=0.

 **********************************************************************

            Population analysis using the SCF density.

 **********************************************************************

 Alpha  occ. eigenvalues --  -26.26663 -20.55355 -11.29510 -11.27002 -11.21175
 Alpha  occ. eigenvalues --  -11.20279 -11.16974  -1.58576  -1.34653  -1.07511
 Alpha  occ. eigenvalues --   -1.00235  -0.90933  -0.82676  -0.79692  -0.71294
 Alpha  occ. eigenvalues --   -0.69682  -0.65675  -0.64806  -0.61962  -0.60858
 Alpha  occ. eigenvalues --   -0.55714  -0.53630  -0.52652  -0.50599  -0.47531
 Alpha  occ. eigenvalues --   -0.47255  -0.46113  -0.44422  -0.42030
 Alpha virt. eigenvalues --    0.22622   0.24100   0.26743   0.27454   0.30585
 Alpha virt. eigenvalues --    0.32538   0.33664   0.34924   0.35004   0.36595
 Alpha virt. eigenvalues --    0.37273   0.38071   0.39817   0.43136   0.45991
 Alpha virt. eigenvalues --    0.47059   0.49391   0.71777   0.73854   0.75609
 Alpha virt. eigenvalues --    0.76918   0.79591   0.81480   0.84131   0.86108
 Alpha virt. eigenvalues --    0.90060   0.93806   0.95375   0.96717   1.00191
 Alpha virt. eigenvalues --    1.05254   1.06400   1.10474   1.13249   1.14700
 Alpha virt. eigenvalues --    1.15067   1.17315   1.18260   1.20043   1.20611
 Alpha virt. eigenvalues --    1.22279   1.23148   1.24406   1.25835   1.28805
 Alpha virt. eigenvalues --    1.32799   1.42691   1.45611   1.52128   1.55481
 Alpha virt. eigenvalues --    1.60224   1.60708   1.68181   1.69036   1.71653
 Alpha virt. eigenvalues --    1.72161   1.81236   1.83246   1.86344   1.89793
 Alpha virt. eigenvalues --    1.92038   1.98018   1.99295   2.02878   2.06942
 Alpha virt. eigenvalues --    2.11835   2.13863   2.17836   2.20606   2.25910
 Alpha virt. eigenvalues --    2.27403   2.29024   2.32003   2.33632   2.38300
 Alpha virt. eigenvalues --    2.39570   2.42028   2.43808   2.44433   2.46738
 Alpha virt. eigenvalues --    2.51238   2.51704   2.54006   2.58269   2.60880
 Alpha virt. eigenvalues --    2.62725   2.64124   2.65546   2.68649   2.70366
 Alpha virt. eigenvalues --    2.75165   2.77343   2.84185   2.86998   2.90588
 Alpha virt. eigenvalues --    2.97604   3.00086   3.02320   3.04278   3.07409
 Alpha virt. eigenvalues --    3.09189   3.11524   3.15544   3.17849   3.21811
 Alpha virt. eigenvalues --    3.24929   3.26045   3.27852   3.32686   3.33411
 Alpha virt. eigenvalues --    3.34747   3.38164   3.51874   3.66113   3.68776
 Alpha virt. eigenvalues --    3.71126   3.74429   3.79468   3.82147   3.86712
 Alpha virt. eigenvalues --    3.92237   3.95632   3.98993   4.01308   4.38298
 Alpha virt. eigenvalues --    4.65695   4.81342   4.94217   5.04159   5.06036
 Alpha virt. eigenvalues --    5.18982
          Condensed to atoms (all electrons):
               1          2          3          4          5          6
     1  C    4.696023   0.394433   0.401122   0.209540  -0.023681   0.375219
     2  H    0.394433   0.636646  -0.044587  -0.038266  -0.004328  -0.044024
     3  H    0.401122  -0.044587   0.612046  -0.039014  -0.003740  -0.037466
     4  O    0.209540  -0.038266  -0.039014   8.262141   0.307823  -0.045544
     5  H   -0.023681  -0.004328  -0.003740   0.307823   0.380509   0.005409
     6  C    0.375219  -0.044024  -0.037466  -0.045544   0.005409   4.611622
     7  H   -0.050836  -0.001140   0.005431   0.001504  -0.000215   0.406569
     8  C   -0.064605   0.002151  -0.004214   0.002267  -0.000196   0.340978
     9  H   -0.001682   0.000324   0.000496  -0.000045  -0.000001  -0.036611
    10  H   -0.006906   0.000554   0.002832  -0.000032  -0.000003  -0.034371
    11  F   -0.031455   0.002189  -0.000176   0.002534  -0.000080   0.199159
    12  C   -0.000081   0.000001  -0.000000   0.000000  -0.000000   0.004211
    13  H   -0.000006  -0.000001   0.000001   0.000000  -0.000000  -0.000071
    14  C    0.005123  -0.000269  -0.000192  -0.000042   0.000003  -0.045994
    15  H    0.000085  -0.000013   0.000019  -0.000001   0.000000  -0.005555
    16  H   -0.000063   0.000020  -0.000004  -0.000000  -0.000000  -0.003705
    17  H    0.000002   0.000000  -0.000003   0.000000   0.000000  -0.000079
    18  H    0.000001   0.000000   0.000000  -0.000000   0.000000  -0.000131
               7          8          9         10         11         12
     1  C   -0.050836  -0.064605  -0.001682  -0.006906  -0.031455  -0.000081
     2  H   -0.001140   0.002151   0.000324   0.000554   0.002189   0.000001
     3  H    0.005431  -0.004214   0.000496   0.002832  -0.000176  -0.000000
     4  O    0.001504   0.002267  -0.000045  -0.000032   0.002534   0.000000
     5  H   -0.000215  -0.000196  -0.000001  -0.000003  -0.000080  -0.000000
     6  C    0.406569   0.340978  -0.036611  -0.034371   0.199159   0.004211
     7  H    0.608194  -0.052787   0.001438   0.004877  -0.029482  -0.000133
     8  C   -0.052787   5.110942   0.390609   0.402946  -0.034562  -0.058299
     9  H    0.001438   0.390609   0.597061  -0.026937   0.002149  -0.003663
    10  H    0.004877   0.402946  -0.026937   0.570782   0.000633  -0.003493
    11  F   -0.029482  -0.034562   0.002149   0.000633   9.291848   0.000080
    12  C   -0.000133  -0.058299  -0.003663  -0.003493   0.000080   4.975191
    13  H    0.000014  -0.005873   0.002506   0.000150  -0.000002   0.400089
    14  C   -0.007305   0.317346  -0.038255  -0.040313   0.000229   0.308106
    15  H    0.000701  -0.042961   0.004737  -0.002414   0.005381  -0.040974
    16  H    0.002305  -0.045893  -0.002965   0.004659  -0.000083  -0.040967
    17  H   -0.000003  -0.005430   0.000109   0.002674   0.000002   0.412363
    18  H   -0.000000   0.005177  -0.000037  -0.000044   0.000000   0.421702
              13         14         15         16         17         18
     1  C   -0.000006   0.005123   0.000085  -0.000063   0.000002   0.000001
     2  H   -0.000001  -0.000269  -0.000013   0.000020   0.000000   0.000000
     3  H    0.000001  -0.000192   0.000019  -0.000004  -0.000003   0.000000
     4  O    0.000000  -0.000042  -0.000001  -0.000000   0.000000  -0.000000
     5  H   -0.000000   0.000003   0.000000  -0.000000   0.000000   0.000000
     6  C   -0.000071  -0.045994  -0.005555  -0.003705  -0.000079  -0.000131
     7  H    0.000014  -0.007305   0.000701   0.002305  -0.000003  -0.000000
     8  C   -0.005873   0.317346  -0.042961  -0.045893  -0.005430   0.005177
     9  H    0.002506  -0.038255   0.004737  -0.002965   0.000109  -0.000037
    10  H    0.000150  -0.040313  -0.002414   0.004659   0.002674  -0.000044
    11  F   -0.000002   0.000229   0.005381  -0.000083   0.000002   0.000000
    12  C    0.400089   0.308106  -0.040974  -0.040967   0.412363   0.421702
    13  H    0.625815  -0.044337   0.004864  -0.003672  -0.031069  -0.022095
    14  C   -0.044337   5.060159   0.414454   0.406042  -0.046431  -0.046722
    15  H    0.004864   0.414454   0.579668  -0.032518  -0.003639  -0.002610
    16  H   -0.003672   0.406042  -0.032518   0.624393   0.004955  -0.002490
    17  H   -0.031069  -0.046431  -0.003639   0.004955   0.580001  -0.018159
    18  H   -0.022095  -0.046722  -0.002610  -0.002490  -0.018159   0.406462
 Mulliken charges:
               1
     1  C    0.097765
     2  H    0.096308
     3  H    0.107449
     4  O   -0.662863
     5  H    0.338500
     6  C    0.310385
     7  H    0.110870
     8  C   -0.257596
     9  H    0.110767
    10  H    0.124408
    11  F   -0.408363
    12  C   -0.374132
    13  H    0.073687
    14  C   -0.241601
    15  H    0.120776
    16  H    0.089987
    17  H    0.104706
    18  H    0.258947
 Sum of Mulliken charges =  -0.00000
 Mulliken charges with hydrogens summed into heavy atoms:
               1
     1  C    0.301522
     4  O   -0.324362
     6  C    0.421255
     8  C   -0.022421
    11  F   -0.408363
    12  C    0.063208
    14  C   -0.030838
 Electronic spatial extent (au):  <R**2>=           7511.7148
 Charge=             -0.0000 electrons
 Dipole moment (field-independent basis, Debye):
    X=             -0.5832    Y=              2.5925    Z=             -1.9336  Tot=              3.2863
 Quadrupole moment (field-independent basis, Debye-Ang):
   XX=            -25.7115   YY=            -46.2728   ZZ=            -41.1092
   XY=            -13.6197   XZ=              8.8187   YZ=             -0.6571
 Traceless Quadrupole moment (field-independent basis, Debye-Ang):
   XX=             11.9863   YY=             -8.5749   ZZ=             -3.4114
   XY=            -13.6197   XZ=              8.8187   YZ=             -0.6571
 Octapole moment (field-independent basis, Debye-Ang**2):
  XXX=            440.0552  YYY=            -35.5464  ZZZ=            147.7637  XYY=            249.2824
  XXY=             62.6616  XXZ=              0.5950  XZZ=            231.9726  YZZ=            -11.0039
  YYZ=             53.7892  XYZ=             -1.6815
 Hexadecapole moment (field-independent basis, Debye-Ang**3):
 XXXX=          -5203.3330 YYYY=           -268.5488 ZZZZ=           -778.5742 XXXY=           -313.6211
 XXXZ=           -318.6592 YYYX=             69.5641 YYYZ=            152.8368 ZZZX=           -602.1698
 ZZZY=            149.3681 XXYY=          -1512.6416 XXZZ=          -1522.9350 YYZZ=           -181.7787
 XXYZ=             69.3771 YYXZ=           -215.6606 ZZXY=             35.3087
 N-N= 3.255906424773D+02 E-N=-1.524132707247D+03  KE= 3.697213802957D+02
 No NMR shielding tensors so no spin-rotation constants.
 Leave Link  601 at Thu Mar 12 14:21:47 2020, MaxMem=   134217728 cpu:               1.0 elap:               0.1
 (Enter /home/soft/g16/l607.exe)
 ******************************Gaussian NBO Version 3.1******************************
             N A T U R A L   A T O M I C   O R B I T A L   A N D
          N A T U R A L   B O N D   O R B I T A L   A N A L Y S I S
 ******************************Gaussian NBO Version 3.1******************************
       /RESON  / : Allow strongly delocalized NBO set

 Analyzing the SCF density

 Job title: Atom number=18                                                  

 Storage needed:     77950 in NPA ( 134215928 available)
 GSVD:  LWork=       13750 too small for GESVD, short by        9275 words or        9275 for optimal perf.


 NATURAL POPULATIONS:  Natural atomic orbital occupancies 
                                                          
   NAO  Atom  No  lang   Type(AO)    Occupancy      Energy
 ----------------------------------------------------------
     1    C    1  S      Cor( 1S)     1.99927     -11.14327
     2    C    1  S      Val( 2S)     1.02523      -0.24539
     3    C    1  S      Ryd( 3S)     0.00228       1.48196
     4    C    1  S      Ryd( 4S)     0.00005       4.75654
     5    C    1  px     Val( 2p)     1.03378      -0.04246
     6    C    1  px     Ryd( 3p)     0.00084       0.77858
     7    C    1  py     Val( 2p)     1.09135      -0.02918
     8    C    1  py     Ryd( 3p)     0.00267       0.97442
     9    C    1  pz     Val( 2p)     0.89586       0.00786
    10    C    1  pz     Ryd( 3p)     0.00281       0.90593
    11    C    1  dxy    Ryd( 3d)     0.00084       2.50543
    12    C    1  dxz    Ryd( 3d)     0.00157       2.53170
    13    C    1  dyz    Ryd( 3d)     0.00193       2.63079
    14    C    1  dx2y2  Ryd( 3d)     0.00213       2.74747
    15    C    1  dz2    Ryd( 3d)     0.00257       2.68194

    16    H    2  S      Val( 1S)     0.81539       0.15682
    17    H    2  S      Ryd( 2S)     0.00125       0.79851
    18    H    2  px     Ryd( 2p)     0.00013       2.71793
    19    H    2  py     Ryd( 2p)     0.00071       3.34383
    20    H    2  pz     Ryd( 2p)     0.00004       2.73760

    21    H    3  S      Val( 1S)     0.81190       0.16697
    22    H    3  S      Ryd( 2S)     0.00170       0.80394
    23    H    3  px     Ryd( 2p)     0.00016       2.77694
    24    H    3  py     Ryd( 2p)     0.00023       2.84809
    25    H    3  pz     Ryd( 2p)     0.00048       3.20136

    26    O    4  S      Cor( 1S)     1.99984     -20.36315
    27    O    4  S      Val( 2S)     1.68572      -1.11494
    28    O    4  S      Ryd( 3S)     0.00106       1.74500
    29    O    4  S      Ryd( 4S)     0.00001       4.10537
    30    O    4  px     Val( 2p)     1.54549      -0.33861
    31    O    4  px     Ryd( 3p)     0.00206       1.52185
    32    O    4  py     Val( 2p)     1.87529      -0.44883
    33    O    4  py     Ryd( 3p)     0.00210       1.32877
    34    O    4  pz     Val( 2p)     1.69055      -0.39824
    35    O    4  pz     Ryd( 3p)     0.00162       1.36105
    36    O    4  dxy    Ryd( 3d)     0.00081       2.37953
    37    O    4  dxz    Ryd( 3d)     0.00100       2.52279
    38    O    4  dyz    Ryd( 3d)     0.00167       2.57340
    39    O    4  dx2y2  Ryd( 3d)     0.00123       2.84030
    40    O    4  dz2    Ryd( 3d)     0.00157       2.64742

    41    H    5  S      Val( 1S)     0.50764       0.32357
    42    H    5  S      Ryd( 2S)     0.00096       0.76564
    43    H    5  px     Ryd( 2p)     0.00156       3.43081
    44    H    5  py     Ryd( 2p)     0.00088       2.64461
    45    H    5  pz     Ryd( 2p)     0.00067       2.69436

    46    C    6  S      Cor( 1S)     1.99897     -11.17106
    47    C    6  S      Val( 2S)     0.95088      -0.21348
    48    C    6  S      Ryd( 3S)     0.00283       1.54978
    49    C    6  S      Ryd( 4S)     0.00008       4.80008
    50    C    6  px     Val( 2p)     0.99524      -0.02632
    51    C    6  px     Ryd( 3p)     0.00433       1.00752
    52    C    6  py     Val( 2p)     0.64074       0.06848
    53    C    6  py     Ryd( 3p)     0.00810       0.98403
    54    C    6  pz     Val( 2p)     1.11535      -0.03875
    55    C    6  pz     Ryd( 3p)     0.00345       0.99236
    56    C    6  dxy    Ryd( 3d)     0.00192       2.49592
    57    C    6  dxz    Ryd( 3d)     0.00086       2.52655
    58    C    6  dyz    Ryd( 3d)     0.00245       2.63582
    59    C    6  dx2y2  Ryd( 3d)     0.00322       2.71829
    60    C    6  dz2    Ryd( 3d)     0.00200       2.66235

    61    H    7  S      Val( 1S)     0.80982       0.17997
    62    H    7  S      Ryd( 2S)     0.00207       0.79378
    63    H    7  px     Ryd( 2p)     0.00016       2.88651
    64    H    7  py     Ryd( 2p)     0.00015       2.94295
    65    H    7  pz     Ryd( 2p)     0.00059       3.19490

    66    C    8  S      Cor( 1S)     1.99935     -11.06374
    67    C    8  S      Val( 2S)     1.04394      -0.24456
    68    C    8  S      Ryd( 3S)     0.00109       1.66790
    69    C    8  S      Ryd( 4S)     0.00001       4.78969
    70    C    8  px     Val( 2p)     1.08616      -0.04069
    71    C    8  px     Ryd( 3p)     0.00283       0.94107
    72    C    8  py     Val( 2p)     1.19263      -0.05148
    73    C    8  py     Ryd( 3p)     0.00362       1.06215
    74    C    8  pz     Val( 2p)     1.13443      -0.04655
    75    C    8  pz     Ryd( 3p)     0.00235       0.95288
    76    C    8  dxy    Ryd( 3d)     0.00076       2.53538
    77    C    8  dxz    Ryd( 3d)     0.00098       2.51715
    78    C    8  dyz    Ryd( 3d)     0.00106       2.64717
    79    C    8  dx2y2  Ryd( 3d)     0.00146       2.76404
    80    C    8  dz2    Ryd( 3d)     0.00130       2.69905

    81    H    9  S      Val( 1S)     0.78210       0.18535
    82    H    9  S      Ryd( 2S)     0.00126       0.83339
    83    H    9  px     Ryd( 2p)     0.00008       2.79180
    84    H    9  py     Ryd( 2p)     0.00066       3.37143
    85    H    9  pz     Ryd( 2p)     0.00004       2.71924

    86    H   10  S      Val( 1S)     0.77825       0.19641
    87    H   10  S      Ryd( 2S)     0.00176       0.83970
    88    H   10  px     Ryd( 2p)     0.00010       2.82456
    89    H   10  py     Ryd( 2p)     0.00016       2.86610
    90    H   10  pz     Ryd( 2p)     0.00049       3.20106

    91    F   11  S      Cor( 1S)     1.99994     -25.98297
    92    F   11  S      Val( 2S)     1.82150      -1.58373
    93    F   11  S      Ryd( 3S)     0.00057       2.21654
    94    F   11  S      Ryd( 4S)     0.00001       4.08310
    95    F   11  px     Val( 2p)     1.94566      -0.59438
    96    F   11  px     Ryd( 3p)     0.00152       1.76716
    97    F   11  py     Val( 2p)     1.68277      -0.52562
    98    F   11  py     Ryd( 3p)     0.00042       2.01256
    99    F   11  pz     Val( 2p)     1.97271      -0.60152
   100    F   11  pz     Ryd( 3p)     0.00150       1.73477
   101    F   11  dxy    Ryd( 3d)     0.00144       2.59011
   102    F   11  dxz    Ryd( 3d)     0.00013       2.24550
   103    F   11  dyz    Ryd( 3d)     0.00120       2.42417
   104    F   11  dx2y2  Ryd( 3d)     0.00148       2.80745
   105    F   11  dz2    Ryd( 3d)     0.00054       2.47899

   106    C   12  S      Cor( 1S)     1.99950     -11.02504
   107    C   12  S      Val( 2S)     1.10234      -0.24007
   108    C   12  S      Ryd( 3S)     0.00037       1.57494
   109    C   12  S      Ryd( 4S)     0.00000       4.78301
   110    C   12  px     Val( 2p)     1.30548      -0.05290
   111    C   12  px     Ryd( 3p)     0.00299       0.95544
   112    C   12  py     Val( 2p)     1.17005      -0.01249
   113    C   12  py     Ryd( 3p)     0.00175       0.84859
   114    C   12  pz     Val( 2p)     1.10219       0.00196
   115    C   12  pz     Ryd( 3p)     0.00272       0.82284
   116    C   12  dxy    Ryd( 3d)     0.00056       2.56373
   117    C   12  dxz    Ryd( 3d)     0.00074       2.56218
   118    C   12  dyz    Ryd( 3d)     0.00092       2.65657
   119    C   12  dx2y2  Ryd( 3d)     0.00143       2.94136
   120    C   12  dz2    Ryd( 3d)     0.00115       2.75916

   121    H   13  S      Val( 1S)     0.80848       0.18655
   122    H   13  S      Ryd( 2S)     0.00093       0.85719
   123    H   13  px     Ryd( 2p)     0.00009       2.76836
   124    H   13  py     Ryd( 2p)     0.00061       3.37595
   125    H   13  pz     Ryd( 2p)     0.00006       2.65028

   126    C   14  S      Cor( 1S)     1.99942     -11.05698
   127    C   14  S      Val( 2S)     1.03382      -0.22436
   128    C   14  S      Ryd( 3S)     0.00082       1.67131
   129    C   14  S      Ryd( 4S)     0.00001       4.78862
   130    C   14  px     Val( 2p)     1.04399      -0.01502
   131    C   14  px     Ryd( 3p)     0.00130       0.83110
   132    C   14  py     Val( 2p)     1.19979      -0.03619
   133    C   14  py     Ryd( 3p)     0.00291       1.00861
   134    C   14  pz     Val( 2p)     1.14107      -0.03088
   135    C   14  pz     Ryd( 3p)     0.00277       0.96728
   136    C   14  dxy    Ryd( 3d)     0.00061       2.51764
   137    C   14  dxz    Ryd( 3d)     0.00077       2.51835
   138    C   14  dyz    Ryd( 3d)     0.00108       2.65068
   139    C   14  dx2y2  Ryd( 3d)     0.00164       2.77058
   140    C   14  dz2    Ryd( 3d)     0.00139       2.70549

   141    H   15  S      Val( 1S)     0.77972       0.21168
   142    H   15  S      Ryd( 2S)     0.00185       0.83393
   143    H   15  px     Ryd( 2p)     0.00009       2.73667
   144    H   15  py     Ryd( 2p)     0.00065       3.37770
   145    H   15  pz     Ryd( 2p)     0.00004       2.74222

   146    H   16  S      Val( 1S)     0.79930       0.18795
   147    H   16  S      Ryd( 2S)     0.00142       0.83395
   148    H   16  px     Ryd( 2p)     0.00014       2.77521
   149    H   16  py     Ryd( 2p)     0.00017       2.85464
   150    H   16  pz     Ryd( 2p)     0.00047       3.20121

   151    H   17  S      Val( 1S)     0.78907       0.21093
   152    H   17  S      Ryd( 2S)     0.00082       0.86066
   153    H   17  px     Ryd( 2p)     0.00010       2.81564
   154    H   17  py     Ryd( 2p)     0.00014       2.81216
   155    H   17  pz     Ryd( 2p)     0.00049       3.18910

   156    H   18  S      Val( 1S)     0.66135       0.35518
   157    H   18  S      Ryd( 2S)     0.00033       0.88444
   158    H   18  px     Ryd( 2p)     0.00157       3.58926
   159    H   18  py     Ryd( 2p)     0.00003       2.74777
   160    H   18  pz     Ryd( 2p)     0.00014       2.73257

 WARNING:  1 low occupancy (<1.9990e) core orbital  found on  C    6


 Summary of Natural Population Analysis:                  
                                                          
                                       Natural Population 
                Natural  -----------------------------------------------
    Atom  No    Charge         Core      Valence    Rydberg      Total
 -----------------------------------------------------------------------
      C    1   -0.06317      1.99927     4.04622    0.01769     6.06317
      H    2    0.18248      0.00000     0.81539    0.00213     0.81752
      H    3    0.18554      0.00000     0.81190    0.00257     0.81446
      O    4   -0.81004      1.99984     6.79705    0.01315     8.81004
      H    5    0.48830      0.00000     0.50764    0.00406     0.51170
      C    6    0.26958      1.99897     3.70221    0.02924     5.73042
      H    7    0.18721      0.00000     0.80982    0.00297     0.81279
      C    8   -0.47196      1.99935     4.45716    0.01545     6.47196
      H    9    0.21586      0.00000     0.78210    0.00204     0.78414
      H   10    0.21923      0.00000     0.77825    0.00252     0.78077
      F   11   -0.43140      1.99994     7.42264    0.00882     9.43140
      C   12   -0.69219      1.99950     4.68005    0.01263     6.69219
      H   13    0.18984      0.00000     0.80848    0.00168     0.81016
      C   14   -0.43136      1.99942     4.41866    0.01328     6.43136
      H   15    0.21765      0.00000     0.77972    0.00263     0.78235
      H   16    0.19851      0.00000     0.79930    0.00219     0.80149
      H   17    0.20937      0.00000     0.78907    0.00156     0.79063
      H   18    0.33658      0.00000     0.66135    0.00208     0.66342
 =======================================================================
   * Total *   -0.00000     13.99629    43.86701    0.13670    58.00000

                                 Natural Population      
 --------------------------------------------------------
   Core                      13.99629 ( 99.9735% of  14)
   Valence                   43.86701 ( 99.6978% of  44)
   Natural Minimal Basis     57.86330 ( 99.7643% of  58)
   Natural Rydberg Basis      0.13670 (  0.2357% of  58)
 --------------------------------------------------------

    Atom  No          Natural Electron Configuration
 ----------------------------------------------------------------------------
      C    1      [core]2S( 1.03)2p( 3.02)3p( 0.01)3d( 0.01)
      H    2            1S( 0.82)
      H    3            1S( 0.81)
      O    4      [core]2S( 1.69)2p( 5.11)3p( 0.01)3d( 0.01)
      H    5            1S( 0.51)
      C    6      [core]2S( 0.95)2p( 2.75)3p( 0.02)3d( 0.01)
      H    7            1S( 0.81)
      C    8      [core]2S( 1.04)2p( 3.41)3p( 0.01)3d( 0.01)
      H    9            1S( 0.78)
      H   10            1S( 0.78)
      F   11      [core]2S( 1.82)2p( 5.60)
      C   12      [core]2S( 1.10)2p( 3.58)3p( 0.01)
      H   13            1S( 0.81)
      C   14      [core]2S( 1.03)2p( 3.38)3p( 0.01)3d( 0.01)
      H   15            1S( 0.78)
      H   16            1S( 0.80)
      H   17            1S( 0.79)
      H   18            1S( 0.66)


 NBO analysis skipped by request.
 Leave Link  607 at Thu Mar 12 14:21:47 2020, MaxMem=   134217728 cpu:               1.2 elap:               0.1
 (Enter /home/soft/g16/l9999.exe)

 Test job not archived.
 1\1\GINC-NODE07\SP\RHF\6-31G(d,p)\C5H11F1O1\ROOT\12-Mar-2020\0\\#p hf/
 6-31g** pop=npa charge nosymm\\Atom number=18\\0,1\C,0,-7.24124298,0.1
 0811971,-0.52280285\H,0,-7.54800104,1.13259561,-0.48746708\H,0,-7.6379
 4822,-0.35281555,-1.40317983\O,0,-7.72914876,-0.57573638,0.6344304\H,0
 ,-8.68783856,-0.52922204,0.65314644\C,0,-5.70334476,0.03350295,-0.5528
 2649\H,0,-5.30663952,0.49443822,0.32755049\C,0,-5.17790776,0.76996336,
 -1.79907768\H,0,-5.48466583,1.79443926,-1.76374191\H,0,-5.57461301,0.3
 0902809,-2.67945466\F,0,-5.31631356,-1.2590601,-0.597409\C,0,-3.114572
 55,1.43180701,-3.07535251\H,0,-3.42133061,2.45628291,-3.04001674\C,0,-
 3.64000955,0.6953466,-1.82910132\H,0,-3.33325148,-0.32912931,-1.864437
 08\H,0,-3.2433043,1.15628186,-0.94872434\H,0,-3.51127779,0.97087174,-3
 .95572949\H,0,-2.04603288,1.37996289,-3.09621309\\Version=ES64L-G16Rev
 A.03\HF=-370.4695924\RMSD=8.945e-09\Dipole=-0.2294591,1.019984,-0.7607
 219\Quadrupole=8.9115495,-6.3752641,-2.5362854,-10.1259417,6.5565173,-
 0.488571\PG=C01 [X(C5H11F1O1)]\\@


 NEVER TEACH A PIG TO SING.
 IT WASTES YOUR TIME AND ANNOYS THE PIG.
     -- SEEN ON A GREETING CARD
 Job cpu time:       0 days  0 hours  0 minutes 35.7 seconds.
 Elapsed time:       0 days  0 hours  0 minutes  3.4 seconds.
 File lengths (MBytes):  RWF=     72 Int=      0 D2E=      0 Chk=      8 Scr=      8
 Normal termination of Gaussian 16 at Thu Mar 12 14:21:47 2020.
