Atom number=18                                                          
SP        RHF                                                         6-31G(d,p)          
Number of atoms                            I               18
Info1-9                                    I   N=           9
          35          34           0           0           0         111
           1           1           2
Full Title                                 C   N=           2
Atom number=18          
Route                                      C   N=           3
#p hf/6-31g** pop=npa charge nosymm 
Charge                                     I                0
Multiplicity                               I                1
Number of electrons                        I               58
Number of alpha electrons                  I               29
Number of beta electrons                   I               29
Number of basis functions                  I              160
Number of independent functions            I              160
Number of point charges in /Mol/           I                0
Number of translation vectors              I                0
Atomic numbers                             I   N=          18
           6           1           1           8           1           6
           1           6           1           1           9           6
           1           6           1           1           1           1
Nuclear charges                            R   N=          18
  6.00000000E+00  1.00000000E+00  1.00000000E+00  8.00000000E+00  1.00000000E+00
  6.00000000E+00  1.00000000E+00  6.00000000E+00  1.00000000E+00  1.00000000E+00
  9.00000000E+00  6.00000000E+00  1.00000000E+00  6.00000000E+00  1.00000000E+00
  1.00000000E+00  1.00000000E+00  1.00000000E+00
Current cartesian coordinates              R   N=          54
 -1.36839660E+01  2.04316641E-01 -9.87954204E-01 -1.42636548E+01  2.14029551E+00
 -9.21179276E-01 -1.44336303E+01 -6.66724762E-01 -2.65162558E+00 -1.46059743E+01
 -1.08798408E+00  1.19889970E+00 -1.64176355E+01 -1.00008471E+00  1.23426789E+00
 -1.07777596E+01  6.33113999E-02 -1.04469066E+00 -1.00280953E+01  9.34352821E-01
  6.18980718E-01 -9.78482756E+00  1.45501988E+00 -3.39976409E+00 -1.03645163E+01
  3.39099875E+00 -3.33298916E+00 -1.05344918E+01  5.83978455E-01 -5.06343547E+00
 -1.00463766E+01 -2.37927876E+00 -1.12893939E+00 -5.88568911E+00  2.70572311E+00
 -5.81157398E+00 -6.46537783E+00  4.64170198E+00 -5.74479905E+00 -6.87862114E+00
  1.31401464E+00 -3.45650055E+00 -6.29893240E+00 -6.21964255E-01 -3.52327546E+00
 -6.12895687E+00  2.18505604E+00 -1.79282917E+00 -6.63535337E+00  1.83468169E+00
 -7.47524536E+00 -3.86644179E+00  2.60775192E+00 -5.85099476E+00
Number of symbols in /Mol/                 I                0
Force Field                                I                0
Atom Types                                 C   N=          18
                                                            
                                                            
                                                            
                                    
Int Atom Types                             I   N=          18
           0           0           0           0           0           0
           0           0           0           0           0           0
           0           0           0           0           0           0
MM charges                                 R   N=          18
  0.00000000E+00  0.00000000E+00  0.00000000E+00  0.00000000E+00  0.00000000E+00
  0.00000000E+00  0.00000000E+00  0.00000000E+00  0.00000000E+00  0.00000000E+00
  0.00000000E+00  0.00000000E+00  0.00000000E+00  0.00000000E+00  0.00000000E+00
  0.00000000E+00  0.00000000E+00  0.00000000E+00
Integer atomic weights                     I   N=          18
          12           1           1          16           1          12
           1          12           1           1          19          12
           1          12           1           1           1           1
Real atomic weights                        R   N=          18
  1.20000000E+01  1.00782504E+00  1.00782504E+00  1.59949146E+01  1.00782504E+00
  1.20000000E+01  1.00782504E+00  1.20000000E+01  1.00782504E+00  1.00782504E+00
  1.89984032E+01  1.20000000E+01  1.00782504E+00  1.20000000E+01  1.00782504E+00
  1.00782504E+00  1.00782504E+00  1.00782504E+00
Atom fragment info                         I   N=          18
           0           0           0           0           0           0
           0           0           0           0           0           0
           0           0           0           0           0           0
Atom residue num                           I   N=          18
           0           0           0           0           0           0
           0           0           0           0           0           0
           0           0           0           0           0           0
Nuclear spins                              I   N=          18
           0           1           1           0           1           0
           1           0           1           1           1           0
           1           0           1           1           1           1
Nuclear ZEff                               R   N=          18
 -3.60000000E+00 -1.00000000E+00 -1.00000000E+00 -5.60000000E+00 -1.00000000E+00
 -3.60000000E+00 -1.00000000E+00 -3.60000000E+00 -1.00000000E+00 -1.00000000E+00
 -6.75000000E+00 -3.60000000E+00 -1.00000000E+00 -3.60000000E+00 -1.00000000E+00
 -1.00000000E+00 -1.00000000E+00 -1.00000000E+00
Nuclear ZNuc                               R   N=          18
  6.00000000E+00  1.00000000E+00  1.00000000E+00  8.00000000E+00  1.00000000E+00
  6.00000000E+00  1.00000000E+00  6.00000000E+00  1.00000000E+00  1.00000000E+00
  9.00000000E+00  6.00000000E+00  1.00000000E+00  6.00000000E+00  1.00000000E+00
  1.00000000E+00  1.00000000E+00  1.00000000E+00
Nuclear QMom                               R   N=          18
  0.00000000E+00  0.00000000E+00  0.00000000E+00  0.00000000E+00  0.00000000E+00
  0.00000000E+00  0.00000000E+00  0.00000000E+00  0.00000000E+00  0.00000000E+00
  0.00000000E+00  0.00000000E+00  0.00000000E+00  0.00000000E+00  0.00000000E+00
  0.00000000E+00  0.00000000E+00  0.00000000E+00
Nuclear GFac                               R   N=          18
  0.00000000E+00  2.79284600E+00  2.79284600E+00  0.00000000E+00  2.79284600E+00
  0.00000000E+00  2.79284600E+00  0.00000000E+00  2.79284600E+00  2.79284600E+00
  2.62886700E+00  0.00000000E+00  2.79284600E+00  0.00000000E+00  2.79284600E+00
  2.79284600E+00  2.79284600E+00  2.79284600E+00
MicOpt                                     I   N=          18
          -1          -1          -1          -1          -1          -1
          -1          -1          -1          -1          -1          -1
          -1          -1          -1          -1          -1          -1
Number of residues                         I                0
Number of secondary structures             I                0
Number of contracted shells                I               61
Number of primitive shells                 I              132
Pure/Cartesian d shells                    I                1
Pure/Cartesian f shells                    I                0
Highest angular momentum                   I                2
Largest degree of contraction              I                6
Shell types                                I   N=          61
           0          -1          -1           2           0           0
           1           0           0           1           0          -1
          -1           2           0           0           1           0
          -1          -1           2           0           0           1
           0          -1          -1           2           0           0
           1           0           0           1           0          -1
          -1           2           0          -1          -1           2
           0           0           1           0          -1          -1
           2           0           0           1           0           0
           1           0           0           1           0           0
           1
Number of primitives per shell             I   N=          61
           6           3           1           1           3           1
           1           3           1           1           6           3
           1           1           3           1           1           6
           3           1           1           3           1           1
           6           3           1           1           3           1
           1           3           1           1           6           3
           1           1           6           3           1           1
           3           1           1           6           3           1
           1           3           1           1           3           1
           1           3           1           1           3           1
           1
Shell to atom map                          I   N=          61
           1           1           1           1           2           2
           2           3           3           3           4           4
           4           4           5           5           5           6
           6           6           6           7           7           7
           8           8           8           8           9           9
           9          10          10          10          11          11
          11          11          12          12          12          12
          13          13          13          14          14          14
          14          15          15          15          16          16
          16          17          17          17          18          18
          18
Primitive exponents                        R   N=         132
  3.04752488E+03  4.57369518E+02  1.03948685E+02  2.92101553E+01  9.28666296E+00
  3.16392696E+00  7.86827235E+00  1.88128854E+00  5.44249258E-01  1.68714478E-01
  8.00000000E-01  1.87311370E+01  2.82539436E+00  6.40121692E-01  1.61277759E-01
  1.10000000E+00  1.87311370E+01  2.82539436E+00  6.40121692E-01  1.61277759E-01
  1.10000000E+00  5.48467166E+03  8.25234946E+02  1.88046958E+02  5.29645000E+01
  1.68975704E+01  5.79963534E+00  1.55396162E+01  3.59993359E+00  1.01376175E+00
  2.70005823E-01  8.00000000E-01  1.87311370E+01  2.82539436E+00  6.40121692E-01
  1.61277759E-01  1.10000000E+00  3.04752488E+03  4.57369518E+02  1.03948685E+02
  2.92101553E+01  9.28666296E+00  3.16392696E+00  7.86827235E+00  1.88128854E+00
  5.44249258E-01  1.68714478E-01  8.00000000E-01  1.87311370E+01  2.82539436E+00
  6.40121692E-01  1.61277759E-01  1.10000000E+00  3.04752488E+03  4.57369518E+02
  1.03948685E+02  2.92101553E+01  9.28666296E+00  3.16392696E+00  7.86827235E+00
  1.88128854E+00  5.44249258E-01  1.68714478E-01  8.00000000E-01  1.87311370E+01
  2.82539436E+00  6.40121692E-01  1.61277759E-01  1.10000000E+00  1.87311370E+01
  2.82539436E+00  6.40121692E-01  1.61277759E-01  1.10000000E+00  7.00171309E+03
  1.05136609E+03  2.39285690E+02  6.73974453E+01  2.15199573E+01  7.40310130E+00
  2.08479528E+01  4.80830834E+00  1.34406986E+00  3.58151393E-01  8.00000000E-01
  3.04752488E+03  4.57369518E+02  1.03948685E+02  2.92101553E+01  9.28666296E+00
  3.16392696E+00  7.86827235E+00  1.88128854E+00  5.44249258E-01  1.68714478E-01
  8.00000000E-01  1.87311370E+01  2.82539436E+00  6.40121692E-01  1.61277759E-01
  1.10000000E+00  3.04752488E+03  4.57369518E+02  1.03948685E+02  2.92101553E+01
  9.28666296E+00  3.16392696E+00  7.86827235E+00  1.88128854E+00  5.44249258E-01
  1.68714478E-01  8.00000000E-01  1.87311370E+01  2.82539436E+00  6.40121692E-01
  1.61277759E-01  1.10000000E+00  1.87311370E+01  2.82539436E+00  6.40121692E-01
  1.61277759E-01  1.10000000E+00  1.87311370E+01  2.82539436E+00  6.40121692E-01
  1.61277759E-01  1.10000000E+00  1.87311370E+01  2.82539436E+00  6.40121692E-01
  1.61277759E-01  1.10000000E+00
Contraction coefficients                   R   N=         132
  1.83473713E-03  1.40373228E-02  6.88426223E-02  2.32184443E-01  4.67941348E-01
  3.62311985E-01 -1.19332420E-01 -1.60854152E-01  1.14345644E+00  1.00000000E+00
  1.00000000E+00  3.34946043E-02  2.34726953E-01  8.13757326E-01  1.00000000E+00
  1.00000000E+00  3.34946043E-02  2.34726953E-01  8.13757326E-01  1.00000000E+00
  1.00000000E+00  1.83107443E-03  1.39501722E-02  6.84450781E-02  2.32714336E-01
  4.70192898E-01  3.58520853E-01 -1.10777550E-01 -1.48026263E-01  1.13076702E+00
  1.00000000E+00  1.00000000E+00  3.34946043E-02  2.34726953E-01  8.13757326E-01
  1.00000000E+00  1.00000000E+00  1.83473713E-03  1.40373228E-02  6.88426223E-02
  2.32184443E-01  4.67941348E-01  3.62311985E-01 -1.19332420E-01 -1.60854152E-01
  1.14345644E+00  1.00000000E+00  1.00000000E+00  3.34946043E-02  2.34726953E-01
  8.13757326E-01  1.00000000E+00  1.00000000E+00  1.83473713E-03  1.40373228E-02
  6.88426223E-02  2.32184443E-01  4.67941348E-01  3.62311985E-01 -1.19332420E-01
 -1.60854152E-01  1.14345644E+00  1.00000000E+00  1.00000000E+00  3.34946043E-02
  2.34726953E-01  8.13757326E-01  1.00000000E+00  1.00000000E+00  3.34946043E-02
  2.34726953E-01  8.13757326E-01  1.00000000E+00  1.00000000E+00  1.81961690E-03
  1.39160796E-02  6.84053245E-02  2.33185760E-01  4.71267439E-01  3.56618546E-01
 -1.08506975E-01 -1.46451658E-01  1.12868858E+00  1.00000000E+00  1.00000000E+00
  1.83473713E-03  1.40373228E-02  6.88426223E-02  2.32184443E-01  4.67941348E-01
  3.62311985E-01 -1.19332420E-01 -1.60854152E-01  1.14345644E+00  1.00000000E+00
  1.00000000E+00  3.34946043E-02  2.34726953E-01  8.13757326E-01  1.00000000E+00
  1.00000000E+00  1.83473713E-03  1.40373228E-02  6.88426223E-02  2.32184443E-01
  4.67941348E-01  3.62311985E-01 -1.19332420E-01 -1.60854152E-01  1.14345644E+00
  1.00000000E+00  1.00000000E+00  3.34946043E-02  2.34726953E-01  8.13757326E-01
  1.00000000E+00  1.00000000E+00  3.34946043E-02  2.34726953E-01  8.13757326E-01
  1.00000000E+00  1.00000000E+00  3.34946043E-02  2.34726953E-01  8.13757326E-01
  1.00000000E+00  1.00000000E+00  3.34946043E-02  2.34726953E-01  8.13757326E-01
  1.00000000E+00  1.00000000E+00
P(S=P) Contraction coefficients            R   N=         132
  0.00000000E+00  0.00000000E+00  0.00000000E+00  0.00000000E+00  0.00000000E+00
  0.00000000E+00  6.89990666E-02  3.16423961E-01  7.44308291E-01  1.00000000E+00
  0.00000000E+00  0.00000000E+00  0.00000000E+00  0.00000000E+00  0.00000000E+00
  0.00000000E+00  0.00000000E+00  0.00000000E+00  0.00000000E+00  0.00000000E+00
  0.00000000E+00  0.00000000E+00  0.00000000E+00  0.00000000E+00  0.00000000E+00
  0.00000000E+00  0.00000000E+00  7.08742682E-02  3.39752839E-01  7.27158577E-01
  1.00000000E+00  0.00000000E+00  0.00000000E+00  0.00000000E+00  0.00000000E+00
  0.00000000E+00  0.00000000E+00  0.00000000E+00  0.00000000E+00  0.00000000E+00
  0.00000000E+00  0.00000000E+00  0.00000000E+00  6.89990666E-02  3.16423961E-01
  7.44308291E-01  1.00000000E+00  0.00000000E+00  0.00000000E+00  0.00000000E+00
  0.00000000E+00  0.00000000E+00  0.00000000E+00  0.00000000E+00  0.00000000E+00
  0.00000000E+00  0.00000000E+00  0.00000000E+00  0.00000000E+00  6.89990666E-02
  3.16423961E-01  7.44308291E-01  1.00000000E+00  0.00000000E+00  0.00000000E+00
  0.00000000E+00  0.00000000E+00  0.00000000E+00  0.00000000E+00  0.00000000E+00
  0.00000000E+00  0.00000000E+00  0.00000000E+00  0.00000000E+00  0.00000000E+00
  0.00000000E+00  0.00000000E+00  0.00000000E+00  0.00000000E+00  0.00000000E+00
  7.16287242E-02  3.45912103E-01  7.22469956E-01  1.00000000E+00  0.00000000E+00
  0.00000000E+00  0.00000000E+00  0.00000000E+00  0.00000000E+00  0.00000000E+00
  0.00000000E+00  6.89990666E-02  3.16423961E-01  7.44308291E-01  1.00000000E+00
  0.00000000E+00  0.00000000E+00  0.00000000E+00  0.00000000E+00  0.00000000E+00
  0.00000000E+00  0.00000000E+00  0.00000000E+00  0.00000000E+00  0.00000000E+00
  0.00000000E+00  0.00000000E+00  6.89990666E-02  3.16423961E-01  7.44308291E-01
  1.00000000E+00  0.00000000E+00  0.00000000E+00  0.00000000E+00  0.00000000E+00
  0.00000000E+00  0.00000000E+00  0.00000000E+00  0.00000000E+00  0.00000000E+00
  0.00000000E+00  0.00000000E+00  0.00000000E+00  0.00000000E+00  0.00000000E+00
  0.00000000E+00  0.00000000E+00  0.00000000E+00  0.00000000E+00  0.00000000E+00
  0.00000000E+00  0.00000000E+00
Coordinates of each shell                  R   N=         183
 -1.36839660E+01  2.04316641E-01 -9.87954204E-01 -1.36839660E+01  2.04316641E-01
 -9.87954204E-01 -1.36839660E+01  2.04316641E-01 -9.87954204E-01 -1.36839660E+01
  2.04316641E-01 -9.87954204E-01 -1.42636548E+01  2.14029551E+00 -9.21179276E-01
 -1.42636548E+01  2.14029551E+00 -9.21179276E-01 -1.42636548E+01  2.14029551E+00
 -9.21179276E-01 -1.44336303E+01 -6.66724762E-01 -2.65162558E+00 -1.44336303E+01
 -6.66724762E-01 -2.65162558E+00 -1.44336303E+01 -6.66724762E-01 -2.65162558E+00
 -1.46059743E+01 -1.08798408E+00  1.19889970E+00 -1.46059743E+01 -1.08798408E+00
  1.19889970E+00 -1.46059743E+01 -1.08798408E+00  1.19889970E+00 -1.46059743E+01
 -1.08798408E+00  1.19889970E+00 -1.64176355E+01 -1.00008471E+00  1.23426789E+00
 -1.64176355E+01 -1.00008471E+00  1.23426789E+00 -1.64176355E+01 -1.00008471E+00
  1.23426789E+00 -1.07777596E+01  6.33113999E-02 -1.04469066E+00 -1.07777596E+01
  6.33113999E-02 -1.04469066E+00 -1.07777596E+01  6.33113999E-02 -1.04469066E+00
 -1.07777596E+01  6.33113999E-02 -1.04469066E+00 -1.00280953E+01  9.34352821E-01
  6.18980718E-01 -1.00280953E+01  9.34352821E-01  6.18980718E-01 -1.00280953E+01
  9.34352821E-01  6.18980718E-01 -9.78482756E+00  1.45501988E+00 -3.39976409E+00
 -9.78482756E+00  1.45501988E+00 -3.39976409E+00 -9.78482756E+00  1.45501988E+00
 -3.39976409E+00 -9.78482756E+00  1.45501988E+00 -3.39976409E+00 -1.03645163E+01
  3.39099875E+00 -3.33298916E+00 -1.03645163E+01  3.39099875E+00 -3.33298916E+00
 -1.03645163E+01  3.39099875E+00 -3.33298916E+00 -1.05344918E+01  5.83978455E-01
 -5.06343547E+00 -1.05344918E+01  5.83978455E-01 -5.06343547E+00 -1.05344918E+01
  5.83978455E-01 -5.06343547E+00 -1.00463766E+01 -2.37927876E+00 -1.12893939E+00
 -1.00463766E+01 -2.37927876E+00 -1.12893939E+00 -1.00463766E+01 -2.37927876E+00
 -1.12893939E+00 -1.00463766E+01 -2.37927876E+00 -1.12893939E+00 -5.88568911E+00
  2.70572311E+00 -5.81157398E+00 -5.88568911E+00  2.70572311E+00 -5.81157398E+00
 -5.88568911E+00  2.70572311E+00 -5.81157398E+00 -5.88568911E+00  2.70572311E+00
 -5.81157398E+00 -6.46537783E+00  4.64170198E+00 -5.74479905E+00 -6.46537783E+00
  4.64170198E+00 -5.74479905E+00 -6.46537783E+00  4.64170198E+00 -5.74479905E+00
 -6.87862114E+00  1.31401464E+00 -3.45650055E+00 -6.87862114E+00  1.31401464E+00
 -3.45650055E+00 -6.87862114E+00  1.31401464E+00 -3.45650055E+00 -6.87862114E+00
  1.31401464E+00 -3.45650055E+00 -6.29893240E+00 -6.21964255E-01 -3.52327546E+00
 -6.29893240E+00 -6.21964255E-01 -3.52327546E+00 -6.29893240E+00 -6.21964255E-01
 -3.52327546E+00 -6.12895687E+00  2.18505604E+00 -1.79282917E+00 -6.12895687E+00
  2.18505604E+00 -1.79282917E+00 -6.12895687E+00  2.18505604E+00 -1.79282917E+00
 -6.63535337E+00  1.83468169E+00 -7.47524536E+00 -6.63535337E+00  1.83468169E+00
 -7.47524536E+00 -6.63535337E+00  1.83468169E+00 -7.47524536E+00 -3.86644179E+00
  2.60775192E+00 -5.85099476E+00 -3.86644179E+00  2.60775192E+00 -5.85099476E+00
 -3.86644179E+00  2.60775192E+00 -5.85099476E+00
Num ILSW                                   I              100
ILSW                                       I   N=         100
           0           1           0           0           2           0
           0           0           0           0           0          -1
           5           0           0           0           0           0
           0           0           0           0           0           0
           1           1           0           0           0           0
           0           0      100000           0          -1           0
           0           0           0           0           0           0
           0           0           0           1           0           0
           0 -2000000000           1           0           0           0
           0           0           4          52           0           0
           0           1           0           0           0           0
           0           0           0          18           0           1
           0           0           0           0           0           0
           0           0           0           0           0           0
           0           0           0           0           0           0
           0           0           0           0           0           0
           0           0           0           0
Num RLSW                                   I               52
RLSW                                       R   N=          52
  1.00000000E+00  1.00000000E+00  1.00000000E+00  1.00000000E+00  1.00000000E+00
  0.00000000E+00  0.00000000E+00  1.00000000E+00  0.00000000E+00  0.00000000E+00
  0.00000000E+00  0.00000000E+00  1.00000000E+00  0.00000000E+00  0.00000000E+00
  0.00000000E+00  0.00000000E+00  1.00000000E+00  0.00000000E+00  0.00000000E+00
  0.00000000E+00  0.00000000E+00  1.00000000E+00  0.00000000E+00  0.00000000E+00
  0.00000000E+00  0.00000000E+00  1.00000000E+00  0.00000000E+00  0.00000000E+00
  0.00000000E+00  0.00000000E+00  1.00000000E+00  0.00000000E+00  0.00000000E+00
  0.00000000E+00  0.00000000E+00  0.00000000E+00  1.00000000E+00  1.00000000E+00
  0.00000000E+00  1.00000000E+00  0.00000000E+00  0.00000000E+00  0.00000000E+00
  0.00000000E+00  0.00000000E+00  0.00000000E+00  0.00000000E+00  0.00000000E+00
  0.00000000E+00  0.00000000E+00
MxBond                                     I                4
NBond                                      I   N=          18
           4           1           1           2           1           4
           1           4           1           1           1           4
           1           4           1           1           1           1
IBond                                      I   N=          72
           2           3           4           6           1           0
           0           0           1           0           0           0
           1           5           0           0           4           0
           0           0           1           7           8          11
           6           0           0           0           6           9
          10          14           8           0           0           0
           8           0           0           0           6           0
           0           0          13          14          17          18
          12           0           0           0           8          12
          15          16          14           0           0           0
          14           0           0           0          12           0
           0           0          12           0           0           0
RBond                                      R   N=          72
  1.00000000E+00  1.00000000E+00  1.00000000E+00  1.00000000E+00  1.00000000E+00
  0.00000000E+00  0.00000000E+00  0.00000000E+00  1.00000000E+00  0.00000000E+00
  0.00000000E+00  0.00000000E+00  1.00000000E+00  1.00000000E+00  0.00000000E+00
  0.00000000E+00  1.00000000E+00  0.00000000E+00  0.00000000E+00  0.00000000E+00
  1.00000000E+00  1.00000000E+00  1.00000000E+00  1.00000000E+00  1.00000000E+00
  0.00000000E+00  0.00000000E+00  0.00000000E+00  1.00000000E+00  1.00000000E+00
  1.00000000E+00  1.00000000E+00  1.00000000E+00  0.00000000E+00  0.00000000E+00
  0.00000000E+00  1.00000000E+00  0.00000000E+00  0.00000000E+00  0.00000000E+00
  1.00000000E+00  0.00000000E+00  0.00000000E+00  0.00000000E+00  1.00000000E+00
  1.00000000E+00  1.00000000E+00  1.00000000E+00  1.00000000E+00  0.00000000E+00
  0.00000000E+00  0.00000000E+00  1.00000000E+00  1.00000000E+00  1.00000000E+00
  1.00000000E+00  1.00000000E+00  0.00000000E+00  0.00000000E+00  0.00000000E+00
  1.00000000E+00  0.00000000E+00  0.00000000E+00  0.00000000E+00  1.00000000E+00
  0.00000000E+00  0.00000000E+00  0.00000000E+00  1.00000000E+00  0.00000000E+00
  0.00000000E+00  0.00000000E+00
Virial Ratio                               R      2.002023718747106E+00
SCF Energy                                 R     -3.704695923842300E+02
Total Energy                               R     -3.704695923842300E+02
RMS Density                                R      8.944759150424814E-09
Job Status                                 I                1
Nuclear derivative order                   I                0
External E-field                           R   N=          35
  0.00000000E+00  0.00000000E+00  0.00000000E+00  0.00000000E+00  0.00000000E+00
  0.00000000E+00  0.00000000E+00  0.00000000E+00  0.00000000E+00  0.00000000E+00
  0.00000000E+00  0.00000000E+00  0.00000000E+00  0.00000000E+00  0.00000000E+00
  0.00000000E+00  0.00000000E+00  0.00000000E+00  0.00000000E+00  0.00000000E+00
  0.00000000E+00  0.00000000E+00  0.00000000E+00  0.00000000E+00  0.00000000E+00
  0.00000000E+00  0.00000000E+00  0.00000000E+00  0.00000000E+00  0.00000000E+00
  0.00000000E+00  0.00000000E+00  0.00000000E+00  0.00000000E+00  0.00000000E+00
IOpCl                                      I                0
IROHF                                      I                0
Alpha Orbital Energies                     R   N=         160
 -2.62666323E+01 -2.05535538E+01 -1.12950993E+01 -1.12700156E+01 -1.12117500E+01
 -1.12027872E+01 -1.11697391E+01 -1.58576377E+00 -1.34652886E+00 -1.07510749E+00
 -1.00235373E+00 -9.09331295E-01 -8.26763025E-01 -7.96924898E-01 -7.12940926E-01
 -6.96820241E-01 -6.56745062E-01 -6.48063385E-01 -6.19618337E-01 -6.08583254E-01
 -5.57138945E-01 -5.36297340E-01 -5.26520295E-01 -5.05987091E-01 -4.75306312E-01
 -4.72551939E-01 -4.61127380E-01 -4.44221836E-01 -4.20300515E-01  2.26222766E-01
  2.41003216E-01  2.67430385E-01  2.74544626E-01  3.05853443E-01  3.25382336E-01
  3.36641097E-01  3.49241628E-01  3.50041348E-01  3.65951570E-01  3.72734329E-01
  3.80705462E-01  3.98173973E-01  4.31360621E-01  4.59906301E-01  4.70594020E-01
  4.93908244E-01  7.17771566E-01  7.38538831E-01  7.56087035E-01  7.69181644E-01
  7.95905715E-01  8.14796192E-01  8.41307324E-01  8.61075184E-01  9.00600333E-01
  9.38059939E-01  9.53751640E-01  9.67167727E-01  1.00190949E+00  1.05253607E+00
  1.06399895E+00  1.10473522E+00  1.13248728E+00  1.14700157E+00  1.15067427E+00
  1.17314866E+00  1.18259625E+00  1.20043357E+00  1.20610660E+00  1.22279402E+00
  1.23148350E+00  1.24405510E+00  1.25834969E+00  1.28805076E+00  1.32799110E+00
  1.42690778E+00  1.45611120E+00  1.52128274E+00  1.55481237E+00  1.60223848E+00
  1.60708364E+00  1.68180561E+00  1.69035927E+00  1.71653385E+00  1.72161282E+00
  1.81236414E+00  1.83246019E+00  1.86344378E+00  1.89792726E+00  1.92037906E+00
  1.98018422E+00  1.99295016E+00  2.02877682E+00  2.06941887E+00  2.11834934E+00
  2.13862584E+00  2.17835893E+00  2.20606251E+00  2.25910443E+00  2.27402820E+00
  2.29024252E+00  2.32002996E+00  2.33632291E+00  2.38300107E+00  2.39570490E+00
  2.42028325E+00  2.43808048E+00  2.44433024E+00  2.46737874E+00  2.51238020E+00
  2.51703982E+00  2.54006443E+00  2.58269356E+00  2.60879950E+00  2.62725299E+00
  2.64123596E+00  2.65545907E+00  2.68648710E+00  2.70365992E+00  2.75165365E+00
  2.77343107E+00  2.84185451E+00  2.86997500E+00  2.90588064E+00  2.97604453E+00
  3.00085757E+00  3.02319626E+00  3.04278350E+00  3.07408817E+00  3.09189110E+00
  3.11523686E+00  3.15544441E+00  3.17849272E+00  3.21811070E+00  3.24928566E+00
  3.26044929E+00  3.27851771E+00  3.32685741E+00  3.33411134E+00  3.34746872E+00
  3.38163764E+00  3.51873819E+00  3.66113412E+00  3.68775725E+00  3.71126306E+00
  3.74428728E+00  3.79467795E+00  3.82147082E+00  3.86711649E+00  3.92237261E+00
  3.95631948E+00  3.98993003E+00  4.01307645E+00  4.38297569E+00  4.65694507E+00
  4.81342273E+00  4.94217016E+00  5.04159425E+00  5.06036016E+00  5.18982245E+00
Alpha MO coefficients                      R   N=       25600
  6.52437824E-06  9.96932183E-05 -2.97101462E-05 -1.43872985E-05  3.28313714E-06
 -2.82157586E-04 -1.82139589E-04  2.23594339E-04  8.45814267E-05 -6.02030857E-05
 -2.48208906E-05 -2.83930143E-06  4.93900400E-05  1.37149104E-05 -9.34066945E-06
 -4.28231526E-06 -9.26910825E-05  9.18182943E-07 -9.25262717E-06 -4.09252942E-06
  4.20207347E-05  3.87833097E-05  2.23451062E-06 -1.43879320E-05 -1.81455130E-06
  5.02834200E-06  9.86337976E-06  1.31372917E-05 -1.69540193E-06 -3.88692258E-06
  6.58576062E-07 -5.07849072E-05 -1.72687535E-05 -9.68772414E-06  3.52017264E-05
  1.19461160E-05  2.35049602E-05  3.61209631E-06  7.62536620E-06  1.19442856E-05
 -3.17835893E-05 -3.29795552E-05 -1.77792702E-05 -1.64539874E-07  4.91097468E-06
 -4.04702705E-05  1.26369611E-04  1.76520848E-04 -5.51061882E-04  1.57986033E-05
  9.17430539E-04 -2.24510213E-05 -1.20376587E-04 -2.61687351E-04 -3.54657739E-05
  2.54792886E-04 -5.24459088E-05 -1.04585217E-04 -3.75500123E-06  1.25126245E-05
 -5.36824108E-05 -8.31850776E-05 -7.31932924E-06  7.89707179E-05  3.80015214E-05
  6.17506856E-06  1.02743064E-04  8.82475976E-06  5.07749133E-07 -2.60044773E-05
 -3.49233978E-04  9.68369238E-05  3.47422735E-04 -8.86193708E-05  3.43060894E-07
 -7.25276972E-05 -2.70098340E-05 -1.46458955E-05  1.07670655E-05  4.57419740E-05
 -7.35325356E-06 -8.34298829E-05 -1.08261967E-06 -1.33438766E-05 -2.11604397E-06
  4.80458779E-05  3.67971906E-05 -2.99432381E-06 -1.59985288E-05  3.73827833E-07
  9.94432736E-01  1.79215086E-02 -2.57534455E-04  8.78014803E-04  2.39502952E-05
  7.65392513E-03  2.28065596E-04 -7.24812609E-04 -1.90397579E-05 -4.52132992E-03
 -4.96246733E-03 -4.48993297E-03  1.66760081E-04 -7.74833789E-06 -2.27775684E-05
  7.73822466E-06  4.08603606E-05 -2.01920993E-06  1.04828371E-05 -6.32953696E-06