#INFO: **** input file is /home/liwei01/wsr/dftpart/test_2body/c8b/gfea_c8.py ****
from dftpart import gfea3
from pyscf import lib

par = 8
with lib.with_omp_threads(par):
    fr0 = gfea3.GFEA()
    fr0.inputstyle = 'frg'
    fr0.method = ['hf', '6-31gss','cart','charge']
    fr0.gjfname = 'c8b'
    fr0.output = 'c8b'
    fr0.verbose = 9
    fr0.showinter = True
    fr0.kernel()

#INFO: ******************** input file end ********************


System: uname_result(system='Linux', node='master', release='3.10.0-693.el7.x86_64', version='#1 SMP Tue Aug 22 21:09:27 UTC 2017', machine='x86_64', processor='x86_64')  Threads 8
Python 3.6.4 |Anaconda, Inc.| (default, Jan 16 2018, 18:10:19) 
[GCC 7.2.0]
numpy 1.14.0  scipy 1.0.0
Date: Thu Mar 19 14:15:01 2020
PySCF version 1.6.1
PySCF path  /home/liwei01/zcheng/pyscf/pyscf
GIT HEAD      ref: refs/heads/master
GIT master branch  3adc7fd25839fe674469a52b764c3661e32d7318

[CONFIG] DEBUG = False
[CONFIG] MAX_MEMORY = 4000
[CONFIG] TMPDIR = .
[CONFIG] UNIT = angstrom
[CONFIG] VERBOSE = 3
[CONFIG] conf_file = None
[INPUT] verbose = 9
[INPUT] max_memory = 4000 
[INPUT] num. atoms = 19
[INPUT] num. electrons = 58
[INPUT] charge = 0
[INPUT] spin (= nelec alpha-beta = 2S) = 0
[INPUT] symmetry False subgroup None
[INPUT] Mole.unit = angstrom
[INPUT] Cartesian GTO integrals (6d 10f)
[INPUT]  1 C     -5.703344760000   0.033502950000  -0.552826490000 AA  -10.777759590373   0.063311399865  -1.044690660505 Bohr
[INPUT]  2 H     -5.306639520000   0.494438220000   0.327550490000 AA  -10.028095334593   0.934352821317   0.618980718067 Bohr
[INPUT]  3 C     -5.177907760000   0.769963360000  -1.799077680000 AA   -9.784827564660   1.455019876350  -3.399764092018 Bohr
[INPUT]  4 H     -5.484665830000   1.794439260000  -1.763741910000 AA  -10.364516303460   3.390998748567  -3.332989164317 Bohr
[INPUT]  5 H     -5.574613010000   0.309028090000  -2.679454660000 AA  -10.534491839337   0.583978454897  -5.063435470590 Bohr
[INPUT]  6 F     -5.316313560000  -1.259060100000  -0.597409000000 AA  -10.046376620711  -2.379278763367  -1.128939394350 Bohr
[INPUT]  7 C     -3.114572550000   1.431807010000  -3.075352510000 AA   -5.885689114588   2.705723112132  -5.811573980394 Bohr
[INPUT]  8 H     -3.421330610000   2.456282910000  -3.040016740000 AA   -6.465377834491   4.641701984350  -5.744799052693 Bohr
[INPUT]  9 C     -3.640009550000   0.695346600000  -1.829101320000 AA   -6.878621140301   1.314014635647  -3.456500548880 Bohr
[INPUT] 10 H     -3.333251480000  -0.329129310000  -1.864437080000 AA   -6.298932401501  -0.621964255467  -3.523275457684 Bohr
[INPUT] 11 H     -3.243304300000   1.156281860000  -0.948724340000 AA   -6.128956865624   2.185056038203  -1.792829170309 Bohr
[INPUT] 12 C     -1.576674330000   1.357190240000  -3.105376150000 AA   -2.979482671332   2.564717852533  -5.868310437256 Bohr
[INPUT] 13 H     -1.269916260000   0.332714340000  -3.140711910000 AA   -2.399793932532   0.628738980315  -5.935085346060 Bohr
[INPUT] 14 H     -1.179969090000   1.818125510000  -2.224999170000 AA   -2.229818415552   3.435759273985  -4.204639058685 Bohr
[INPUT] 15 N     -1.075120830000   2.060175180000  -4.294979550000 AA   -2.031683919515   3.893166858827  -8.116335060108 Bohr
[INPUT] 16 H     -1.361810610000   3.017629290000  -4.261955470000 AA   -2.573449086427   5.702492903566  -8.053928593392 Bohr
[INPUT] 17 H     -0.076485620000   2.011722740000  -4.314475430000 AA   -0.144536874268   3.801605017160  -8.153176933865 Bohr
[INPUT] 18 H     -6.771884430000   0.085347060000  -0.531965910000 AA  -12.797006919906   0.161282568937  -1.005269877505 Bohr
[INPUT] 19 H     -3.511277790000   0.970871740000  -3.955729490000 AA   -6.635353370368   1.834681690680  -7.475245358965 Bohr
[INPUT] ---------------- BASIS SET ---------------- 
[INPUT] l, kappa, [nprim/nctr], expnt,             c_1 c_2 ...
[INPUT] H
[INPUT] 0    0    [3    /1   ]  18.731137         0.0334946
                                2.8253937         0.23472695
                                0.6401217         0.81375733
[INPUT] 0    0    [1    /1   ]  0.1612778            1
[INPUT] 1    0    [1    /1   ]  1.1                  1
[INPUT] F
[INPUT] 0    0    [6    /1   ]  7001.71309        0.0018196169
                                1051.36609        0.0139160796
                                239.28569         0.0684053245
                                67.3974453        0.23318576
                                21.5199573        0.471267439
                                7.4031013         0.356618546
[INPUT] 0    0    [3    /1   ]  20.8479528        -0.108506975
                                4.80830834        -0.146451658
                                1.34406986        1.12868858
[INPUT] 0    0    [1    /1   ]  0.358151393          1
[INPUT] 1    0    [3    /1   ]  20.8479528        0.0716287243
                                4.80830834        0.345912103
                                1.34406986        0.722469957
[INPUT] 1    0    [1    /1   ]  0.358151393          1
[INPUT] 2    0    [1    /1   ]  0.8                  1
[INPUT] N
[INPUT] 0    0    [6    /1   ]  4173.511          0.0018348
                                627.4579          0.013995
                                142.9021          0.068587
                                40.23433          0.232241
                                12.82021          0.46907
                                4.390437          0.360455
[INPUT] 0    0    [3    /1   ]  11.626358         -0.114961
                                2.71628           -0.169118
                                0.772218          1.145852
[INPUT] 0    0    [1    /1   ]  0.2120313            1
[INPUT] 1    0    [3    /1   ]  11.626358         0.06758
                                2.71628           0.323907
                                0.772218          0.740895
[INPUT] 1    0    [1    /1   ]  0.2120313            1
[INPUT] 2    0    [1    /1   ]  0.8                  1
[INPUT] C
[INPUT] 0    0    [6    /1   ]  3047.5249         0.0018347
                                457.36951         0.0140373
                                103.94869         0.0688426
                                29.210155         0.2321844
                                9.286663          0.4679413
                                3.163927          0.362312
[INPUT] 0    0    [3    /1   ]  7.8682724         -0.1193324
                                1.8812885         -0.1608542
                                0.5442493         1.1434564
[INPUT] 0    0    [1    /1   ]  0.1687144            1
[INPUT] 1    0    [3    /1   ]  7.8682724         0.0689991
                                1.8812885         0.316424
                                0.5442493         0.7443083
[INPUT] 1    0    [1    /1   ]  0.1687144            1
[INPUT] 2    0    [1    /1   ]  0.8                  1

nuclear repulsion = 314.639349650099
number of shells = 78
number of NR pGTOs = 280
number of NR cGTOs = 165
basis = 6-31gss
ecp = {}
bas 0, expnt(s) = [3047.5249    457.36951   103.94869    29.210155    9.286663    3.163927]
bas 1, expnt(s) = [7.8682724 1.8812885 0.5442493]
bas 2, expnt(s) = [0.1687144]
bas 3, expnt(s) = [7.8682724 1.8812885 0.5442493]
bas 4, expnt(s) = [0.1687144]
bas 5, expnt(s) = [0.8]
bas 6, expnt(s) = [18.731137   2.8253937  0.6401217]
bas 7, expnt(s) = [0.1612778]
bas 8, expnt(s) = [1.1]
bas 9, expnt(s) = [3047.5249    457.36951   103.94869    29.210155    9.286663    3.163927]
bas 10, expnt(s) = [7.8682724 1.8812885 0.5442493]
bas 11, expnt(s) = [0.1687144]
bas 12, expnt(s) = [7.8682724 1.8812885 0.5442493]
bas 13, expnt(s) = [0.1687144]
bas 14, expnt(s) = [0.8]
bas 15, expnt(s) = [18.731137   2.8253937  0.6401217]
bas 16, expnt(s) = [0.1612778]
bas 17, expnt(s) = [1.1]
bas 18, expnt(s) = [18.731137   2.8253937  0.6401217]
bas 19, expnt(s) = [0.1612778]
bas 20, expnt(s) = [1.1]
bas 21, expnt(s) = [7001.71309   1051.36609    239.28569     67.3974453   21.5199573
    7.4031013]
bas 22, expnt(s) = [20.8479528   4.80830834  1.34406986]
bas 23, expnt(s) = [0.35815139]
bas 24, expnt(s) = [20.8479528   4.80830834  1.34406986]
bas 25, expnt(s) = [0.35815139]
bas 26, expnt(s) = [0.8]
bas 27, expnt(s) = [3047.5249    457.36951   103.94869    29.210155    9.286663    3.163927]
bas 28, expnt(s) = [7.8682724 1.8812885 0.5442493]
bas 29, expnt(s) = [0.1687144]
bas 30, expnt(s) = [7.8682724 1.8812885 0.5442493]
bas 31, expnt(s) = [0.1687144]
bas 32, expnt(s) = [0.8]
bas 33, expnt(s) = [18.731137   2.8253937  0.6401217]
bas 34, expnt(s) = [0.1612778]
bas 35, expnt(s) = [1.1]
bas 36, expnt(s) = [3047.5249    457.36951   103.94869    29.210155    9.286663    3.163927]
bas 37, expnt(s) = [7.8682724 1.8812885 0.5442493]
bas 38, expnt(s) = [0.1687144]
bas 39, expnt(s) = [7.8682724 1.8812885 0.5442493]
bas 40, expnt(s) = [0.1687144]
bas 41, expnt(s) = [0.8]
bas 42, expnt(s) = [18.731137   2.8253937  0.6401217]
bas 43, expnt(s) = [0.1612778]
bas 44, expnt(s) = [1.1]
bas 45, expnt(s) = [18.731137   2.8253937  0.6401217]
bas 46, expnt(s) = [0.1612778]
bas 47, expnt(s) = [1.1]
bas 48, expnt(s) = [3047.5249    457.36951   103.94869    29.210155    9.286663    3.163927]
bas 49, expnt(s) = [7.8682724 1.8812885 0.5442493]
bas 50, expnt(s) = [0.1687144]
bas 51, expnt(s) = [7.8682724 1.8812885 0.5442493]
bas 52, expnt(s) = [0.1687144]
bas 53, expnt(s) = [0.8]
bas 54, expnt(s) = [18.731137   2.8253937  0.6401217]
bas 55, expnt(s) = [0.1612778]
bas 56, expnt(s) = [1.1]
bas 57, expnt(s) = [18.731137   2.8253937  0.6401217]
bas 58, expnt(s) = [0.1612778]
bas 59, expnt(s) = [1.1]
bas 60, expnt(s) = [4173.511     627.4579    142.9021     40.23433    12.82021     4.390437]
bas 61, expnt(s) = [11.626358  2.71628   0.772218]
bas 62, expnt(s) = [0.2120313]
bas 63, expnt(s) = [11.626358  2.71628   0.772218]
bas 64, expnt(s) = [0.2120313]
bas 65, expnt(s) = [0.8]
bas 66, expnt(s) = [18.731137   2.8253937  0.6401217]
bas 67, expnt(s) = [0.1612778]
bas 68, expnt(s) = [1.1]
bas 69, expnt(s) = [18.731137   2.8253937  0.6401217]
bas 70, expnt(s) = [0.1612778]
bas 71, expnt(s) = [1.1]
bas 72, expnt(s) = [18.731137   2.8253937  0.6401217]
bas 73, expnt(s) = [0.1612778]
bas 74, expnt(s) = [1.1]
bas 75, expnt(s) = [18.731137   2.8253937  0.6401217]
bas 76, expnt(s) = [0.1612778]
bas 77, expnt(s) = [1.1]
CPU time:        41.69
arg.atm = [[ 6 20  1 23  0  0]
 [ 1 24  1 27  0  0]
 [ 6 28  1 31  0  0]
 [ 1 32  1 35  0  0]
 [ 1 36  1 39  0  0]
 [ 9 40  1 43  0  0]
 [ 6 44  1 47  0  0]
 [ 1 48  1 51  0  0]
 [ 6 52  1 55  0  0]
 [ 1 56  1 59  0  0]
 [ 1 60  1 63  0  0]
 [ 6 64  1 67  0  0]
 [ 1 68  1 71  0  0]
 [ 1 72  1 75  0  0]
 [ 7 76  1 79  0  0]
 [ 1 80  1 83  0  0]
 [ 1 84  1 87  0  0]
 [ 1 88  1 91  0  0]
 [ 1 92  1 95  0  0]]
arg.bas = [[  0   0   6   1   0 166 172   0]
 [  0   0   3   1   0 178 181   0]
 [  0   0   1   1   0 184 185   0]
 [  0   1   3   1   0 186 189   0]
 [  0   1   1   1   0 192 193   0]
 [  0   2   1   1   0 194 195   0]
 [  1   0   3   1   0  96  99   0]
 [  1   0   1   1   0 102 103   0]
 [  1   1   1   1   0 104 105   0]
 [  2   0   6   1   0 166 172   0]
 [  2   0   3   1   0 178 181   0]
 [  2   0   1   1   0 184 185   0]
 [  2   1   3   1   0 186 189   0]
 [  2   1   1   1   0 192 193   0]
 [  2   2   1   1   0 194 195   0]
 [  3   0   3   1   0  96  99   0]
 [  3   0   1   1   0 102 103   0]
 [  3   1   1   1   0 104 105   0]
 [  4   0   3   1   0  96  99   0]
 [  4   0   1   1   0 102 103   0]
 [  4   1   1   1   0 104 105   0]
 [  5   0   6   1   0 106 112   0]
 [  5   0   3   1   0 118 121   0]
 [  5   0   1   1   0 124 125   0]
 [  5   1   3   1   0 126 129   0]
 [  5   1   1   1   0 132 133   0]
 [  5   2   1   1   0 134 135   0]
 [  6   0   6   1   0 166 172   0]
 [  6   0   3   1   0 178 181   0]
 [  6   0   1   1   0 184 185   0]
 [  6   1   3   1   0 186 189   0]
 [  6   1   1   1   0 192 193   0]
 [  6   2   1   1   0 194 195   0]
 [  7   0   3   1   0  96  99   0]
 [  7   0   1   1   0 102 103   0]
 [  7   1   1   1   0 104 105   0]
 [  8   0   6   1   0 166 172   0]
 [  8   0   3   1   0 178 181   0]
 [  8   0   1   1   0 184 185   0]
 [  8   1   3   1   0 186 189   0]
 [  8   1   1   1   0 192 193   0]
 [  8   2   1   1   0 194 195   0]
 [  9   0   3   1   0  96  99   0]
 [  9   0   1   1   0 102 103   0]
 [  9   1   1   1   0 104 105   0]
 [ 10   0   3   1   0  96  99   0]
 [ 10   0   1   1   0 102 103   0]
 [ 10   1   1   1   0 104 105   0]
 [ 11   0   6   1   0 166 172   0]
 [ 11   0   3   1   0 178 181   0]
 [ 11   0   1   1   0 184 185   0]
 [ 11   1   3   1   0 186 189   0]
 [ 11   1   1   1   0 192 193   0]
 [ 11   2   1   1   0 194 195   0]
 [ 12   0   3   1   0  96  99   0]
 [ 12   0   1   1   0 102 103   0]
 [ 12   1   1   1   0 104 105   0]
 [ 13   0   3   1   0  96  99   0]
 [ 13   0   1   1   0 102 103   0]
 [ 13   1   1   1   0 104 105   0]
 [ 14   0   6   1   0 136 142   0]
 [ 14   0   3   1   0 148 151   0]
 [ 14   0   1   1   0 154 155   0]
 [ 14   1   3   1   0 156 159   0]
 [ 14   1   1   1   0 162 163   0]
 [ 14   2   1   1   0 164 165   0]
 [ 15   0   3   1   0  96  99   0]
 [ 15   0   1   1   0 102 103   0]
 [ 15   1   1   1   0 104 105   0]
 [ 16   0   3   1   0  96  99   0]
 [ 16   0   1   1   0 102 103   0]
 [ 16   1   1   1   0 104 105   0]
 [ 17   0   3   1   0  96  99   0]
 [ 17   0   1   1   0 102 103   0]
 [ 17   1   1   1   0 104 105   0]
 [ 18   0   3   1   0  96  99   0]
 [ 18   0   1   1   0 102 103   0]
 [ 18   1   1   1   0 104 105   0]]
arg.env = [ 1.37036000e+02  0.00000000e+00  0.00000000e+00  0.00000000e+00
  0.00000000e+00  0.00000000e+00  0.00000000e+00  0.00000000e+00
  0.00000000e+00  0.00000000e+00  0.00000000e+00  0.00000000e+00
  0.00000000e+00  0.00000000e+00  0.00000000e+00  0.00000000e+00
  0.00000000e+00  0.00000000e+00  0.00000000e+00  0.00000000e+00
 -1.07777596e+01  6.33113999e-02 -1.04469066e+00  0.00000000e+00
 -1.00280953e+01  9.34352821e-01  6.18980718e-01  0.00000000e+00
 -9.78482756e+00  1.45501988e+00 -3.39976409e+00  0.00000000e+00
 -1.03645163e+01  3.39099875e+00 -3.33298916e+00  0.00000000e+00
 -1.05344918e+01  5.83978455e-01 -5.06343547e+00  0.00000000e+00
 -1.00463766e+01 -2.37927876e+00 -1.12893939e+00  0.00000000e+00
 -5.88568911e+00  2.70572311e+00 -5.81157398e+00  0.00000000e+00
 -6.46537783e+00  4.64170198e+00 -5.74479905e+00  0.00000000e+00
 -6.87862114e+00  1.31401464e+00 -3.45650055e+00  0.00000000e+00
 -6.29893240e+00 -6.21964255e-01 -3.52327546e+00  0.00000000e+00
 -6.12895687e+00  2.18505604e+00 -1.79282917e+00  0.00000000e+00
 -2.97948267e+00  2.56471785e+00 -5.86831044e+00  0.00000000e+00
 -2.39979393e+00  6.28738980e-01 -5.93508535e+00  0.00000000e+00
 -2.22981842e+00  3.43575927e+00 -4.20463906e+00  0.00000000e+00
 -2.03168392e+00  3.89316686e+00 -8.11633506e+00  0.00000000e+00
 -2.57344909e+00  5.70249290e+00 -8.05392859e+00  0.00000000e+00
 -1.44536874e-01  3.80160502e+00 -8.15317693e+00  0.00000000e+00
 -1.27970069e+01  1.61282569e-01 -1.00526988e+00  0.00000000e+00
 -6.63535337e+00  1.83468169e+00 -7.47524536e+00  0.00000000e+00
  1.87311370e+01  2.82539370e+00  6.40121700e-01  7.61926220e-01
  1.29237100e+00  1.47131900e+00  1.61277800e-01  6.42977783e-01
  1.10000000e+00  3.28643653e+00  7.00171309e+03  1.05136609e+03
  2.39285690e+02  6.73974453e+01  2.15199573e+01  7.40310130e+00
  3.51882946e+00  6.49153500e+00  1.05145933e+01  1.38579703e+01
  1.18963440e+01  4.04370270e+00  2.08479528e+01  4.80830834e+00
  1.34406986e+00 -2.67467022e+00 -1.20144405e+00  3.55963557e+00
  3.58151393e-01  1.16967446e+00  2.08479528e+01  4.80830834e+00
  1.34406986e+00  9.30895386e+00  7.18522772e+00  3.05022227e+00
  3.58151393e-01  8.08290917e-01  8.00000000e-01  1.76578110e+00
  4.17351100e+03  6.27457900e+02  1.42902100e+02  4.02343300e+01
  1.28202100e+01  4.39043700e+00  2.40702054e+00  4.43278063e+00
  7.16202212e+00  9.37349097e+00  8.02923011e+00  2.76214682e+00
  1.16263580e+01  2.71628000e+00  7.72218000e-01 -1.82872504e+00
 -9.04036253e-01  2.38478141e+00  2.12031300e-01  7.89432508e-01
  1.16263580e+01  2.71628000e+00  7.72218000e-01  4.23260113e+00
  3.29513374e+00  1.56464604e+00  2.12031300e-01  4.19743870e-01
  8.00000000e-01  1.76578110e+00  3.04752490e+03  4.57369510e+02
  1.03948690e+02  2.92101550e+01  9.28666300e+00  3.16392700e+00
  1.90125588e+00  3.50751108e+00  5.66221808e+00  7.37052623e+00
  6.28928397e+00  2.17153894e+00  7.86827240e+00  1.88128850e+00
  5.44249300e-01 -1.41639039e+00 -6.52813326e-01  1.83055623e+00
  1.68714400e-01  6.65088040e-01  7.86827240e+00  1.88128850e+00
  5.44249300e-01  2.65263212e+00  2.03386926e+00  1.01504332e+00
  1.68714400e-01  3.15445679e-01  8.00000000e-01  1.76578110e+00]
ecpbas  = []


******** <class 'pyscf.qmmm.itrf.mm_charge.<locals>.QMMM'> ********
method = QMMM-RHF
initial guess = minao
damping factor = 0
level shift factor = 0
DIIS = <class 'pyscf.scf.diis.CDIIS'>
DIIS start cycle = 1
DIIS space = 8
SCF tol = 1e-09
SCF gradient tol = None
max. SCF cycles = 50
direct_scf = True
direct_scf_tol = 1e-13
chkfile to save SCF result = /home/liwei01/wsr/dftpart/test_2body/c8b/tmpd_0n42ah
max_memory 4000 MB (current use 219 MB)
** Add background charges for <class 'pyscf.scf.hf.RHF'> **
Charge      Location
-0.061835    [-13.68396603   0.20431664  -0.9879542 ]
0.183434    [-14.26365475   2.14029551  -0.92117928]
0.186056    [-14.43363029  -0.66672476  -2.65162558]
-0.807128    [-14.60597433  -1.08798408   1.1988997 ]
0.489623    [-16.41763549  -1.00008471   1.23426789]
Set gradient conv threshold to 3.16228e-05
Nelec from initial guess = 57.96115914907433
cond(S) = 3814.569409042453
E1 = -1094.9083411873723  E_coul = 428.9019702161552
init E= -351.88393047816
    CPU time for initialize scf      6.73 sec, wall time      0.84 sec
  HOMO = -0.277413166450536  LUMO = 0.140290169799432
  mo_energy =
[-26.46728956 -15.65232415 -11.45614529 -11.45345573 -11.44928285
 -11.44452846 -11.41988118  -1.87568488  -1.67226019  -1.51812914
  -1.30512663  -1.09391154  -0.95742902  -0.94539151  -0.74277454
  -0.71771047  -0.68593239  -0.68021957  -0.6298266   -0.59030421
  -0.53859023  -0.4981598   -0.46598852  -0.44263994  -0.41841171
  -0.40143022  -0.3800568   -0.3373637   -0.27741317   0.14029017
   0.1479929    0.17658559   0.18815221   0.20528805   0.20844176
   0.23677007   0.24813588   0.26021921   0.26706646   0.28140193
   0.28855994   0.29251583   0.3029601    0.31501565   0.32330897
   0.35616585   0.37203322   0.61130154   0.65465426   0.66812467
   0.68654089   0.70314397   0.71808255   0.73764041   0.77460269
   0.80297933   0.82008491   0.83579786   0.87276028   0.88988643
   0.90104875   0.94036267   0.96378494   0.99716258   1.00679748
   1.01813333   1.056731     1.06439251   1.07600246   1.08388615
   1.08702008   1.10624299   1.11154927   1.12022442   1.13633583
   1.13865194   1.21831038   1.2331037    1.32186899   1.41133678
   1.42175875   1.45815795   1.51738934   1.53547323   1.58686546
   1.61053876   1.62845388   1.68746322   1.69993711   1.76291367
   1.84150751   1.86482052   1.8800347    1.89472888   1.94864756
   1.97749823   2.00071853   2.0289604    2.05220767   2.06988691
   2.09197003   2.10915067   2.15972659   2.20974421   2.23174858
   2.27204573   2.30308422   2.31915641   2.32653485   2.33513118
   2.37308898   2.39301317   2.41135457   2.43878511   2.47515599
   2.48753687   2.49626301   2.51067777   2.54422023   2.56005884
   2.57978894   2.61995487   2.65076578   2.65818235   2.698308
   2.74962637   2.76829482   2.8246834    2.87404496   2.88827811
   2.90628672   2.92577201   2.98352074   3.01920739   3.04744833
   3.06932643   3.11156405   3.1280726    3.15089545   3.17493288
   3.19834125   3.21449146   3.23991429   3.25582865   3.28084571
   3.37198695   3.53660894   3.57355361   3.60279877   3.62367338
   3.64010609   3.67696173   3.71662355   3.76235623   3.83096016
   3.85354925   3.87933127   3.88297831   4.31906147   4.52590313
   4.59154109   4.7239121    4.81153038   4.9030552    5.03671549]
E1 = -1102.8338550478256  E_coul = 438.5635584902572
cycle= 1 E= -350.147856064511  delta_E= 1.74  |g|= 0.585  |ddm|= 3.54
    CPU time for cycle= 1      0.90 sec, wall time      0.11 sec
diis-norm(errvec)=1.46175
diis-c [-2.13670948  1.        ]
  HOMO = -0.357885125348271  LUMO = 0.226119612736828
  mo_energy =
[-26.0581597  -15.47785841 -11.37878649 -11.23322168 -11.18380785
 -11.171121   -11.15914797  -1.50938979  -1.16366895  -1.06922289
  -0.99430296  -0.89794653  -0.81950249  -0.79329062  -0.67775433
  -0.65777639  -0.6546171   -0.62176541  -0.60047771  -0.58514043
  -0.55600459  -0.51586855  -0.49888581  -0.47743888  -0.46928386
  -0.46294052  -0.44805513  -0.40548108  -0.35788513   0.22611961
   0.23537893   0.26160692   0.27672418   0.28109562   0.31255658
   0.32153514   0.33083474   0.33996254   0.34924304   0.36117423
   0.37303739   0.38998345   0.3938463    0.40253152   0.46235366
   0.47599243   0.49688503   0.70917785   0.73847419   0.75147779
   0.77547582   0.79606095   0.80795879   0.82109564   0.87001805
   0.92471631   0.94880439   0.95606375   0.96796371   1.00499333
   1.01610439   1.05227078   1.07253754   1.09439882   1.10781018
   1.11421795   1.1403473    1.1568868    1.17578022   1.18083886
   1.1999255    1.20337355   1.2165671    1.22719027   1.23146657
   1.24075241   1.31313974   1.32858629   1.44196887   1.51668586
   1.53161942   1.56799662   1.6173051    1.64217797   1.68287455
   1.75164034   1.77158038   1.79731545   1.79928567   1.85218235
   1.9384771    1.98130069   1.99466417   2.01075841   2.04617756
   2.08957222   2.12181177   2.14047245   2.19193404   2.19981744
   2.22058243   2.23248813   2.2824861    2.32903705   2.34632102
   2.35132548   2.3951708    2.42040528   2.43267669   2.43646087
   2.46477379   2.49294808   2.50850356   2.53091089   2.54164439
   2.57022084   2.59797107   2.6058985    2.63314349   2.64650994
   2.68054642   2.71567516   2.74249595   2.75190491   2.78630972
   2.82005695   2.86144466   2.90335243   2.97448138   2.99014049
   3.0124241    3.05207304   3.07908423   3.1117198    3.14138736
   3.17372714   3.21482672   3.21993858   3.26572119   3.28882794
   3.29237072   3.32143116   3.3257958    3.34843705   3.36042754
   3.49149746   3.64468472   3.67735482   3.7006648    3.71776068
   3.73671051   3.77050924   3.82885879   3.85474954   3.91424927
   3.95140048   3.99773638   4.01869346   4.45492887   4.67118865
   4.77217733   4.87304551   4.93778926   5.05452136   5.21051285]
E1 = -1101.052271212323  E_coul = 436.7052503759722
cycle= 2 E= -350.224580343293  delta_E= -0.0767  |g|= 0.255  |ddm|= 0.567
    CPU time for cycle= 2      0.88 sec, wall time      0.11 sec
diis-norm(errvec)=0.565945
diis-c [-0.25953409  0.15247744  0.84752256]
  HOMO = -0.380723325520894  LUMO = 0.225825266860121
  mo_energy =
[-26.32641855 -15.54512373 -11.24007043 -11.23706583 -11.22142946
 -11.21866902 -11.21592704  -1.5887269   -1.17766034  -1.07847626
  -0.99640557  -0.89816609  -0.82294275  -0.80369783  -0.69571305
  -0.68561951  -0.66926614  -0.65010003  -0.63708597  -0.60340713
  -0.57157822  -0.54389267  -0.51301449  -0.51018662  -0.48951723
  -0.4805513   -0.46297523  -0.42202604  -0.38072333   0.22582527
   0.24003586   0.26516466   0.27793274   0.28269117   0.31868256
   0.33292363   0.33470109   0.34540732   0.35040414   0.36238716
   0.36669326   0.38737032   0.38988163   0.40552147   0.45626638
   0.47399355   0.498503     0.70215145   0.73769346   0.7462843
   0.76216904   0.79308342   0.81267206   0.83593748   0.87600331
   0.91864733   0.93538573   0.94379332   0.96692825   0.99148875
   1.00350467   1.04142248   1.07956277   1.09438127   1.10622569
   1.11892581   1.14741516   1.16493458   1.17144584   1.18597
   1.1964618    1.20190373   1.21646046   1.2174275    1.23044478
   1.23826191   1.30263915   1.31779303   1.41332138   1.5058194
   1.52540927   1.55092266   1.60329758   1.63051797   1.67334358
   1.7047608    1.71991743   1.77130896   1.7938215    1.85245663
   1.93682861   1.96960445   1.98364025   2.00053649   2.03625037
   2.08163533   2.10794711   2.11851944   2.16838993   2.18662804
   2.20939312   2.2137412    2.26557655   2.31869548   2.33542855
   2.35231004   2.40542179   2.41590647   2.42681969   2.43721472
   2.47586988   2.49709691   2.52001581   2.52236145   2.54454586
   2.56531647   2.59447736   2.60297022   2.63157429   2.65207291
   2.67677084   2.71225022   2.73965865   2.74873035   2.78643727
   2.84047483   2.86474645   2.90411118   2.97100655   2.98969706
   3.01373291   3.04375855   3.08279796   3.11354629   3.14402747
   3.17299464   3.21702951   3.2241086    3.26134617   3.27872099
   3.30250738   3.31406343   3.33530325   3.34706097   3.35946972
   3.47948337   3.65179102   3.68487518   3.70978851   3.7276626
   3.73633786   3.77524432   3.82950833   3.86873954   3.93311118
   3.95092651   3.99470453   4.00409806   4.42760126   4.65595172
   4.73136166   4.86329417   4.94690331   5.04807904   5.18899024]
E1 = -1102.0329396539742  E_coul = 437.67486463191267
cycle= 3 E= -350.235634529004  delta_E= -0.0111  |g|= 0.0932  |ddm|= 0.226
    CPU time for cycle= 3      0.86 sec, wall time      0.11 sec
diis-norm(errvec)=0.195978
diis-c [-0.00756069 -0.09186075  0.1499878   0.94187295]
  HOMO = -0.376635088012209  LUMO = 0.228897246917721
  mo_energy =
[-26.24038946 -15.52808335 -11.27145517 -11.23386726 -11.21585855
 -11.2081783  -11.20714196  -1.5639529   -1.16995751  -1.07424381
  -0.99357942  -0.89442384  -0.81781093  -0.79874685  -0.68566798
  -0.67321516  -0.66242551  -0.63990416  -0.62733949  -0.59846203
  -0.56774914  -0.53917116  -0.5099896   -0.50620199  -0.48712511
  -0.47816564  -0.46299843  -0.42393165  -0.37663509   0.22889725
   0.2425489    0.26706574   0.28011365   0.2847595    0.32103373
   0.33391734   0.3364853    0.34725332   0.35286084   0.36426683
   0.36960976   0.3897351    0.39322362   0.40752462   0.4607421
   0.47691105   0.50048846   0.70426046   0.73814488   0.74721685
   0.76527486   0.79529359   0.81275142   0.83472501   0.87513546
   0.92007507   0.93955591   0.94652795   0.9672236    0.99670964
   1.00692459   1.04508842   1.08268424   1.09502626   1.10941914
   1.11966508   1.14800187   1.16805874   1.1766864    1.18857454
   1.19907927   1.20552708   1.21968968   1.22140099   1.23389738
   1.24166971   1.30700387   1.32217125   1.42138989   1.50984699
   1.52994099   1.55668052   1.60826631   1.63668211   1.67692063
   1.71890938   1.73275798   1.77629768   1.79740731   1.85475789
   1.93986063   1.97463243   1.98843211   2.00504412   2.04160958
   2.08606448   2.11609475   2.12352231   2.17519877   2.19202363
   2.21389894   2.21950912   2.27165612   2.32261622   2.34100068
   2.35691358   2.40808431   2.42060525   2.43186009   2.43987589
   2.47875151   2.50106793   2.5205225    2.52720341   2.55169056
   2.57057754   2.59970963   2.60643471   2.63601143   2.65528297
   2.68216676   2.71727943   2.74518798   2.7531514    2.79124237
   2.83985585   2.86779898   2.90980459   2.97616907   2.99374353
   3.01666168   3.04844551   3.08625759   3.1164668    3.14666303
   3.17706736   3.22068515   3.22656598   3.26653569   3.28428012
   3.30337638   3.31756814   3.33755695   3.35227862   3.36436876
   3.48505304   3.6569816    3.68916168   3.71471013   3.72990308
   3.74132829   3.77864896   3.83477978   3.87115662   3.93379426
   3.95420022   3.99898574   4.01081506   4.43539503   4.66333362
   4.74149163   4.86611405   4.94518714   5.04837794   5.19305763]
E1 = -1101.7789174238042  E_coul = 437.4191603222321
cycle= 4 E= -350.237316608514  delta_E= -0.00168  |g|= 0.0118  |ddm|= 0.0703
    CPU time for cycle= 4      0.85 sec, wall time      0.11 sec
diis-norm(errvec)=0.0254841
diis-c [-4.17107804e-04 -1.18155694e-02 -1.07433569e-02  7.62635642e-02
  9.46295362e-01]
  HOMO = -0.376217337171931  LUMO = 0.228970658357777
  mo_energy =
[-26.25299932 -15.52657275 -11.27311343 -11.23366687 -11.20980711
 -11.20589878 -11.20497504  -1.5685295   -1.16970027  -1.07251171
  -0.99266323  -0.89418387  -0.81763825  -0.79781704  -0.68722465
  -0.67570511  -0.66256779  -0.6412388   -0.62839319  -0.59828649
  -0.56730365  -0.53914576  -0.50960518  -0.50647331  -0.48743504
  -0.47740492  -0.46287376  -0.42359219  -0.37621734   0.22897066
   0.24279454   0.26750991   0.28070746   0.28495157   0.32122139
   0.33377413   0.33694109   0.34725281   0.35321208   0.3644663
   0.37011534   0.39001935   0.3940571    0.40771189   0.46167373
   0.47753268   0.5009894    0.70473801   0.7385066    0.74784492
   0.76597978   0.7956429    0.81292362   0.83336009   0.87520125
   0.92082134   0.94026011   0.94753045   0.96785702   0.99690987
   1.00783312   1.04578039   1.08338146   1.09517488   1.1102916
   1.12008418   1.14793675   1.16865149   1.17682901   1.1887357
   1.19962976   1.20630116   1.21989686   1.22224209   1.2342335
   1.24194329   1.30715921   1.32226576   1.42087251   1.51024507
   1.52997695   1.55656668   1.60837954   1.63645961   1.67732715
   1.71712011   1.73057261   1.77618313   1.79771771   1.85469034
   1.93992537   1.97574228   1.98929159   2.00544103   2.0417717
   2.08555856   2.11539826   2.12344551   2.17509099   2.19274137
   2.21440183   2.21949243   2.2713396    2.32234525   2.34065703
   2.35545661   2.40728511   2.42056789   2.43215566   2.44061776
   2.47893836   2.50125217   2.52045457   2.52796984   2.55125703
   2.57133719   2.60006371   2.6066125    2.63657662   2.65561517
   2.68242519   2.71777613   2.74561249   2.7537019    2.79142674
   2.83985285   2.86814542   2.90978112   2.97666106   2.99398305
   3.01714006   3.04937001   3.08624131   3.1166513    3.14723379
   3.17736249   3.22105344   3.22699341   3.26715718   3.28519018
   3.3034364    3.31843101   3.33767568   3.35230274   3.36436528
   3.48279971   3.65783079   3.68969098   3.71514418   3.72966147
   3.74208449   3.77897848   3.83544024   3.87139078   3.93390253
   3.95472166   3.99992816   4.01196161   4.43633015   4.66267193
   4.74200236   4.86645358   4.94545681   5.04984046   5.19480748]
E1 = -1101.7713469259056  E_coul = 437.41155437961845
cycle= 5 E= -350.23735205323  delta_E= -3.54e-05  |g|= 0.00358  |ddm|= 0.0161
    CPU time for cycle= 5      0.85 sec, wall time      0.11 sec
diis-norm(errvec)=0.00810699
diis-c [-2.87507708e-05  4.13055068e-03 -9.74786297e-03 -4.88598393e-02
  1.38118874e-01  9.16358277e-01]
  HOMO = -0.376768429614266  LUMO = 0.228763687424569
  mo_energy =
[-26.25071416 -15.52786238 -11.27205803 -11.2340454  -11.21235918
 -11.2074499  -11.20656134  -1.56767144  -1.17015893  -1.07331218
  -0.99312157  -0.89441855  -0.81792372  -0.79833986  -0.68702035
  -0.67533822  -0.66285551  -0.64105609  -0.62855653  -0.59867284
  -0.56782405  -0.53959031  -0.51012576  -0.5068954   -0.48775693
  -0.47800419  -0.46337997  -0.42433246  -0.37676843   0.22876369
   0.24252735   0.26727744   0.28042722   0.28478415   0.32100528
   0.33371632   0.33671875   0.34711556   0.35294717   0.36427481
   0.3697889    0.38982722   0.39363483   0.40744813   0.4611567
   0.47705118   0.50062781   0.70428069   0.73799977   0.74728514
   0.76546187   0.79526476   0.81256114   0.83356235   0.87491478
   0.92027359   0.93964962   0.94676805   0.96731905   0.99643028
   1.00714427   1.04528135   1.08294568   1.09490116   1.10976468
   1.11975901   1.14772049   1.16819763   1.17643715   1.18847303
   1.19925014   1.20574667   1.21954737   1.22174981   1.23387862
   1.24153855   1.30675675   1.32200114   1.42089977   1.50980826
   1.52957971   1.55631236   1.60805358   1.6361745    1.67689708
   1.7172961    1.73092161   1.77593449   1.79725438   1.85445151
   1.93958121   1.97507714   1.98866285   2.00491192   2.0413993
   2.08539335   2.11527728   2.12313849   2.17473455   2.19216849
   2.21390652   2.2191243    2.27110925   2.32211965   2.34043355
   2.35559349   2.40723798   2.42026635   2.4317778    2.44007899
   2.47861754   2.50087316   2.52017736   2.5273922    2.55091922
   2.57087925   2.59968579   2.60630234   2.63618611   2.65525247
   2.68200312   2.71733053   2.74515912   2.75326115   2.7910647
   2.8395881    2.86775733   2.90946263   2.97621375   2.993598
   3.01666136   3.04872868   3.08594584   3.11630381   3.14679909
   3.17695808   3.22065214   3.22658439   3.26665797   3.28459949
   3.30319315   3.31790107   3.337401     3.35198047   3.36400883
   3.48323809   3.65728609   3.68923715   3.71469631   3.72938717
   3.74154302   3.7785568    3.83490296   3.87102128   3.93363494
   3.95422689   3.99934934   4.01126764   4.43573711   4.66265403
   4.74139517   4.86609781   4.94515613   5.04902534   5.19377841]
E1 = -1101.774915987252  E_coul = 437.41511923864823
cycle= 6 E= -350.237356255546  delta_E= -4.2e-06  |g|= 0.00093  |ddm|= 0.00506
    CPU time for cycle= 6      0.86 sec, wall time      0.11 sec
diis-norm(errvec)=0.00205397
diis-c [-2.59438646e-06  1.16671016e-03  1.76903342e-04 -9.76573782e-03
 -5.28125183e-02  1.33102511e-02  1.04792439e+00]
  HOMO = -0.376762213310648  LUMO = 0.228797595769916
  mo_energy =
[-26.25100201 -15.52751492 -11.27212175 -11.23409689 -11.21203647
 -11.20720088 -11.20633071  -1.56784488  -1.17004763  -1.07321908
  -0.99308009  -0.89440085  -0.81788982  -0.79829565  -0.68707015
  -0.67543908  -0.6628027   -0.64107518  -0.62855225  -0.5986311
  -0.56776016  -0.53957397  -0.51009039  -0.50689278  -0.48776251
  -0.47796059  -0.46336177  -0.42430812  -0.37676221   0.2287976
   0.24256445   0.2672887    0.28045848   0.28481013   0.32106814
   0.33372391   0.33673564   0.34712234   0.3529773    0.36428715
   0.36982826   0.38983232   0.39367641   0.40748008   0.46121714
   0.4771073    0.50066108   0.70431237   0.73803021   0.747318
   0.76549271   0.79527982   0.812579     0.83350566   0.87492084
   0.92030808   0.93970253   0.94683137   0.967374     0.99646677
   1.0072098    1.04532716   1.08298905   1.0949271    1.1098224
   1.11979214   1.14775228   1.16827525   1.17651462   1.18852012
   1.19927956   1.20580577   1.21960056   1.22177933   1.23390928
   1.24159636   1.30680369   1.32201237   1.4208394    1.509857
   1.52959605   1.55631413   1.6080768    1.63617807   1.67692988
   1.71717411   1.73078279   1.77592372   1.79730713   1.85444654
   1.93959677   1.97512677   1.98871235   2.00496389   2.04142881
   2.08538569   2.11525465   2.12315117   2.17473491   2.19221529
   2.21393312   2.21913989   2.27110693   2.32211245   2.34043322
   2.35554503   2.40723324   2.42029897   2.43179377   2.44012881
   2.47863426   2.50090991   2.52020491   2.52744642   2.55099978
   2.57089884   2.59970568   2.60631529   2.6362048    2.65527555
   2.68205016   2.71736627   2.74520279   2.7532967    2.79110246
   2.83961427   2.86779775   2.90950767   2.97625132   2.99364053
   3.01670513   3.04878965   3.08597843   3.11633345   3.14683017
   3.17700111   3.22068054   3.22662583   3.26669414   3.28464157
   3.30320583   3.31793891   3.33741913   3.35201396   3.36405812
   3.48313336   3.65733287   3.68928076   3.7147539    3.72945036
   3.74159297   3.77861114   3.83496926   3.87107249   3.93366149
   3.95429269   3.99939568   4.01132402   4.43583156   4.66261138
   4.74143914   4.86610382   4.94518134   5.04909979   5.19388824]
E1 = -1101.7726736619652  E_coul = 437.41287642465835
cycle= 7 E= -350.237356744249  delta_E= -4.89e-07  |g|= 0.000287  |ddm|= 0.0022
    CPU time for cycle= 7      0.86 sec, wall time      0.11 sec
diis-norm(errvec)=0.000633985
diis-c [-1.68252402e-07 -4.29181101e-04  6.44822092e-04  4.39376404e-03
  1.55541752e-03 -8.12201381e-02 -1.71794142e-01  1.24684946e+00]
  HOMO = -0.376805904332231  LUMO = 0.228791680126783
  mo_energy =
[-26.25098432 -15.52761839 -11.27214089 -11.23401485 -11.21206501
 -11.20724281 -11.20635961  -1.56786584  -1.17005997  -1.07324015
  -0.99309083  -0.89440612  -0.81789488  -0.79830486  -0.68707945
  -0.67545693  -0.66280689  -0.64107389  -0.62857179  -0.59863583
  -0.56776009  -0.53958682  -0.51009726  -0.50690387  -0.48776672
  -0.47796567  -0.46337233  -0.4243251   -0.3768059    0.22879168
   0.24255678   0.26729087   0.28045603   0.28480887   0.32106465
   0.33372374   0.3367395    0.34712143   0.35297609   0.36428782
   0.3698229    0.3898374    0.39367524   0.40747814   0.4612101
   0.47710445   0.50065955   0.7043086    0.73802839   0.74731331
   0.7654892    0.79527807   0.81257964   0.83349745   0.87491894
   0.92029911   0.93968932   0.94682815   0.96736309   0.99643704
   1.00720128   1.04532415   1.08299101   1.09492476   1.1098176
   1.1197894    1.14775053   1.16826551   1.17650112   1.18851719
   1.19928089   1.20580145   1.21959475   1.22178003   1.23390871
   1.24158691   1.30679098   1.32200016   1.42082643   1.50984961
   1.52958352   1.55630698   1.60807063   1.63617165   1.67692484
   1.71714861   1.73075632   1.77591526   1.79729546   1.85444133
   1.93959087   1.97511745   1.98870609   2.00495281   2.0414209
   2.08537259   2.1152422    2.12314036   2.17472701   2.19221183
   2.21393205   2.21912779   2.2710948    2.32210079   2.34042689
   2.3555389    2.40722911   2.42029103   2.43179663   2.44012481
   2.47863632   2.50090435   2.52020325   2.52743841   2.55099358
   2.57089733   2.59970244   2.60630661   2.63620405   2.65527377
   2.68204564   2.7173646    2.74519719   2.75329345   2.79109801
   2.83960979   2.86779517   2.9095021    2.97625013   2.99363577
   3.01669629   3.04878235   3.08597164   3.11632707   3.14682793
   3.17699645   3.22068087   3.22662307   3.26669034   3.28463553
   3.30320065   3.31793343   3.33741854   3.35201335   3.36405128
   3.48311374   3.65732815   3.68928152   3.71475148   3.72944241
   3.74159591   3.77860494   3.8349547    3.87106764   3.93365911
   3.95428819   3.99939983   4.01131698   4.43580182   4.66259329
   4.74142337   4.86610236   4.94517495   5.04909601   5.19387275]
E1 = -1101.7727943832929  E_coul = 437.4129970851136
cycle= 8 E= -350.237356805122  delta_E= -6.09e-08  |g|= 7.5e-05  |ddm|= 0.000967
    CPU time for cycle= 8      0.85 sec, wall time      0.11 sec
diis-norm(errvec)=0.000173533
diis-c [-1.16609663e-08 -1.22893918e-04  3.56054330e-05  1.11217649e-03
  5.10674705e-03 -9.62795427e-03 -1.07964720e-01  1.45979102e-01
  9.65481937e-01]
  HOMO = -0.376798650018094  LUMO = 0.228792507996475
  mo_energy =
[-26.25097816 -15.52756765 -11.27211578 -11.23405704 -11.21207994
 -11.20723727 -11.20636514  -1.56786563  -1.170051    -1.07323948
  -0.99309101  -0.89440526  -0.81789612  -0.79830607  -0.68707706
  -0.67545514  -0.66280289  -0.64106988  -0.62856746  -0.59863439
  -0.56775977  -0.53958798  -0.5100987   -0.50690431  -0.48776728
  -0.47796611  -0.46337089  -0.42432313  -0.37679865   0.22879251
   0.24255716   0.26728949   0.28045521   0.2848098    0.32106768
   0.33372409   0.33673856   0.34712281   0.35297603   0.3642871
   0.36982325   0.38983741   0.3936747    0.40747797   0.46121192
   0.47710299   0.50065895   0.70430861   0.73802678   0.74731359
   0.76548808   0.7952767    0.81257806   0.83350113   0.87491975
   0.92030022   0.9396902    0.94682329   0.96736398   0.99644333
   1.00720086   1.04532504   1.0829893    1.09492625   1.10981627
   1.11979145   1.14775344   1.168269     1.17650766   1.18852285
   1.19928088   1.20579878   1.21959874   1.22177807   1.23390621
   1.2415898    1.30679436   1.32200258   1.42082683   1.50985275
   1.52958333   1.55630746   1.60807293   1.63617123   1.67692444
   1.71714662   1.7307556    1.7759147    1.79729886   1.85444159
   1.93959017   1.97511846   1.98870352   2.00495339   2.0414228
   2.08537371   2.11524229   2.12314095   2.1747239    2.19221031
   2.21392777   2.21912893   2.27109585   2.32210084   2.34042691
   2.35554133   2.40723253   2.42029429   2.43179357   2.44012408
   2.47863484   2.50090581   2.52020529   2.52743807   2.55099793
   2.5708965    2.59970072   2.60630798   2.63620311   2.65527456
   2.68204741   2.71736422   2.74519844   2.75329403   2.79110019
   2.83961225   2.86779622   2.90950476   2.97624889   2.99363585
   3.01669721   3.04878155   3.08597445   3.11632888   3.14682755
   3.17699778   3.22067885   3.22662368   3.26668918   3.28463465
   3.30320283   3.31793391   3.3374188    3.35201512   3.36405399
   3.48311764   3.65732829   3.68928038   3.71475153   3.72944991
   3.74159234   3.7786084    3.83495878   3.87106843   3.93366262
   3.95429134   3.99939592   4.01131568   4.4358185    4.66259499
   4.74142081   4.866098     4.94517674   5.04909001   5.19387001]
E1 = -1101.7727670924685  E_coul = 437.4129697912463
cycle= 9 E= -350.237356808165  delta_E= -3.04e-09  |g|= 1.9e-05  |ddm|= 0.000215
    CPU time for cycle= 9      0.88 sec, wall time      0.12 sec
diis-norm(errvec)=4.36375e-05
diis-c [-1.22972562e-09  9.17906157e-01 -2.73928650e-05 -3.40792445e-05
  7.67190391e-04  3.81938783e-03 -9.04180667e-03 -4.14126610e-02
  1.28023204e-01]
  HOMO = -0.376800754554018  LUMO = 0.228793254665077
  mo_energy =
[-26.25098025 -15.52757915 -11.27211737 -11.23404731 -11.21207497
 -11.20723528 -11.2063605   -1.5678667   -1.17005123  -1.07323757
  -0.99308936  -0.89440399  -0.81789434  -0.79830441  -0.6870771
  -0.67545544  -0.66280259  -0.64106934  -0.62856759  -0.59863324
  -0.56775839  -0.53958667  -0.51009737  -0.5069029   -0.48776601
  -0.47796465  -0.46336962  -0.42432075  -0.37680075   0.22879325
   0.24255751   0.26728988   0.28045595   0.2848103    0.3210678
   0.3337248    0.33673907   0.34712309   0.35297682   0.36428786
   0.3698241    0.38983792   0.39367581   0.40747917   0.46121309
   0.47710451   0.50066004   0.70430996   0.73802863   0.74731481
   0.7654896    0.79527792   0.81257948   0.83350068   0.87492068
   0.92030114   0.93969138   0.94682629   0.96736525   0.9964419
   1.00720259   1.0453256    1.08299084   1.09492694   1.10981789
   1.11979213   1.1477539    1.16826941   1.17650736   1.18852246
   1.19928138   1.20580033   1.21959886   1.22177917   1.23390826
   1.24159023   1.3067946    1.32200331   1.42082731   1.50985349
   1.52958436   1.55630831   1.60807338   1.63617225   1.67692563
   1.71714683   1.73075542   1.77591569   1.79729945   1.85444252
   1.93959134   1.9751197    1.98870561   2.00495453   2.04142345
   2.08537421   2.115243     2.12314197   2.17472557   2.19221215
   2.21393001   2.21912975   2.2710964    2.32210156   2.34042767
   2.35554105   2.40723266   2.42029479   2.43179559   2.44012526
   2.47863631   2.50090673   2.52020581   2.52743961   2.55099786
   2.57089767   2.59970185   2.60630877   2.63620444   2.65527498
   2.68204812   2.7173655    2.74519883   2.75329485   2.79110058
   2.83961273   2.86779737   2.90950519   2.97625024   2.99363744
   3.01669807   3.04878329   3.08597496   3.11632968   3.1468287
   3.17699873   3.22068065   3.22662444   3.26669076   3.28463614
   3.3032035    3.31793519   3.33741959   3.35201546   3.36405442
   3.48311712   3.65732953   3.68928176   3.71475279   3.72944916
   3.74159396   3.7786087    3.8349597    3.8710699    3.93366303
   3.9542913    3.99939789   4.01131762   4.43581552   4.66259535
   4.74142311   4.86610027   4.94517828   5.04909317   5.19387287]
E1 = -1101.7727784860351  E_coul = 437.41298118461896
cycle= 10 E= -350.237356808359  delta_E= -1.94e-10  |g|= 6.54e-06  |ddm|= 4.73e-05
    CPU time for cycle= 10      0.86 sec, wall time      0.11 sec
  HOMO = -0.376799613550536  LUMO = 0.228793355036086
  mo_energy =
[-26.25098173 -15.52757451 -11.27211802 -11.23404819 -11.21207386
 -11.20723536 -11.20636107  -1.56786702  -1.17004987  -1.07323734
  -0.99308922  -0.89440384  -0.81789417  -0.7983043   -0.68707727
  -0.67545561  -0.66280209  -0.64106949  -0.62856716  -0.5986329
  -0.56775801  -0.53958657  -0.51009719  -0.50690282  -0.48776612
  -0.47796469  -0.46336957  -0.42432046  -0.37679961   0.22879336
   0.24255763   0.26728997   0.28045599   0.28481032   0.321068
   0.33372472   0.3367391    0.34712309   0.35297692   0.36428786
   0.36982406   0.38983797   0.39367594   0.40747911   0.46121321
   0.47710462   0.50066024   0.70431007   0.73802877   0.74731498
   0.76548954   0.79527797   0.81257955   0.83350059   0.87492086
   0.92030138   0.93969155   0.94682638   0.96736543   0.99644298
   1.00720273   1.04532598   1.08299074   1.09492699   1.10981797
   1.11979213   1.14775406   1.1682697    1.17650793   1.18852287
   1.19928157   1.20580044   1.21959919   1.22177935   1.23390822
   1.24159043   1.30679502   1.32200351   1.42082735   1.50985395
   1.52958444   1.55630843   1.60807375   1.63617243   1.67692584
   1.71714684   1.73075536   1.77591581   1.79729978   1.85444256
   1.9395914    1.97511975   1.98870563   2.00495477   2.04142383
   2.08537434   2.11524309   2.12314221   2.17472559   2.19221237
   2.21393003   2.21912984   2.27109653   2.32210169   2.34042787
   2.35554097   2.40723261   2.42029521   2.43179573   2.44012534
   2.47863628   2.50090677   2.52020578   2.52743966   2.55099835
   2.5708977    2.59970189   2.60630873   2.6362045    2.65527507
   2.6820485    2.71736558   2.7451992    2.75329507   2.79110086
   2.83961278   2.86779754   2.90950551   2.97625038   2.99363765
   3.01669817   3.04878333   3.08597523   3.11632972   3.14682882
   3.17699893   3.22068078   3.2266245    3.26669081   3.28463616
   3.30320345   3.3179352    3.33741968   3.35201586   3.36405487
   3.48311695   3.65732953   3.68928182   3.714753     3.72944963
   3.74159418   3.77860906   3.83495973   3.87107004   3.93366314
   3.95429185   3.99939802   4.01131755   4.43581737   4.66259533
   4.74142302   4.8661002    4.94517815   5.04909324   5.19387294]
E1 = -1101.772778221385  E_coul = 437.41298091994236
Extra cycle  E= -350.237356808385  delta_E= -2.64e-11  |g|= 3.01e-06  |ddm|= 1.63e-05
    CPU time for scf_cycle     16.22 sec, wall time      2.04 sec
    CPU time for SCF     16.23 sec, wall time      2.05 sec
converged SCF energy = -350.237356808385
