#INFO: **** input file is /home/liwei01/wsr/32ane/32ane/eda_ex.py ****
from dftpart import scfeda

fr0tot = scfeda.EDA()
fr0tot.method = ['hf','6-31gs']
fr0tot.output = '32ane_tot'
fr0tot.gjf = '32ane.gjf'
fr0tot.kernel()
#INFO: ******************** input file end ********************


System: uname_result(system='Linux', node='node18', release='3.10.0-693.el7.x86_64', version='#1 SMP Tue Aug 22 21:09:27 UTC 2017', machine='x86_64', processor='x86_64')  Threads 24
Python 3.6.4 |Anaconda, Inc.| (default, Jan 16 2018, 18:10:19) 
[GCC 7.2.0]
numpy 1.14.0  scipy 1.0.0
Date: Thu Aug 29 20:51:57 2019
PySCF version 1.5.4
PySCF path  /home/liwei01/liaokang/anaconda3/lib/python3.6/site-packages/pyscf

[CONFIG] conf_file None
[INPUT] verbose = 4
[INPUT] num. atoms = 98
[INPUT] num. electrons = 258
[INPUT] charge = 0
[INPUT] spin (= nelec alpha-beta = 2S) = 0
[INPUT] symmetry False subgroup None
[INPUT] Mole.unit = angstrom
[INPUT]  1 C     19.805866000000   0.378823000000   0.000178000000 AA   37.427662399835   0.715871719686   0.000336371250 Bohr
[INPUT]  2 C     18.531600000000  -0.465018000000  -0.000115000000 AA   35.019648649990  -0.878756662993  -0.000217318504 Bohr
[INPUT]  3 C     17.255090000000   0.378081000000   0.000164000000 AA   32.607394354721   0.714469542902   0.000309915084 Bohr
[INPUT]  4 C     15.975006000000  -0.459434000000  -0.000127000000 AA   30.188386178284  -0.868204432313  -0.000239995218 Bohr
[INPUT]  5 C     14.698996000000   0.384549000000   0.000153000000 AA   27.777076746077   0.726692291475   0.000289128097 Bohr
[INPUT]  6 C     13.418878000000  -0.453176000000  -0.000137000000 AA   25.358004318951  -0.856378526226  -0.000258892479 Bohr
[INPUT]  7 C     12.142861000000   0.390790000000   0.000143000000 AA   22.946681658662   0.738486072219   0.000270230836 Bohr
[INPUT]  8 C     10.862721000000  -0.446912000000  -0.000146000000 AA   20.527567657562  -0.844541281782  -0.000275900014 Bohr
[INPUT]  9 C      9.586692000000   0.397040000000   0.000135000000 AA   18.116222320559   0.750296860497   0.000255113027 Bohr
[INPUT] 10 C      8.306546000000  -0.440654000000  -0.000153000000 AA   15.697096981101  -0.832715375694  -0.000289128097 Bohr
[INPUT] 11 C      7.030512000000   0.403292000000   0.000129000000 AA   13.285742195468   0.762111428228   0.000243774670 Bohr
[INPUT] 12 C      5.750363000000  -0.434398000000  -0.000156000000 AA   10.866611186832  -0.820893249059  -0.000294797275 Bohr
[INPUT] 13 C      4.474329000000   0.409546000000   0.000126000000 AA    8.455256401199   0.773929775411   0.000238105492 Bohr
[INPUT] 14 C      3.194180000000  -0.428143000000  -0.000156000000 AA    6.036125392563  -0.809073012150  -0.000294797275 Bohr
[INPUT] 15 C      1.918145000000   0.415800000000   0.000124000000 AA    3.624768717204   0.785748122594   0.000234326039 Bohr
[INPUT] 16 C      0.638000000000  -0.421895000000  -0.000149000000 AA    1.205645267473  -0.797266003323  -0.000281569193 Bohr
[INPUT] 17 C     -0.638038000000   0.422037000000   0.000110000000 AA   -1.205717077065   0.797534344433   0.000207869874 Bohr
[INPUT] 18 C     -1.918178000000  -0.415658000000  -0.000065000000 AA   -3.624831078166  -0.785479781484  -0.000122832198 Bohr
[INPUT] 19 C     -3.194218000000   0.428261000000  -0.000059000000 AA   -6.036197202156   0.809295999832  -0.000111493841 Bohr
[INPUT] 20 C     -4.474353000000  -0.409444000000  -0.000063000000 AA   -8.455301754626  -0.773737023346  -0.000119052746 Bohr
[INPUT] 21 C     -5.750393000000   0.434477000000  -0.000044000000 AA  -10.866667878616   0.821042537423  -0.000083147949 Bohr
[INPUT] 22 C     -7.030525000000  -0.403230000000   0.000030000000 AA  -13.285766761908  -0.761994265208   0.000056691784 Bohr
[INPUT] 23 C     -8.306562000000   0.440692000000  -0.000190000000 AA  -15.697127216719   0.832787185287  -0.000359047964 Bohr
[INPUT] 24 C     -9.586689000000  -0.397022000000   0.000053000000 AA  -18.116216651381  -0.750262845427   0.000100155485 Bohr
[INPUT] 25 C    -10.862723000000   0.446905000000  -0.000154000000 AA  -20.527571437014   0.844528053699  -0.000291017823 Bohr
[INPUT] 26 C    -12.142844000000  -0.390814000000   0.000168000000 AA  -22.946649533318  -0.738531425646   0.000317473989 Bohr
[INPUT] 27 C    -13.418867000000   0.453124000000  -0.000280000000 AA  -25.357983531964   0.856280260467  -0.000529123315 Bohr
[INPUT] 28 C    -14.698968000000  -0.384621000000   0.000211000000 AA  -27.777023833746  -0.726828351756   0.000398732212 Bohr
[INPUT] 29 C    -15.974986000000   0.459334000000  -0.000224000000 AA  -30.188348383761   0.868015459701  -0.000423298652 Bohr
[INPUT] 30 C    -17.255053000000  -0.378198000000   0.000349000000 AA  -32.607324434855  -0.714690640858   0.000659514417 Bohr
[INPUT] 31 C    -18.531572000000   0.464871000000  -0.000347000000 AA  -35.019595737658   0.878478873253  -0.000655734965 Bohr
[INPUT] 32 C    -19.805822000000  -0.378986000000   0.000419000000 AA  -37.427579251885  -0.716179745044   0.000791795246 Bohr
[INPUT] 33 H    -19.852399000000  -1.017925000000   0.877881000000 AA  -37.515597025589  -1.923599465348   1.658954659959 Bohr
[INPUT] 34 H    -14.700574000000  -1.037926000000   0.871197000000 AA  -27.780058733902  -1.961395877565   1.646323730543 Bohr
[INPUT] 35 H     -4.475936000000  -1.063266000000   0.870548000000 AA   -8.458293191081  -2.009281537562   1.645097298288 Bohr
[INPUT] 36 H      0.636403000000  -1.075973000000   0.870268000000 AA    1.202627374852  -2.033294287427   1.644568174973 Bohr
[INPUT] 37 H     20.693090000000  -0.246986000000  -0.000030000000 AA   39.104272770976  -0.466735896602  -0.000056691784 Bohr
[INPUT] 38 H     19.852490000000   1.018793000000  -0.876528000000 AA   37.515768990667   1.925239747624  -1.656397860513 Bohr
[INPUT] 39 H     19.852481000000   1.018197000000   0.877318000000 AA   37.515751983132   1.924113470854   1.657890744151 Bohr
[INPUT] 40 H     18.531643000000  -1.117652000000  -0.870651000000 AA   35.019729908213  -2.112056182572  -1.645291940079 Bohr
[INPUT] 41 H     18.531634000000  -1.118243000000   0.869977000000 AA   35.019712900678  -2.113173010712   1.644018264671 Bohr
[INPUT] 42 H     17.257726000000   1.031717000000   0.871051000000 AA   32.612375672786   1.949662568058   1.646047830529 Bohr
[INPUT] 43 H     17.257735000000   1.032308000000  -0.870279000000 AA   32.612392680321   1.950779396198  -1.644588961960 Bohr
[INPUT] 44 H     15.973479000000  -1.112916000000  -0.871004000000 AA   30.185500566491  -2.103106439646  -1.645959013401 Bohr
[INPUT] 45 H     15.973470000000  -1.113507000000   0.870307000000 AA   30.185483558956  -2.104223267786   1.644641874292 Bohr
[INPUT] 46 H     14.700641000000   1.038620000000  -0.870254000000 AA   27.780185345552   1.962707347496  -1.644541718807 Bohr
[INPUT] 47 H     14.700632000000   1.038030000000   0.871004000000 AA   27.780168338017   1.961592409082   1.645959013401 Bohr
[INPUT] 48 H     13.417295000000  -1.106670000000  -0.870988000000 AA   25.355012882496  -2.091303210272  -1.645928777783 Bohr
[INPUT] 49 H     13.417287000000  -1.107260000000   0.870270000000 AA   25.354997764687  -2.092418148686   1.644571954425 Bohr
[INPUT] 50 H     12.144465000000   1.044289000000   0.870990000000 AA   22.949712779366   1.973420204896   1.645932557235 Bohr
[INPUT] 51 H     12.144472000000   1.044878000000  -0.870262000000 AA   22.949726007449   1.974533253583  -1.644556836616 Bohr
[INPUT] 52 H     10.861129000000  -1.100414000000  -0.870992000000 AA   20.524559213571  -2.079481083637  -1.645936336687 Bohr
[INPUT] 53 H     10.861122000000  -1.101003000000   0.870258000000 AA   20.524545985488  -2.080594132325   1.644549277712 Bohr
[INPUT] 54 H      9.588298000000   1.051132000000  -0.870269000000 AA   18.119257220715   1.986351600766  -1.644570064699 Bohr
[INPUT] 55 H      9.588292000000   1.050544000000   0.870980000000 AA   18.119245882358   1.985240441805   1.645913659974 Bohr
[INPUT] 56 H      8.304951000000  -1.094160000000  -0.870998000000 AA   15.694082867933  -2.067662736454  -1.645947675044 Bohr
[INPUT] 57 H      8.304945000000  -1.094748000000   0.870250000000 AA   15.694071529576  -2.068773895415   1.644534159903 Bohr
[INPUT] 58 H      7.032112000000   1.056799000000   0.870973000000 AA   13.288765757267   1.997060678714   1.645900431891 Bohr
[INPUT] 59 H      7.032116000000   1.057386000000  -0.870274000000 AA   13.288773316172   1.998169947949  -1.644579513330 Bohr
[INPUT] 60 H      5.748766000000  -1.087906000000  -0.871001000000 AA   10.863593294211  -2.055844389271  -1.645953344222 Bohr
[INPUT] 61 H      5.748762000000  -1.088493000000   0.870246000000 AA   10.863585735307  -2.056953658506   1.644526600998 Bohr
[INPUT] 62 H      4.475930000000   1.063640000000  -0.870278000000 AA    8.458281852724   2.009988295132  -1.644587072234 Bohr
[INPUT] 63 H      4.475929000000   1.063056000000   0.870968000000 AA    8.458279962998   2.008884695076   1.645890983260 Bohr
[INPUT] 64 H      3.192581000000  -1.081654000000  -0.870997000000 AA    6.033103720490  -2.044029821540  -1.645945785318 Bohr
[INPUT] 65 H      3.192579000000  -1.082235000000   0.870250000000 AA    6.033099941038  -2.045127752419   1.644534159903 Bohr
[INPUT] 66 H      1.919744000000   1.069316000000   0.870962000000 AA    3.627790389277   2.020714380615   1.645879644903 Bohr
[INPUT] 67 H      1.919742000000   1.069887000000  -0.870286000000 AA    3.627786609825   2.021793414233  -1.644602190043 Bohr
[INPUT] 68 H      0.636410000000  -1.075422000000  -0.870979000000 AA    1.202640602934  -2.032253048332  -1.645911770248 Bohr
[INPUT] 69 H     -0.636465000000   1.076076000000  -0.870338000000 AA   -1.202744537871   2.033488929217  -1.644700455802 Bohr
[INPUT] 70 H     -0.636417000000   1.075615000000   0.870904000000 AA   -1.202653831017   2.032617765474   1.645770040788 Bohr
[INPUT] 71 H     -1.919713000000  -1.069374000000  -0.870755000000 AA   -3.627731807767  -2.020823984731  -1.645488471596 Bohr
[INPUT] 72 H     -1.919821000000  -1.069558000000   0.870487000000 AA   -3.627935898189  -2.021171694338   1.644982024994 Bohr
[INPUT] 73 H     -3.192634000000   1.082072000000   0.870560000000 AA   -6.033203875975   2.044819727060   1.645119975001 Bohr
[INPUT] 74 H     -3.192634000000   1.082069000000  -0.870681000000 AA   -6.033203875975   2.044814057882  -1.645348631862 Bohr
[INPUT] 75 H     -4.475948000000  -1.063238000000  -0.870696000000 AA   -8.458315867795  -2.009228625230  -1.645376977754 Bohr
[INPUT] 76 H     -5.748833000000   1.088263000000  -0.870682000000 AA  -10.863719905862   2.056519021498  -1.645350521589 Bohr
[INPUT] 77 H     -5.748776000000   1.088306000000   0.870562000000 AA  -10.863612191473   2.056600279721   1.645123754454 Bohr
[INPUT] 78 H     -7.032066000000  -1.057190000000  -0.870476000000 AA  -13.288678829866  -1.997799561629  -1.644961238007 Bohr
[INPUT] 79 H     -7.032158000000  -1.056883000000   0.870768000000 AA  -13.288852684669  -1.997219415709   1.645513038035 Bohr
[INPUT] 80 H     -8.304973000000   1.094747000000   0.870246000000 AA  -15.694124441907   2.068772005689   1.644526600998 Bohr
[INPUT] 81 H     -8.304988000000   1.094252000000  -0.870997000000 AA  -15.694152787799   2.067836591258  -1.645945785318 Bohr
[INPUT] 82 H     -9.588293000000  -1.051059000000  -0.870396000000 AA  -18.119247772084  -1.986213650759  -1.644810059917 Bohr
[INPUT] 83 H     -9.588266000000  -1.050596000000   0.870850000000 AA  -18.119196749479  -1.985338707564   1.645667995577 Bohr
[INPUT] 84 H    -10.861174000000   1.100442000000  -0.870978000000 AA  -20.524644251247   2.079533995969  -1.645909880521 Bohr
[INPUT] 85 H    -10.861102000000   1.100977000000   0.870268000000 AA  -20.524508190966   2.080544999445   1.644568174973 Bohr
[INPUT] 86 H    -12.144398000000  -1.045015000000  -0.870156000000 AA  -22.949586167716  -1.974792146062  -1.644356525647 Bohr
[INPUT] 87 H    -12.144475000000  -1.044215000000   0.871092000000 AA  -22.949731676627  -1.973280365163   1.646125309300 Bohr
[INPUT] 88 H    -13.417282000000   1.107415000000   0.869976000000 AA  -25.354988316057   2.092711056235   1.644016374945 Bohr
[INPUT] 89 H    -13.417312000000   1.106429000000  -0.871276000000 AA  -25.355045007840   2.090847786276  -1.646473018907 Bohr
[INPUT] 90 H    -14.700616000000  -1.038881000000  -0.870057000000 AA  -27.780138102399  -1.963200566014  -1.644169442761 Bohr
[INPUT] 91 H    -15.973511000000   1.112604000000  -0.871264000000 AA  -30.185561037727   2.102516845096  -1.646450342193 Bohr
[INPUT] 92 H    -15.973421000000   1.113635000000   0.870042000000 AA  -30.185390962376   2.104465152730   1.644141096869 Bohr
[INPUT] 93 H    -17.257642000000  -1.032795000000  -0.869819000000 AA  -32.612216935791  -1.951699692820  -1.643719687943 Bohr
[INPUT] 94 H    -17.257716000000  -1.031477000000   0.871507000000 AA  -32.612356775524  -1.949209033788   1.646909545641 Bohr
[INPUT] 95 H    -18.531601000000   1.118572000000   0.869391000000 AA  -35.019650539716   2.113794730607   1.642910885162 Bohr
[INPUT] 96 H    -18.531646000000   1.117046000000  -0.871231000000 AA  -35.019735577392   2.110911008541  -1.646387981231 Bohr
[INPUT] 97 H    -20.693056000000   0.246810000000  -0.000065000000 AA  -39.104208520288   0.466403304804  -0.000122832198 Bohr
[INPUT] 98 H    -19.852481000000  -1.019397000000  -0.875965000000 AA  -37.515751983132  -1.926381142203  -1.655333944705 Bohr

nuclear repulsion = 2553.13748523764
number of shells = 324
number of NR pGTOs = 1128
number of NR cGTOs = 580
basis = 6-31gs
ecp = {}
CPU time:         3.02


******** <class 'pyscf.scf.hf.RHF'> flags ********
method = RHF
initial guess = minao
damping factor = 0
level shift factor = 0
DIIS = <class 'pyscf.scf.diis.CDIIS'>
DIIS start cycle = 1
DIIS space = 8
SCF tol = 1e-09
SCF gradient tol = None
max. SCF cycles = 50
direct_scf = True
direct_scf_tol = 1e-13
chkfile to save SCF result = /home/liwei01/wsr/32ane/32ane/tmp_v7bmqch
max_memory 4000 MB (current use 89 MB)
Set gradient conv threshold to 3.16228e-05
init E= -1259.7629863092
  HOMO = -0.33026852342394  LUMO = 0.13217987180365
cycle= 1 E= -1249.95130204526  delta_E= 9.81  |g|= 0.924  |ddm|= 7.92
  HOMO = -0.364182149499148  LUMO = 0.227483520783011
cycle= 2 E= -1250.24193250534  delta_E= -0.291  |g|= 0.238  |ddm|= 1.01
  HOMO = -0.411666528307828  LUMO = 0.221848755347343
cycle= 3 E= -1250.2622601906  delta_E= -0.0203  |g|= 0.0794  |ddm|= 0.359
  HOMO = -0.399779035129704  LUMO = 0.225607114695502
cycle= 4 E= -1250.26408706337  delta_E= -0.00183  |g|= 0.00854  |ddm|= 0.0857
  HOMO = -0.40147534030435  LUMO = 0.225199715328409
cycle= 5 E= -1250.26411730106  delta_E= -3.02e-05  |g|= 0.00169  |ddm|= 0.0153
  HOMO = -0.401649437334174  LUMO = 0.225164207417879
cycle= 6 E= -1250.26411825099  delta_E= -9.5e-07  |g|= 0.000476  |ddm|= 0.00217
  HOMO = -0.401634327323823  LUMO = 0.225170236425726
cycle= 7 E= -1250.26411832857  delta_E= -7.76e-08  |g|= 8.98e-05  |ddm|= 0.000606
  HOMO = -0.401644162030208  LUMO = 0.225167399883738
cycle= 8 E= -1250.26411833224  delta_E= -3.67e-09  |g|= 1.78e-05  |ddm|= 0.000193
  HOMO = -0.401646047733559  LUMO = 0.225166893689913
cycle= 9 E= -1250.26411833234  delta_E= -9.23e-11  |g|= 4.15e-06  |ddm|= 2.26e-05
  HOMO = -0.401646095864704  LUMO = 0.225166891558683
Extra cycle  E= -1250.26411833231  delta_E= 2.77e-11  |g|= 1.73e-06  |ddm|= 7.65e-06
converged SCF energy = -1250.26411833231
