#INFO: **** input file is /home/liwei01/wsr/dftpart/test_2body/w19/eda_c8.py ****
from dftpart import scfeda

test1 = scfeda.EDA()
test1.gjf = 'w19.gjf'
test1.method = ['hf','6-31gs', 'cart']
test1.output = 'w19'
test1.verbose = 9
#test1.build()
test1.showinter=True
test1.lso = 'w19/w19.lso'
test1.kernel()
        

#INFO: ******************** input file end ********************


System: uname_result(system='Linux', node='master', release='3.10.0-693.el7.x86_64', version='#1 SMP Tue Aug 22 21:09:27 UTC 2017', machine='x86_64', processor='x86_64')  Threads 20
Python 3.7.6 (default, Jan  8 2020, 19:59:22) 
[GCC 7.3.0]
numpy 1.18.1  scipy 1.4.1
Date: Wed Jun 17 00:17:11 2020
PySCF version 1.6.1
PySCF path  /home/liwei01/zcheng/pyscf/pyscf
GIT HEAD      ref: refs/heads/master
GIT master branch  3adc7fd25839fe674469a52b764c3661e32d7318

[CONFIG] DEBUG = False
[CONFIG] MAX_MEMORY = 4000
[CONFIG] TMPDIR = .
[CONFIG] UNIT = angstrom
[CONFIG] VERBOSE = 3
[CONFIG] conf_file = None
[INPUT] verbose = 9
[INPUT] max_memory = 4000 
[INPUT] num. atoms = 57
[INPUT] num. electrons = 190
[INPUT] charge = 0
[INPUT] spin (= nelec alpha-beta = 2S) = 0
[INPUT] symmetry False subgroup None
[INPUT] Mole.unit = angstrom
[INPUT] Cartesian GTO integrals (6d 10f)
[INPUT]  1 O     -2.755374220000   0.860532160000  -1.837117620000 AA   -5.206902646487   1.626170103780  -3.471649160413 Bohr
[INPUT]  2 H     -2.422221170000   1.746707660000  -1.678051510000 AA   -4.577334624424   3.300799097080  -3.171057776813 Bohr
[INPUT]  3 H     -2.018427500000   0.249139330000  -1.905734950000 AA   -3.814275177291   0.470805100558  -3.601317121512 Bohr
[INPUT]  4 H     -0.587528670000  -0.503572960000  -1.324916180000 AA   -1.110268276630  -0.951614978137  -2.503728718205 Bohr
[INPUT]  5 O     -1.180829120000  -1.233654860000  -1.133670280000 AA   -2.231443636711  -2.331269817639  -2.142326344759 Bohr
[INPUT]  6 H     -0.675028890000  -2.046318510000  -1.060568190000 AA   -1.275619728269  -3.866981547528  -2.004183415526 Bohr
[INPUT]  7 H     -3.301917390000  -0.916397140000  -1.478389130000 AA   -6.239719553039  -1.731739615935  -2.793750561234 Bohr
[INPUT]  8 O     -3.654142210000  -1.401376880000  -0.728500910000 AA   -6.905327997113  -2.648218500497  -1.376667201396 Bohr
[INPUT]  9 H     -2.939854750000  -1.859571390000  -0.279667720000 AA   -5.555520323502  -3.514080636177  -0.528495396682 Bohr
[INPUT] 10 H     -2.703239510000   0.083236220000  -0.011944990000 AA   -5.108382323003   0.157293659444  -0.022572759661 Bohr
[INPUT] 11 O     -2.326485090000   0.487626380000   0.772991130000 AA   -4.396419652984   0.921480309313   1.460741532418 Bohr
[INPUT] 12 H     -3.024610520000   0.899886500000   1.287055790000 AA   -5.715685516278   1.700539028193   2.432182950136 Bohr
[INPUT] 13 H     -0.461617790000  -0.672070220000   0.550112630000 AA   -0.872331197327  -1.270028652276   1.039562208364 Bohr
[INPUT] 14 O      0.031003940000  -0.096851640000   1.140068090000 AA    0.058588955382  -0.183023074315   2.154416453456 Bohr
[INPUT] 15 H     -0.581631320000   0.417540470000   1.670802290000 AA   -1.099123900269   0.789037134222   3.157358736396 Bohr
[INPUT] 16 H     -0.517622380000   1.140888870000  -0.215158030000 AA   -0.978164534146   2.155967502865  -0.406589750201 Bohr
[INPUT] 17 O     -0.460734520000   1.401579200000  -1.137331740000 AA   -0.870662058933   2.648600829887  -2.149245501375 Bohr
[INPUT] 18 H      0.439372050000   1.666823220000  -1.339949020000 AA    0.830292841289   3.149839383866  -2.532136668679 Bohr
[INPUT] 19 H     -5.572174820000  -1.593821870000  -0.708260170000 AA  -10.529884327998  -3.011886825642  -1.338417746238 Bohr
[INPUT] 20 O     -6.374769790000  -1.299330740000  -0.271549410000 AA  -12.046569010251  -2.455379243828  -0.513154014187 Bohr
[INPUT] 21 H     -6.813141470000  -0.642093560000  -0.816957110000 AA  -12.874971426217  -1.213380974747  -1.543825193416 Bohr
[INPUT] 22 H     -6.289462740000   0.667772300000   0.158602840000 AA  -11.885362049257   1.261906760571   0.299715930178 Bohr
[INPUT] 23 O     -7.135946330000   1.107690460000   0.051189830000 AA  -13.484984203295   2.093231600193   0.096734759063 Bohr
[INPUT] 24 H     -7.128557130000   1.622361770000  -0.759155060000 AA  -13.471020639016   3.065819420265  -1.434595149478 Bohr
[INPUT] 25 H     -5.655172820000   0.393361680000   1.751073480000 AA  -10.686727816884   0.743345843099   3.309049301189 Bohr
[INPUT] 26 O     -4.852756120000   0.231066770000   1.249687610000 AA   -9.170380016107   0.436652911788   2.361567324162 Bohr
[INPUT] 27 H     -4.882152240000  -0.652737080000   0.876021150000 AA   -9.225930632032  -1.233494312548   1.655440052827 Bohr
[INPUT] 28 H     -4.675073270000   0.349603730000  -0.770945800000 AA   -8.834608092575   0.660655301826  -1.456876418884 Bohr
[INPUT] 29 O     -5.245926730000   0.611377380000  -1.497031820000 AA   -9.913364789235   1.155335806954  -2.828980139559 Bohr
[INPUT] 30 H     -4.709228810000   0.843422370000  -2.258419020000 AA   -8.899152708811   1.593837286632  -4.267793422309 Bohr
[INPUT] 31 H     -7.773638520000   0.350277500000   1.682635840000 AA  -14.690047794169   0.661928542597   3.179720904977 Bohr
[INPUT] 32 O     -7.395526960000  -0.443686560000   2.067671840000 AA  -13.975520501237  -0.838446083550   3.907333493076 Bohr
[INPUT] 33 H     -7.317302180000  -1.121062140000   1.391918030000 AA  -13.827697090883  -2.118500413219   2.630343864544 Bohr
[INPUT] 34 O      2.046217810000   1.213047810000  -0.274797070000 AA    3.866791252107   2.292328136903  -0.519291202133 Bohr
[INPUT] 35 H      2.833592860000   0.665592930000  -0.318770780000 AA    5.354714453923   1.257788348147  -0.602389470714 Bohr
[INPUT] 36 H      1.629741150000   1.106248960000   0.583539230000 AA    3.079764427434   2.090507559985   1.102729327640 Bohr
[INPUT] 37 H      3.825104610000  -0.531598620000   0.503442340000 AA    7.228400110711  -1.004575799997   0.951368142110 Bohr
[INPUT] 38 O      3.745725410000  -1.046508180000  -0.302887060000 AA    7.078395162724  -1.977613847317  -0.572373590075 Bohr
[INPUT] 39 H      4.605203840000  -1.401010320000  -0.542104650000 AA    8.702574005395  -2.647525802489  -1.024429319353 Bohr
[INPUT] 40 H      4.844760120000   0.332168630000  -1.174542490000 AA    9.155269766015   0.627707737872  -2.219563627765 Bohr
[INPUT] 41 O      5.776651240000   0.199431110000  -0.985969660000 AA   10.916288760729   0.376870178618  -1.863212624531 Bohr
[INPUT] 42 H      6.064713590000   0.838816360000  -0.330373300000 AA   11.460647709028   1.585133189205  -0.624315055869 Bohr
[INPUT] 43 H      4.096075400000   1.203717560000   1.430576680000 AA    7.740460691568   2.274696519730   2.703398125390 Bohr
[INPUT] 44 O      4.334011720000   1.534615690000   0.561385830000 AA    8.190095171455   2.900003360560   1.060865468912 Bohr
[INPUT] 45 H      3.697995060000   2.199237510000   0.286866880000 AA    6.988197873395   4.155956576770   0.542099837408 Bohr
[INPUT] 46 H      1.435705950000  -0.595623610000  -0.177136110000 AA    2.713091040909  -1.125565496225  -0.334738734671 Bohr
[INPUT] 47 O      1.230535210000  -1.305251450000  -0.790270110000 AA    2.325374533534  -2.466567764191  -1.493394072330 Bohr
[INPUT] 48 H      2.045481130000  -1.713937800000  -1.091000210000 AA    3.865399128666  -3.238873036540  -2.061691598743 Bohr
[INPUT] 49 O      2.625694350000   0.098783180000   1.882723090000 AA    4.961843208318   0.186673155914   3.557831008495 Bohr
[INPUT] 50 H      3.312860270000  -0.385621340000   2.346140040000 AA    6.260398599253  -0.728718720388   4.433562125476 Bohr
[INPUT] 51 H      1.766440120000  -0.254195690000   2.124979320000 AA    3.338088042244  -0.480360236145   4.015628935165 Bohr
[INPUT] 52 H      7.167191320000  -0.636464400000   0.116070240000 AA   13.544028677160  -1.202743404036   0.219340964813 Bohr
[INPUT] 53 O      7.457696590000  -0.133431360000   0.880376760000 AA   14.093004075203  -0.252148726828   1.663670962832 Bohr
[INPUT] 54 H      8.364091510000   0.154096870000   0.748559610000 AA   15.805842234700   0.291200880953   1.414572650811 Bohr
[INPUT] 55 H      7.496687840000  -0.291151180000  -1.705680080000 AA   14.166686858957  -0.550195991044  -3.223268207326 Bohr
[INPUT] 56 O      8.386593540000  -0.382398290000  -1.357338560000 AA   15.848364908647  -0.722628038602  -2.564998136712 Bohr
[INPUT] 57 H      9.007828720000  -0.466081960000  -2.084431330000 AA   17.022329257791  -0.880767256000  -3.939004339163 Bohr
[INPUT] ---------------- BASIS SET ---------------- 
[INPUT] l, kappa, [nprim/nctr], expnt,             c_1 c_2 ...
[INPUT] O
[INPUT] 0    0    [6    /1   ]  5484.6717         0.0018311
                                825.23495         0.0139501
                                188.04696         0.0684451
                                52.9645           0.2327143
                                16.89757          0.470193
                                5.7996353         0.3585209
[INPUT] 0    0    [3    /1   ]  15.539616         -0.1107775
                                3.5999336         -0.1480263
                                1.0137618         1.130767
[INPUT] 0    0    [1    /1   ]  0.2700058            1
[INPUT] 1    0    [3    /1   ]  15.539616         0.0708743
                                3.5999336         0.3397528
                                1.0137618         0.7271586
[INPUT] 1    0    [1    /1   ]  0.2700058            1
[INPUT] 2    0    [1    /1   ]  0.8                  1
[INPUT] H
[INPUT] 0    0    [3    /1   ]  18.731137         0.0334946
                                2.8253937         0.23472695
                                0.6401217         0.81375733
[INPUT] 0    0    [1    /1   ]  0.1612778            1

nuclear repulsion = 2095.667117278
number of shells = 190
number of NR pGTOs = 684
number of NR cGTOs = 361
basis = 6-31gs
ecp = {}
bas 0, expnt(s) = [5484.6717     825.23495    188.04696     52.9645      16.89757
    5.7996353]
bas 1, expnt(s) = [15.539616   3.5999336  1.0137618]
bas 2, expnt(s) = [0.2700058]
bas 3, expnt(s) = [15.539616   3.5999336  1.0137618]
bas 4, expnt(s) = [0.2700058]
bas 5, expnt(s) = [0.8]
bas 6, expnt(s) = [18.731137   2.8253937  0.6401217]
bas 7, expnt(s) = [0.1612778]
bas 8, expnt(s) = [18.731137   2.8253937  0.6401217]
bas 9, expnt(s) = [0.1612778]
bas 10, expnt(s) = [18.731137   2.8253937  0.6401217]
bas 11, expnt(s) = [0.1612778]
bas 12, expnt(s) = [5484.6717     825.23495    188.04696     52.9645      16.89757
    5.7996353]
bas 13, expnt(s) = [15.539616   3.5999336  1.0137618]
bas 14, expnt(s) = [0.2700058]
bas 15, expnt(s) = [15.539616   3.5999336  1.0137618]
bas 16, expnt(s) = [0.2700058]
bas 17, expnt(s) = [0.8]
bas 18, expnt(s) = [18.731137   2.8253937  0.6401217]
bas 19, expnt(s) = [0.1612778]
bas 20, expnt(s) = [18.731137   2.8253937  0.6401217]
bas 21, expnt(s) = [0.1612778]
bas 22, expnt(s) = [5484.6717     825.23495    188.04696     52.9645      16.89757
    5.7996353]
bas 23, expnt(s) = [15.539616   3.5999336  1.0137618]
bas 24, expnt(s) = [0.2700058]
bas 25, expnt(s) = [15.539616   3.5999336  1.0137618]
bas 26, expnt(s) = [0.2700058]
bas 27, expnt(s) = [0.8]
bas 28, expnt(s) = [18.731137   2.8253937  0.6401217]
bas 29, expnt(s) = [0.1612778]
bas 30, expnt(s) = [18.731137   2.8253937  0.6401217]
bas 31, expnt(s) = [0.1612778]
bas 32, expnt(s) = [5484.6717     825.23495    188.04696     52.9645      16.89757
    5.7996353]
bas 33, expnt(s) = [15.539616   3.5999336  1.0137618]
bas 34, expnt(s) = [0.2700058]
bas 35, expnt(s) = [15.539616   3.5999336  1.0137618]
bas 36, expnt(s) = [0.2700058]
bas 37, expnt(s) = [0.8]
bas 38, expnt(s) = [18.731137   2.8253937  0.6401217]
bas 39, expnt(s) = [0.1612778]
bas 40, expnt(s) = [18.731137   2.8253937  0.6401217]
bas 41, expnt(s) = [0.1612778]
bas 42, expnt(s) = [5484.6717     825.23495    188.04696     52.9645      16.89757
    5.7996353]
bas 43, expnt(s) = [15.539616   3.5999336  1.0137618]
bas 44, expnt(s) = [0.2700058]
bas 45, expnt(s) = [15.539616   3.5999336  1.0137618]
bas 46, expnt(s) = [0.2700058]
bas 47, expnt(s) = [0.8]
bas 48, expnt(s) = [18.731137   2.8253937  0.6401217]
bas 49, expnt(s) = [0.1612778]
bas 50, expnt(s) = [18.731137   2.8253937  0.6401217]
bas 51, expnt(s) = [0.1612778]
bas 52, expnt(s) = [5484.6717     825.23495    188.04696     52.9645      16.89757
    5.7996353]
bas 53, expnt(s) = [15.539616   3.5999336  1.0137618]
bas 54, expnt(s) = [0.2700058]
bas 55, expnt(s) = [15.539616   3.5999336  1.0137618]
bas 56, expnt(s) = [0.2700058]
bas 57, expnt(s) = [0.8]
bas 58, expnt(s) = [18.731137   2.8253937  0.6401217]
bas 59, expnt(s) = [0.1612778]
bas 60, expnt(s) = [18.731137   2.8253937  0.6401217]
bas 61, expnt(s) = [0.1612778]
bas 62, expnt(s) = [5484.6717     825.23495    188.04696     52.9645      16.89757
    5.7996353]
bas 63, expnt(s) = [15.539616   3.5999336  1.0137618]
bas 64, expnt(s) = [0.2700058]
bas 65, expnt(s) = [15.539616   3.5999336  1.0137618]
bas 66, expnt(s) = [0.2700058]
bas 67, expnt(s) = [0.8]
bas 68, expnt(s) = [18.731137   2.8253937  0.6401217]
bas 69, expnt(s) = [0.1612778]
bas 70, expnt(s) = [18.731137   2.8253937  0.6401217]
bas 71, expnt(s) = [0.1612778]
bas 72, expnt(s) = [5484.6717     825.23495    188.04696     52.9645      16.89757
    5.7996353]
bas 73, expnt(s) = [15.539616   3.5999336  1.0137618]
bas 74, expnt(s) = [0.2700058]
bas 75, expnt(s) = [15.539616   3.5999336  1.0137618]
bas 76, expnt(s) = [0.2700058]
bas 77, expnt(s) = [0.8]
bas 78, expnt(s) = [18.731137   2.8253937  0.6401217]
bas 79, expnt(s) = [0.1612778]
bas 80, expnt(s) = [18.731137   2.8253937  0.6401217]
bas 81, expnt(s) = [0.1612778]
bas 82, expnt(s) = [5484.6717     825.23495    188.04696     52.9645      16.89757
    5.7996353]
bas 83, expnt(s) = [15.539616   3.5999336  1.0137618]
bas 84, expnt(s) = [0.2700058]
bas 85, expnt(s) = [15.539616   3.5999336  1.0137618]
bas 86, expnt(s) = [0.2700058]
bas 87, expnt(s) = [0.8]
bas 88, expnt(s) = [18.731137   2.8253937  0.6401217]
bas 89, expnt(s) = [0.1612778]
bas 90, expnt(s) = [18.731137   2.8253937  0.6401217]
bas 91, expnt(s) = [0.1612778]
bas 92, expnt(s) = [5484.6717     825.23495    188.04696     52.9645      16.89757
    5.7996353]
bas 93, expnt(s) = [15.539616   3.5999336  1.0137618]
bas 94, expnt(s) = [0.2700058]
bas 95, expnt(s) = [15.539616   3.5999336  1.0137618]
bas 96, expnt(s) = [0.2700058]
bas 97, expnt(s) = [0.8]
bas 98, expnt(s) = [18.731137   2.8253937  0.6401217]
bas 99, expnt(s) = [0.1612778]
bas 100, expnt(s) = [18.731137   2.8253937  0.6401217]
bas 101, expnt(s) = [0.1612778]
bas 102, expnt(s) = [5484.6717     825.23495    188.04696     52.9645      16.89757
    5.7996353]
bas 103, expnt(s) = [15.539616   3.5999336  1.0137618]
bas 104, expnt(s) = [0.2700058]
bas 105, expnt(s) = [15.539616   3.5999336  1.0137618]
bas 106, expnt(s) = [0.2700058]
bas 107, expnt(s) = [0.8]
bas 108, expnt(s) = [18.731137   2.8253937  0.6401217]
bas 109, expnt(s) = [0.1612778]
bas 110, expnt(s) = [5484.6717     825.23495    188.04696     52.9645      16.89757
    5.7996353]
bas 111, expnt(s) = [15.539616   3.5999336  1.0137618]
bas 112, expnt(s) = [0.2700058]
bas 113, expnt(s) = [15.539616   3.5999336  1.0137618]
bas 114, expnt(s) = [0.2700058]
bas 115, expnt(s) = [0.8]
bas 116, expnt(s) = [18.731137   2.8253937  0.6401217]
bas 117, expnt(s) = [0.1612778]
bas 118, expnt(s) = [18.731137   2.8253937  0.6401217]
bas 119, expnt(s) = [0.1612778]
bas 120, expnt(s) = [18.731137   2.8253937  0.6401217]
bas 121, expnt(s) = [0.1612778]
bas 122, expnt(s) = [5484.6717     825.23495    188.04696     52.9645      16.89757
    5.7996353]
bas 123, expnt(s) = [15.539616   3.5999336  1.0137618]
bas 124, expnt(s) = [0.2700058]
bas 125, expnt(s) = [15.539616   3.5999336  1.0137618]
bas 126, expnt(s) = [0.2700058]
bas 127, expnt(s) = [0.8]
bas 128, expnt(s) = [18.731137   2.8253937  0.6401217]
bas 129, expnt(s) = [0.1612778]
bas 130, expnt(s) = [18.731137   2.8253937  0.6401217]
bas 131, expnt(s) = [0.1612778]
bas 132, expnt(s) = [5484.6717     825.23495    188.04696     52.9645      16.89757
    5.7996353]
bas 133, expnt(s) = [15.539616   3.5999336  1.0137618]
bas 134, expnt(s) = [0.2700058]
bas 135, expnt(s) = [15.539616   3.5999336  1.0137618]
bas 136, expnt(s) = [0.2700058]
bas 137, expnt(s) = [0.8]
bas 138, expnt(s) = [18.731137   2.8253937  0.6401217]
bas 139, expnt(s) = [0.1612778]
bas 140, expnt(s) = [18.731137   2.8253937  0.6401217]
bas 141, expnt(s) = [0.1612778]
bas 142, expnt(s) = [5484.6717     825.23495    188.04696     52.9645      16.89757
    5.7996353]
bas 143, expnt(s) = [15.539616   3.5999336  1.0137618]
bas 144, expnt(s) = [0.2700058]
bas 145, expnt(s) = [15.539616   3.5999336  1.0137618]
bas 146, expnt(s) = [0.2700058]
bas 147, expnt(s) = [0.8]
bas 148, expnt(s) = [18.731137   2.8253937  0.6401217]
bas 149, expnt(s) = [0.1612778]
bas 150, expnt(s) = [18.731137   2.8253937  0.6401217]
bas 151, expnt(s) = [0.1612778]
bas 152, expnt(s) = [5484.6717     825.23495    188.04696     52.9645      16.89757
    5.7996353]
bas 153, expnt(s) = [15.539616   3.5999336  1.0137618]
bas 154, expnt(s) = [0.2700058]
bas 155, expnt(s) = [15.539616   3.5999336  1.0137618]
bas 156, expnt(s) = [0.2700058]
bas 157, expnt(s) = [0.8]
bas 158, expnt(s) = [18.731137   2.8253937  0.6401217]
bas 159, expnt(s) = [0.1612778]
bas 160, expnt(s) = [5484.6717     825.23495    188.04696     52.9645      16.89757
    5.7996353]
bas 161, expnt(s) = [15.539616   3.5999336  1.0137618]
bas 162, expnt(s) = [0.2700058]
bas 163, expnt(s) = [15.539616   3.5999336  1.0137618]
bas 164, expnt(s) = [0.2700058]
bas 165, expnt(s) = [0.8]
bas 166, expnt(s) = [18.731137   2.8253937  0.6401217]
bas 167, expnt(s) = [0.1612778]
bas 168, expnt(s) = [18.731137   2.8253937  0.6401217]
bas 169, expnt(s) = [0.1612778]
bas 170, expnt(s) = [18.731137   2.8253937  0.6401217]
bas 171, expnt(s) = [0.1612778]
bas 172, expnt(s) = [5484.6717     825.23495    188.04696     52.9645      16.89757
    5.7996353]
bas 173, expnt(s) = [15.539616   3.5999336  1.0137618]
bas 174, expnt(s) = [0.2700058]
bas 175, expnt(s) = [15.539616   3.5999336  1.0137618]
bas 176, expnt(s) = [0.2700058]
bas 177, expnt(s) = [0.8]
bas 178, expnt(s) = [18.731137   2.8253937  0.6401217]
bas 179, expnt(s) = [0.1612778]
bas 180, expnt(s) = [18.731137   2.8253937  0.6401217]
bas 181, expnt(s) = [0.1612778]
bas 182, expnt(s) = [5484.6717     825.23495    188.04696     52.9645      16.89757
    5.7996353]
bas 183, expnt(s) = [15.539616   3.5999336  1.0137618]
bas 184, expnt(s) = [0.2700058]
bas 185, expnt(s) = [15.539616   3.5999336  1.0137618]
bas 186, expnt(s) = [0.2700058]
bas 187, expnt(s) = [0.8]
bas 188, expnt(s) = [18.731137   2.8253937  0.6401217]
bas 189, expnt(s) = [0.1612778]
CPU time:         0.90
arg.atm = [[  8  20   1  23   0   0]
 [  1  24   1  27   0   0]
 [  1  28   1  31   0   0]
 [  1  32   1  35   0   0]
 [  8  36   1  39   0   0]
 [  1  40   1  43   0   0]
 [  1  44   1  47   0   0]
 [  8  48   1  51   0   0]
 [  1  52   1  55   0   0]
 [  1  56   1  59   0   0]
 [  8  60   1  63   0   0]
 [  1  64   1  67   0   0]
 [  1  68   1  71   0   0]
 [  8  72   1  75   0   0]
 [  1  76   1  79   0   0]
 [  1  80   1  83   0   0]
 [  8  84   1  87   0   0]
 [  1  88   1  91   0   0]
 [  1  92   1  95   0   0]
 [  8  96   1  99   0   0]
 [  1 100   1 103   0   0]
 [  1 104   1 107   0   0]
 [  8 108   1 111   0   0]
 [  1 112   1 115   0   0]
 [  1 116   1 119   0   0]
 [  8 120   1 123   0   0]
 [  1 124   1 127   0   0]
 [  1 128   1 131   0   0]
 [  8 132   1 135   0   0]
 [  1 136   1 139   0   0]
 [  1 140   1 143   0   0]
 [  8 144   1 147   0   0]
 [  1 148   1 151   0   0]
 [  8 152   1 155   0   0]
 [  1 156   1 159   0   0]
 [  1 160   1 163   0   0]
 [  1 164   1 167   0   0]
 [  8 168   1 171   0   0]
 [  1 172   1 175   0   0]
 [  1 176   1 179   0   0]
 [  8 180   1 183   0   0]
 [  1 184   1 187   0   0]
 [  1 188   1 191   0   0]
 [  8 192   1 195   0   0]
 [  1 196   1 199   0   0]
 [  1 200   1 203   0   0]
 [  8 204   1 207   0   0]
 [  1 208   1 211   0   0]
 [  8 212   1 215   0   0]
 [  1 216   1 219   0   0]
 [  1 220   1 223   0   0]
 [  1 224   1 227   0   0]
 [  8 228   1 231   0   0]
 [  1 232   1 235   0   0]
 [  1 236   1 239   0   0]
 [  8 240   1 243   0   0]
 [  1 244   1 247   0   0]]
arg.bas = [[  0   0   6 ... 248 254   0]
 [  0   0   3 ... 260 263   0]
 [  0   0   1 ... 266 267   0]
 ...
 [ 55   2   1 ... 276 277   0]
 [ 56   0   3 ... 278 281   0]
 [ 56   0   1 ... 284 285   0]]
arg.env = [ 1.37036000e+02  0.00000000e+00  0.00000000e+00  0.00000000e+00
  0.00000000e+00  0.00000000e+00  0.00000000e+00  0.00000000e+00
  0.00000000e+00  0.00000000e+00  0.00000000e+00  0.00000000e+00
  0.00000000e+00  0.00000000e+00  0.00000000e+00  0.00000000e+00
  0.00000000e+00  0.00000000e+00  0.00000000e+00  0.00000000e+00
 -5.20690265e+00  1.62617010e+00 -3.47164916e+00  0.00000000e+00
 -4.57733462e+00  3.30079910e+00 -3.17105778e+00  0.00000000e+00
 -3.81427518e+00  4.70805101e-01 -3.60131712e+00  0.00000000e+00
 -1.11026828e+00 -9.51614978e-01 -2.50372872e+00  0.00000000e+00
 -2.23144364e+00 -2.33126982e+00 -2.14232634e+00  0.00000000e+00
 -1.27561973e+00 -3.86698155e+00 -2.00418342e+00  0.00000000e+00
 -6.23971955e+00 -1.73173962e+00 -2.79375056e+00  0.00000000e+00
 -6.90532800e+00 -2.64821850e+00 -1.37666720e+00  0.00000000e+00
 -5.55552032e+00 -3.51408064e+00 -5.28495397e-01  0.00000000e+00
 -5.10838232e+00  1.57293659e-01 -2.25727597e-02  0.00000000e+00
 -4.39641965e+00  9.21480309e-01  1.46074153e+00  0.00000000e+00
 -5.71568552e+00  1.70053903e+00  2.43218295e+00  0.00000000e+00
 -8.72331197e-01 -1.27002865e+00  1.03956221e+00  0.00000000e+00
  5.85889554e-02 -1.83023074e-01  2.15441645e+00  0.00000000e+00
 -1.09912390e+00  7.89037134e-01  3.15735874e+00  0.00000000e+00
 -9.78164534e-01  2.15596750e+00 -4.06589750e-01  0.00000000e+00
 -8.70662059e-01  2.64860083e+00 -2.14924550e+00  0.00000000e+00
  8.30292841e-01  3.14983938e+00 -2.53213667e+00  0.00000000e+00
 -1.05298843e+01 -3.01188683e+00 -1.33841775e+00  0.00000000e+00
 -1.20465690e+01 -2.45537924e+00 -5.13154014e-01  0.00000000e+00
 -1.28749714e+01 -1.21338097e+00 -1.54382519e+00  0.00000000e+00
 -1.18853620e+01  1.26190676e+00  2.99715930e-01  0.00000000e+00
 -1.34849842e+01  2.09323160e+00  9.67347591e-02  0.00000000e+00
 -1.34710206e+01  3.06581942e+00 -1.43459515e+00  0.00000000e+00
 -1.06867278e+01  7.43345843e-01  3.30904930e+00  0.00000000e+00
 -9.17038002e+00  4.36652912e-01  2.36156732e+00  0.00000000e+00
 -9.22593063e+00 -1.23349431e+00  1.65544005e+00  0.00000000e+00
 -8.83460809e+00  6.60655302e-01 -1.45687642e+00  0.00000000e+00
 -9.91336479e+00  1.15533581e+00 -2.82898014e+00  0.00000000e+00
 -8.89915271e+00  1.59383729e+00 -4.26779342e+00  0.00000000e+00
 -1.46900478e+01  6.61928543e-01  3.17972090e+00  0.00000000e+00
 -1.39755205e+01 -8.38446084e-01  3.90733349e+00  0.00000000e+00
 -1.38276971e+01 -2.11850041e+00  2.63034386e+00  0.00000000e+00
  3.86679125e+00  2.29232814e+00 -5.19291202e-01  0.00000000e+00
  5.35471445e+00  1.25778835e+00 -6.02389471e-01  0.00000000e+00
  3.07976443e+00  2.09050756e+00  1.10272933e+00  0.00000000e+00
  7.22840011e+00 -1.00457580e+00  9.51368142e-01  0.00000000e+00
  7.07839516e+00 -1.97761385e+00 -5.72373590e-01  0.00000000e+00
  8.70257401e+00 -2.64752580e+00 -1.02442932e+00  0.00000000e+00
  9.15526977e+00  6.27707738e-01 -2.21956363e+00  0.00000000e+00
  1.09162888e+01  3.76870179e-01 -1.86321262e+00  0.00000000e+00
  1.14606477e+01  1.58513319e+00 -6.24315056e-01  0.00000000e+00
  7.74046069e+00  2.27469652e+00  2.70339813e+00  0.00000000e+00
  8.19009517e+00  2.90000336e+00  1.06086547e+00  0.00000000e+00
  6.98819787e+00  4.15595658e+00  5.42099837e-01  0.00000000e+00
  2.71309104e+00 -1.12556550e+00 -3.34738735e-01  0.00000000e+00
  2.32537453e+00 -2.46656776e+00 -1.49339407e+00  0.00000000e+00
  3.86539913e+00 -3.23887304e+00 -2.06169160e+00  0.00000000e+00
  4.96184321e+00  1.86673156e-01  3.55783101e+00  0.00000000e+00
  6.26039860e+00 -7.28718720e-01  4.43356213e+00  0.00000000e+00
  3.33808804e+00 -4.80360236e-01  4.01562894e+00  0.00000000e+00
  1.35440287e+01 -1.20274340e+00  2.19340965e-01  0.00000000e+00
  1.40930041e+01 -2.52148727e-01  1.66367096e+00  0.00000000e+00
  1.58058422e+01  2.91200881e-01  1.41457265e+00  0.00000000e+00
  1.41666869e+01 -5.50195991e-01 -3.22326821e+00  0.00000000e+00
  1.58483649e+01 -7.22628039e-01 -2.56499814e+00  0.00000000e+00
  1.70223293e+01 -8.80767256e-01 -3.93900434e+00  0.00000000e+00
  5.48467170e+03  8.25234950e+02  1.88046960e+02  5.29645000e+01
  1.68975700e+01  5.79963530e+00  2.94842455e+00  5.42657124e+00
  8.78126489e+00  1.15432129e+01  9.90055015e+00  3.38516599e+00
  1.55396160e+01  3.59993360e+00  1.01376180e+00 -2.19051792e+00
 -9.77405528e-01  2.88629094e+00  2.70005800e-01  9.46334873e-01
  1.55396160e+01  3.59993360e+00  1.01376180e+00  6.37930734e+00
  4.91490975e+00  2.15791055e+00  2.70005800e-01  5.67807022e-01
  8.00000000e-01  1.76578110e+00  1.87311370e+01  2.82539370e+00
  6.40121700e-01  7.61926220e-01  1.29237100e+00  1.47131900e+00
  1.61277800e-01  6.42977783e-01]
ecpbas  = []


******** <class 'pyscf.scf.hf.RHF'> ********
method = RHF
initial guess = minao
damping factor = 0
level shift factor = 0
DIIS = <class 'pyscf.scf.diis.CDIIS'>
DIIS start cycle = 1
DIIS space = 8
SCF tol = 1e-09
SCF gradient tol = None
max. SCF cycles = 50
direct_scf = True
direct_scf_tol = 1e-13
chkfile to save SCF result = /home/liwei01/wsr/dftpart/test_2body/w19/tmpr2upvxi5
max_memory 4000 MB (current use 74 MB)
Set gradient conv threshold to 3.16228e-05
Nelec from initial guess = 189.85962326867443
cond(S) = 1258.5069802942962
    CPU time for vj and vk     46.97 sec, wall time      2.38 sec
E1 = -6150.469810250789  E_coul = 2611.1901482422604
init E= -1443.61254473052
    CPU time for initialize scf     50.13 sec, wall time      2.56 sec
  HOMO = -0.438338487734295  LUMO = 0.0283176587987339
  mo_energy =
[-20.81304687 -20.81211344 -20.81171671 -20.81094318 -20.81085879
 -20.81073149 -20.81046798 -20.81032301 -20.81013153 -20.80991987
 -20.80963826 -20.80949417 -20.80938678 -20.80897553 -20.80890777
 -20.80873634 -20.80854887 -20.80807337 -20.80788153  -1.81280235
  -1.78816429  -1.75370916  -1.70882904  -1.68082681  -1.65641071
  -1.65110004  -1.64255224  -1.63254243  -1.62049013  -1.61881833
  -1.6080763   -1.60030811  -1.59110741  -1.58997515  -1.58631614
  -1.57021872  -1.56678202  -1.56494273  -0.87152149  -0.85624701
  -0.84825945  -0.84682388  -0.84022592  -0.83101651  -0.8190285
  -0.81326008  -0.80370559  -0.7996198   -0.78902629  -0.77845258
  -0.76911485  -0.76050354  -0.75412965  -0.74900566  -0.74224535
  -0.73567152  -0.73051826  -0.6866682   -0.67723514  -0.6676628
  -0.6625234   -0.64522826  -0.64065099  -0.63052013  -0.62770435
  -0.61010035  -0.5948958   -0.59045284  -0.56520129  -0.55578399
  -0.55221898  -0.54192537  -0.53088158  -0.52585092  -0.51671981
  -0.51332264  -0.5097008   -0.50675103  -0.49705721  -0.49517273
  -0.49447281  -0.49387168  -0.48683062  -0.48494081  -0.48217709
  -0.4774955   -0.47501294  -0.47398442  -0.4719226   -0.46846714
  -0.46574693  -0.45528732  -0.44959081  -0.44693549  -0.43833849
   0.02831766   0.05281667   0.08925618   0.10226333   0.13596742
   0.14034609   0.14365625   0.15858399   0.16222915   0.1746217
   0.17865013   0.18238854   0.19411082   0.20129387   0.21083161
   0.21448024   0.21995408   0.22880491   0.23839315   0.24389635
   0.25206596   0.25714785   0.26025637   0.26794629   0.27113672
   0.27635383   0.28185456   0.28244116   0.2910838    0.29242172
   0.30005099   0.30805671   0.31808227   0.32200417   0.33572281
   0.35485277   0.3771221    0.38396871   0.8394199    0.85526439
   0.85996031   0.87377816   0.88248369   0.88635207   0.89708141
   0.90065782   0.91829567   0.92258968   0.93144692   0.93822745
   0.94937897   0.95208879   0.96012742   0.96180079   0.97120212
   0.97365975   0.97990692   0.98735173   0.99550245   0.9971553
   0.99950871   1.0033332    1.00915615   1.01419632   1.02171658
   1.0248174    1.02572234   1.03325379   1.03494851   1.03750031
   1.03940767   1.04940953   1.0579089    1.06339692   1.06479411
   1.0688801    1.07613008   1.08110675   1.08685425   1.08754858
   1.09034375   1.09927928   1.10700006   1.11422234   1.12134948
   1.12546675   1.1331505    1.14521376   1.15538026   1.1635705
   1.17016564   1.17398216   1.18102896   1.18324112   1.18974102
   1.19443613   1.2115999    1.21435416   1.22164961   1.22947285
   1.23083601   1.23658804   1.24264976   1.24609652   1.262328
   1.27528864   1.28252727   1.28431626   1.29180325   1.29973073
   1.30532618   1.31401763   1.31651393   1.32634744   1.33109075
   1.33290461   1.34881587   1.35329738   1.36174463   1.37921228
   1.3819324    1.39487137   1.40096054   1.4062957    1.40727516
   1.41356757   1.42259698   1.42821846   1.43852812   1.45147813
   1.45882835   1.46621913   1.48197196   1.49815488   1.50323119
   1.51194901   1.52480115   1.53120116   1.54987334   1.55443396
   1.56482989   1.58505256   1.60816264   1.62540007   1.63749873
   1.6591779    1.66617998   1.70846487   1.7608433    1.77910774
   1.80960124   1.84645516   1.8747203    1.87803884   1.88028309
   1.88300239   1.88418286   1.88672547   1.89432873   1.89739452
   1.90201904   1.90343134   1.90729809   1.91001406   1.91382395
   1.91734423   1.92043473   1.92185939   1.92620145   1.93026524
   1.93276629   1.93511151   1.93703177   1.93966642   1.94404867
   1.94589439   1.95204842   1.96019917   1.96372976   1.96653058
   1.97207514   1.97453059   1.98139314   1.98666964   1.99239339
   1.99917868   2.00344375   2.00666622   2.01278904   2.02012473
   2.02578788   2.02853635   2.0410991    2.04721133   2.05016214
   2.05514258   2.05951472   2.06607228   2.07578544   2.08190364
   2.08801908   2.09674971   2.10337252   2.14909224   2.19456443
   2.22202731   2.27834073   2.34238395   2.42456387   2.48296526
   2.50448478   2.5156162    2.51894716   2.54324623   2.54438084
   2.56080428   2.56287466   2.57032749   2.57628033   2.59138552
   2.60033733   2.61371834   2.64684268   2.66362391   2.66421937
   2.67294283   2.68227487   2.7285214    2.82866593   2.84043373
   2.84379451   2.85423941   2.85737838   2.86104076   2.87716488
   2.88219354   2.88713517   2.89793846   2.91355303   2.92214399
   2.92397973   2.94071539   2.94990972   2.95815279   2.97460989
   2.98576674   3.00370117   3.87964007   3.92886754   3.94539241
   3.95003992   4.00768929   4.02159143   4.04211302   4.05275841
   4.06909543   4.08023321   4.08954371   4.10533247   4.12006303
   4.14502906   4.15864659   4.28349771   4.31592346   4.33700991
   4.43996608]
    CPU time for vj and vk     45.35 sec, wall time      2.30 sec
E1 = -6194.77708112518  E_coul = 2655.469323091982
cycle= 1 E= -1443.64064075519  delta_E= -0.0281  |g|= 1.66  |ddm|=  5.4
    CPU time for cycle= 1     47.39 sec, wall time      2.42 sec
diis-norm(errvec)=3.07958
diis-c [-9.48381065  1.        ]
  HOMO = -0.358968190149872  LUMO = 0.145302487420223
  mo_energy =
[-20.47667262 -20.41471539 -20.41290805 -20.41048229 -20.40744037
 -20.38575064 -20.36920847 -20.3625739  -20.3595511  -20.35043845
 -20.34935332 -20.34269441 -20.32441118 -20.30913281 -20.30453097
 -20.30040742 -20.29359956 -20.27557687 -20.27135204  -1.39571542
  -1.35342231  -1.34776922  -1.3328255   -1.32528979  -1.31750026
  -1.30284316  -1.30016843  -1.29342074  -1.29164685  -1.27878984
  -1.27355732  -1.26327825  -1.25529582  -1.24497565  -1.24209085
  -1.23269306  -1.22544275  -1.21058814  -0.79588239  -0.75285849
  -0.74378996  -0.73419239  -0.73183335  -0.7156685   -0.71242848
  -0.69472231  -0.68532393  -0.68439433  -0.6787617   -0.67457138
  -0.67353774  -0.65740627  -0.65059936  -0.64904002  -0.63021567
  -0.62435936  -0.62171396  -0.61265154  -0.60231639  -0.58178499
  -0.57772864  -0.5742374   -0.57140085  -0.53998733  -0.5337961
  -0.53054006  -0.52189813  -0.51878344  -0.51014123  -0.49809711
  -0.49114418  -0.4817533   -0.4809813   -0.4757232   -0.47104935
  -0.46744912  -0.46313473  -0.45536738  -0.45290339  -0.43982642
  -0.43914984  -0.43656499  -0.43360185  -0.42767345  -0.4256468
  -0.42194332  -0.41523564  -0.4041926   -0.4007607   -0.39620439
  -0.39123305  -0.38618012  -0.37777673  -0.37363623  -0.35896819
   0.14530249   0.20512363   0.21452122   0.23947386   0.24881239
   0.25775155   0.26428469   0.28006331   0.29405806   0.29467381
   0.30700078   0.30898475   0.3223146    0.3260821    0.32900409
   0.33800528   0.34552384   0.35127359   0.36510862   0.36757935
   0.37584163   0.37921103   0.38725194   0.39235526   0.39533791
   0.40245226   0.41430435   0.42342183   0.43236648   0.44026398
   0.44808765   0.45641397   0.4660201    0.47398408   0.48072184
   0.51297608   0.5343046    0.55834793   0.96517418   0.9683781
   0.98284059   0.98951147   0.99532827   1.0020697    1.01496691
   1.02411472   1.02981308   1.04251238   1.04917122   1.05647605
   1.06691107   1.07398448   1.07963984   1.08315985   1.08416348
   1.09455699   1.09700462   1.10995533   1.11226814   1.11681728
   1.12266444   1.13020663   1.13226675   1.14234895   1.15311941
   1.15484869   1.16329609   1.16483287   1.16732742   1.17236428
   1.17902855   1.182618     1.18950227   1.19916957   1.20633721
   1.20906261   1.21010148   1.21754912   1.22504223   1.22837721
   1.23482778   1.23857538   1.24273653   1.25962884   1.2697753
   1.27426646   1.28825361   1.29089494   1.29857309   1.30647298
   1.31983317   1.32864901   1.3413724    1.34427339   1.35039035
   1.35469884   1.37179793   1.3817111    1.38870437   1.3909487
   1.39843724   1.40044154   1.41032761   1.4159431    1.41692903
   1.42988176   1.43362901   1.43886376   1.44222603   1.45956389
   1.46518469   1.46903208   1.47775975   1.48213983   1.48362983
   1.50246486   1.50486697   1.51621068   1.52421737   1.53574741
   1.54096365   1.54456834   1.55341112   1.56294125   1.57043808
   1.57588497   1.58370253   1.59205307   1.59765691   1.61402521
   1.6171927    1.62174102   1.62674253   1.63309398   1.65299862
   1.66347132   1.68064644   1.68422388   1.70564042   1.7149347
   1.72765684   1.73659994   1.75898952   1.77769911   1.78377803
   1.82165215   1.83847701   1.84292867   1.90240776   1.90356895
   1.97846265   1.99948486   2.00462713   2.02432009   2.0340428
   2.04096103   2.0422183    2.04891322   2.05268188   2.06196582
   2.07497292   2.07940223   2.08090805   2.08257552   2.08661702
   2.09042268   2.09575996   2.09868719   2.10218251   2.10448996
   2.10633798   2.11240716   2.12425788   2.12433451   2.12981025
   2.13879182   2.14004005   2.14348349   2.14722948   2.15050548
   2.15676919   2.15945639   2.16166042   2.16796567   2.17157667
   2.1782811    2.18591364   2.19779692   2.20111828   2.20590239
   2.21254183   2.2151461    2.22058593   2.22553294   2.22662799
   2.23017307   2.23211456   2.24616023   2.25191371   2.26717342
   2.26987796   2.27171205   2.27615615   2.31204984   2.34628315
   2.36408885   2.41198832   2.52260926   2.56600683   2.59903618
   2.65946717   2.66940416   2.67828402   2.69585215   2.70189655
   2.71539955   2.71783484   2.72569683   2.73898679   2.74268047
   2.74868551   2.77038402   2.78447606   2.79176592   2.80887685
   2.82582046   2.85964532   2.90884233   2.95984543   2.96767369
   2.98306875   2.99896303   3.00224142   3.01583332   3.01831704
   3.03634528   3.04800214   3.06023957   3.07257702   3.07860002
   3.08284448   3.08811217   3.09590414   3.11126271   3.12304804
   3.13206446   3.15727126   4.09218895   4.12671851   4.17579832
   4.20740944   4.23330275   4.24183811   4.26650374   4.27316378
   4.27723385   4.28655303   4.30331787   4.31602597   4.34205469
   4.36092514   4.37284185   4.49718867   4.52229421   4.58099217
   4.67844597]
    CPU time for vj and vk     43.69 sec, wall time      2.21 sec
E1 = -6169.455815355521  E_coul = 2629.7076827317615
cycle= 2 E= -1444.08101534576  delta_E= -0.44  |g|= 0.776  |ddm|= 1.43
    CPU time for cycle= 2     45.55 sec, wall time      2.31 sec
diis-norm(errvec)=1.38052
diis-c [-0.69089734  0.27098522  0.72901478]
  HOMO = -0.449620759674821  LUMO = 0.145168946502111
  mo_energy =
[-20.64859764 -20.6146131  -20.60834543 -20.60447989 -20.59859155
 -20.59660031 -20.5934105  -20.58852364 -20.58625577 -20.58142428
 -20.57946508 -20.57258567 -20.56237688 -20.55774608 -20.55709286
 -20.55207504 -20.55152079 -20.54634065 -20.53756475  -1.4374881
  -1.4085136   -1.40325104  -1.38832357  -1.38565361  -1.37433915
  -1.37176007  -1.36589257  -1.36221721  -1.35853991  -1.34901621
  -1.34428762  -1.33707306  -1.33512599  -1.32088774  -1.31871641
  -1.31822867  -1.31252649  -1.29778297  -0.82493684  -0.79466531
  -0.78385732  -0.7799018   -0.77776962  -0.76590567  -0.75882029
  -0.74614706  -0.73918749  -0.73624118  -0.73332422  -0.73079232
  -0.72777475  -0.71522198  -0.70986714  -0.7069785   -0.69476211
  -0.68779393  -0.67898196  -0.67785867  -0.66292631  -0.64315257
  -0.63931766  -0.63709404  -0.63147822  -0.60921739  -0.60210358
  -0.59445786  -0.58644014  -0.58240605  -0.57518483  -0.56460285
  -0.56002314  -0.54966497  -0.5453316   -0.54192089  -0.54039972
  -0.53493455  -0.53075394  -0.52742521  -0.52235157  -0.51867461
  -0.51625311  -0.51544416  -0.51126332  -0.50695875  -0.50081849
  -0.49842321  -0.49371419  -0.48409728  -0.48246882  -0.47801485
  -0.47475564  -0.47169149  -0.46908147  -0.45410708  -0.44962076
   0.14516895   0.19262565   0.20392769   0.232086     0.23792147
   0.24519983   0.24954588   0.26267024   0.27809983   0.28309996
   0.29007868   0.29884017   0.30560728   0.30919231   0.31075645
   0.32079166   0.32966757   0.33587912   0.34609491   0.34761476
   0.35796101   0.36226987   0.36807631   0.37333289   0.3765161
   0.38305533   0.39147217   0.40123815   0.40864563   0.41585643
   0.42221303   0.42802586   0.43871441   0.44433654   0.4590002
   0.48913372   0.49731792   0.52417526   0.93171255   0.93958483
   0.95391554   0.96160692   0.96586449   0.97869566   0.98132729
   0.98612572   0.99914533   1.00501052   1.01989206   1.03013705
   1.03503705   1.03968377   1.05185834   1.05431145   1.05470533
   1.05627102   1.06349522   1.07229058   1.07936654   1.08883231
   1.08999741   1.09565937   1.097403     1.10893217   1.10998249
   1.11768942   1.11914846   1.12370587   1.12925713   1.13589777
   1.13652541   1.14856854   1.15084982   1.15469209   1.15787806
   1.16558789   1.16827331   1.17175742   1.1783528    1.18352108
   1.18793974   1.19994593   1.20203572   1.21534117   1.2215576
   1.23025181   1.23737813   1.24209408   1.24908783   1.26151607
   1.27211938   1.27991926   1.29162431   1.29712098   1.30383153
   1.30544956   1.32024735   1.33353824   1.33470461   1.34170155
   1.34299444   1.34828182   1.35411706   1.36567738   1.37186255
   1.37996082   1.3835294    1.39040293   1.39280812   1.41087823
   1.41207466   1.41874614   1.42533039   1.43033642   1.43705706
   1.45107233   1.45386665   1.46376796   1.47024739   1.48135634
   1.48834033   1.4946732    1.4992439    1.51291466   1.51902526
   1.5221201    1.52927214   1.53640057   1.54265013   1.55971529
   1.56090096   1.57433233   1.58002664   1.5857242    1.5969752
   1.61412852   1.6281997    1.63183352   1.65395412   1.66470746
   1.6758556    1.68512476   1.70790705   1.7282263    1.73360354
   1.77240704   1.7841203    1.79455125   1.85534716   1.86206141
   1.9300543    1.95703037   1.95894343   1.97701348   1.98737297
   1.99594714   1.99611998   2.00262885   2.00388024   2.00556904
   2.02146813   2.02367605   2.02417662   2.02593819   2.03144667
   2.03268933   2.03767969   2.0406428    2.04652385   2.0503145
   2.05307346   2.05741404   2.06265344   2.06506362   2.0735081
   2.08055014   2.08220268   2.08620443   2.08696423   2.08868838
   2.0909829    2.09205505   2.10083371   2.10541267   2.10936155
   2.11503118   2.13064246   2.14017965   2.14289726   2.14644969
   2.15584439   2.16149979   2.16381635   2.16621367   2.16686938
   2.1703741    2.17701737   2.18332161   2.19547101   2.1990405
   2.20034124   2.21128496   2.21342009   2.25804727   2.30180917
   2.31488686   2.3660625    2.47250885   2.54054649   2.54966945
   2.61942459   2.62383354   2.63078135   2.64939172   2.6588266
   2.66824001   2.67775834   2.67993198   2.6888188    2.6933991
   2.70085368   2.71426594   2.74271338   2.75297945   2.76719488
   2.7796628    2.80851609   2.85727293   2.92231691   2.93139913
   2.9470027    2.94911844   2.95891428   2.97517279   2.98465469
   2.98708826   2.99934201   3.01612126   3.02255905   3.02911701
   3.0319687    3.03878106   3.04822108   3.07174267   3.07684454
   3.08856095   3.1060321    4.03133032   4.03711909   4.08489729
   4.12858968   4.13606354   4.16805171   4.18621684   4.19854853
   4.20518341   4.21232001   4.23168669   4.23808266   4.26262658
   4.27974027   4.29406513   4.41575275   4.44329792   4.49776663
   4.59387608]
    CPU time for vj and vk     41.97 sec, wall time      2.12 sec
E1 = -6180.505704238265  E_coul = 2640.654251818826
cycle= 3 E= -1444.18433514143  delta_E= -0.103  |g|= 0.13  |ddm|= 0.531
    CPU time for cycle= 3     42.75 sec, wall time      2.16 sec
diis-norm(errvec)=0.245175
diis-c [-0.01902948 -0.06231483  0.02133693  1.0409779 ]
  HOMO = -0.439947360963782  LUMO = 0.155192353365086
  mo_energy =
[-20.62016605 -20.58466282 -20.57985588 -20.57623958 -20.5749009
 -20.57288671 -20.55941475 -20.55706345 -20.5545022  -20.55411041
 -20.5498169  -20.53645325 -20.53566985 -20.52533285 -20.52459981
 -20.52117172 -20.52057196 -20.51422504 -20.50178549  -1.42234941
  -1.39626653  -1.38891179  -1.37604708  -1.37124577  -1.36251755
  -1.3579628   -1.35334202  -1.34844083  -1.34743625  -1.33510905
  -1.33146734  -1.32511618  -1.3220997   -1.30948164  -1.30685943
  -1.30343863  -1.30082076  -1.28511082  -0.81050931  -0.78309359
  -0.77058031  -0.76765699  -0.76522742  -0.75283023  -0.74747671
  -0.73666571  -0.72801197  -0.72341268  -0.7227949   -0.71984576
  -0.71560708  -0.70400944  -0.69864686  -0.69708538  -0.68179326
  -0.67785099  -0.66864537  -0.66587432  -0.65255876  -0.63305681
  -0.62941867  -0.62654935  -0.62119273  -0.59714251  -0.59273694
  -0.58478343  -0.57732155  -0.57261444  -0.56450456  -0.55434204
  -0.54946907  -0.54062037  -0.53525161  -0.53130145  -0.52980208
  -0.52504001  -0.52057958  -0.51728689  -0.51295166  -0.50702401
  -0.50663304  -0.50276704  -0.50071636  -0.49720079  -0.49069218
  -0.4896544   -0.48296951  -0.47520632  -0.47247331  -0.46869771
  -0.46242841  -0.46189037  -0.45973878  -0.44581886  -0.43994736
   0.15519235   0.20029731   0.21166178   0.23974523   0.24513183
   0.25197819   0.2563463    0.26883938   0.28424146   0.29072667
   0.29652157   0.30630247   0.31247919   0.31540887   0.31715038
   0.32732953   0.33553474   0.34284089   0.35131503   0.3549372
   0.36448186   0.37013121   0.37574694   0.38110638   0.38595399
   0.38968021   0.39945278   0.40880207   0.41570535   0.42231668
   0.43095825   0.43458715   0.44658351   0.45137056   0.4668968
   0.49840513   0.50574101   0.53300571   0.93969061   0.94930072
   0.9623143    0.96864087   0.97561349   0.98905721   0.99056624
   0.99413262   1.00900691   1.01313861   1.02791679   1.03922261
   1.04468701   1.04882143   1.05873407   1.06282047   1.06333834
   1.06589689   1.07144647   1.08031336   1.08989589   1.09840557
   1.10103289   1.10496956   1.1067814    1.11865908   1.1195266
   1.12530033   1.12918189   1.13332975   1.13932034   1.14493244
   1.14693672   1.15892388   1.16020948   1.16558539   1.16801288
   1.17595326   1.17788869   1.18030745   1.18843898   1.19301036
   1.19666934   1.2102827    1.21245162   1.22564437   1.23251378
   1.23864784   1.24514682   1.25284626   1.25966136   1.27099508
   1.28222409   1.28992057   1.3020019    1.30772498   1.31439093
   1.31599981   1.33007188   1.34434339   1.34465742   1.35176179
   1.35262577   1.35802041   1.36558957   1.37652798   1.38126931
   1.39058633   1.39385065   1.40177955   1.40391013   1.42055497
   1.4228749    1.42911875   1.43532308   1.44106156   1.44819782
   1.45995615   1.46487578   1.47310756   1.48031079   1.49198852
   1.49831891   1.50615865   1.50963504   1.52306076   1.52855049
   1.53182254   1.53856354   1.5449421    1.55174392   1.56947654
   1.57081023   1.58423495   1.5898791    1.59577398   1.6061433
   1.62302937   1.6368413    1.64174624   1.66395887   1.67347773
   1.68427653   1.69361107   1.71781853   1.73685893   1.7440873
   1.78152623   1.79289193   1.80482022   1.86535452   1.87281192
   1.93881793   1.96632034   1.97159404   1.98863163   1.99797001
   2.00652849   2.00774604   2.01386568   2.014522     2.01710487
   2.0322486    2.03369387   2.03521183   2.03718643   2.04100523
   2.0434806    2.0485771    2.05101757   2.05755104   2.06041073
   2.06333477   2.06926761   2.07176705   2.07613321   2.08384087
   2.09101698   2.09327443   2.09646771   2.0967816    2.09817717
   2.10164683   2.10324975   2.11161436   2.11566409   2.11934288
   2.12574637   2.13999996   2.15050334   2.15240142   2.15634479
   2.1659735    2.17166172   2.17455512   2.17585493   2.17696321
   2.18146699   2.1872858    2.19495788   2.2058496    2.20953252
   2.21041536   2.22064973   2.22366515   2.26805702   2.31247767
   2.32278819   2.37650703   2.48013245   2.5537578    2.55832785
   2.6310565    2.63417156   2.64293316   2.65811225   2.66961201
   2.67870621   2.68810304   2.6906196    2.6980693    2.70390664
   2.71019455   2.72499466   2.75306687   2.76331823   2.7780407
   2.78958973   2.81734471   2.8661922    2.93444602   2.94458601
   2.95782141   2.96183107   2.96988644   2.98641621   2.99590456
   2.99728661   3.01197196   3.02709395   3.03264464   3.04058343
   3.04350661   3.04864385   3.05939561   3.08331577   3.0869162
   3.09909171   3.11565092   4.04609654   4.05165745   4.09950652
   4.14216445   4.14803113   4.17974468   4.19947091   4.20939561
   4.21704277   4.22449567   4.24321866   4.24864943   4.27482846
   4.29144235   4.3060473    4.42847423   4.45574609   4.50797502
   4.60528865]
    CPU time for vj and vk     40.14 sec, wall time      2.03 sec
E1 = -6179.213063139538  E_coul = 2639.357447721794
cycle= 4 E= -1444.18849813974  delta_E= -0.00416  |g|= 0.0177  |ddm|= 0.109
    CPU time for cycle= 4     41.25 sec, wall time      2.08 sec
diis-norm(errvec)=0.0353628
diis-c [-6.93603617e-04 -4.54353474e-03 -1.79479806e-02 -7.30066974e-02
  1.09549821e+00]
  HOMO = -0.441893650879604  LUMO = 0.155025491624788
  mo_energy =
[-20.62067166 -20.58529311 -20.57862521 -20.57704029 -20.57399472
 -20.57174818 -20.55935851 -20.5584482  -20.55765469 -20.55300003
 -20.55186305 -20.53935025 -20.53329706 -20.52702394 -20.5269092
 -20.524758   -20.52244193 -20.51656925 -20.50650867  -1.42286489
  -1.39612759  -1.38958734  -1.37596432  -1.37204727  -1.36233642
  -1.35886625  -1.35360237  -1.3492662   -1.34777025  -1.3360894
  -1.33204992  -1.32559509  -1.32296857  -1.30993386  -1.30758452
  -1.3056028   -1.30190177  -1.28679138  -0.81062427  -0.78258133
  -0.77080705  -0.76757441  -0.76532774  -0.75343749  -0.74716366
  -0.73661952  -0.72828159  -0.72385385  -0.72301138  -0.720015
  -0.71600264  -0.70415438  -0.69897846  -0.6972668   -0.68296221
  -0.67835198  -0.66935313  -0.66624942  -0.65275099  -0.63321028
  -0.62956735  -0.62691841  -0.62133289  -0.59869141  -0.59320444
  -0.58496454  -0.57743304  -0.57285499  -0.56498475  -0.55477213
  -0.55012008  -0.54119404  -0.53569973  -0.53180535  -0.53067051
  -0.52548985  -0.52107296  -0.51798541  -0.51344486  -0.50864529
  -0.50730277  -0.50488093  -0.50180126  -0.4979399   -0.49153
  -0.49042283  -0.48422381  -0.4760344   -0.47358375  -0.46974581
  -0.46493134  -0.46286861  -0.46104729  -0.44694898  -0.44189365
   0.15502549   0.200395     0.21134602   0.23948225   0.2451689
   0.25190618   0.2562421    0.26898009   0.28412189   0.290663
   0.29631081   0.30636391   0.31256389   0.31535908   0.31712778
   0.32734336   0.33557363   0.34277319   0.35112564   0.35475227
   0.3646524    0.37021156   0.37546698   0.38120081   0.38566972
   0.38949949   0.39922001   0.40874233   0.41571928   0.42218072
   0.43068394   0.43441541   0.44645823   0.45132955   0.46681558
   0.49826652   0.50514163   0.53243431   0.93933783   0.94863207
   0.96181536   0.96830312   0.97497242   0.98846527   0.98991164
   0.99335263   1.00854627   1.01276244   1.02769428   1.03871729
   1.04433272   1.0484562    1.05824963   1.06230081   1.06286655
   1.06540936   1.07097967   1.07991919   1.08925385   1.09775827
   1.10037222   1.1046987    1.10626701   1.11821771   1.11922912
   1.12507044   1.12887754   1.1326005    1.13856699   1.14436511
   1.14653745   1.15841181   1.15973262   1.16469519   1.16752264
   1.17544939   1.17742236   1.18001061   1.18764862   1.1921922
   1.1961383    1.20983905   1.21192716   1.22515555   1.23195276
   1.2379806    1.24463165   1.2522431    1.25928825   1.27060061
   1.28171725   1.28949553   1.30144334   1.30728553   1.31382005
   1.31584217   1.32972732   1.34375612   1.34430223   1.35120153
   1.35215894   1.3575568    1.36483997   1.37603183   1.38111895
   1.3899205    1.39342303   1.4012204    1.40333403   1.42027528
   1.42225198   1.42884074   1.43491339   1.44083466   1.4478702
   1.4596746    1.46444333   1.47277615   1.47998934   1.49130278
   1.49791154   1.50560235   1.50940772   1.52328784   1.52812806
   1.53149447   1.53812416   1.54452398   1.55136369   1.56908902
   1.57039309   1.58343101   1.58963437   1.59519767   1.60559519
   1.6227804    1.63649979   1.64116479   1.6629843    1.67307047
   1.68346136   1.69319526   1.71745402   1.73670605   1.74351535
   1.78110067   1.79226914   1.80438164   1.86490866   1.87244281
   1.93863716   1.96609382   1.97119803   1.9882069    1.99806774
   2.00667281   2.00736694   2.01366128   2.01448941   2.01642278
   2.03175386   2.03316243   2.03463636   2.03655034   2.04041478
   2.04309612   2.04800987   2.05059388   2.0569877    2.06005467
   2.06311272   2.06839627   2.07124771   2.0755314    2.08336967
   2.09062933   2.09240071   2.09563661   2.09627853   2.09761101
   2.10096963   2.10195546   2.11124808   2.11524783   2.11846628
   2.12513726   2.13986154   2.14998847   2.15183339   2.15592271
   2.16545591   2.17092747   2.17393801   2.17536326   2.17657647
   2.18096246   2.18726545   2.19406814   2.20549273   2.20870979
   2.20948387   2.22004032   2.22333608   2.26764219   2.31197443
   2.32266158   2.37614169   2.47971213   2.55356733   2.55802117
   2.63048331   2.63400179   2.64204587   2.65762849   2.6694501
   2.67847629   2.68800933   2.69021708   2.69761644   2.70345462
   2.70988781   2.72439036   2.75306581   2.76345369   2.77794163
   2.7893408    2.81679823   2.86563911   2.93429799   2.94411403
   2.95816411   2.96082006   2.96990437   2.98644477   2.99576208
   2.99701954   3.01144994   3.02686531   3.03217749   3.04007954
   3.04310381   3.04810937   3.0593066    3.08326286   3.08690089
   3.09910558   3.11506818   4.0445171    4.05080769   4.0979214
   4.14153876   4.14662071   4.1796818    4.19883428   4.20923899
   4.21715974   4.22456275   4.24327079   4.24855637   4.27445671
   4.29106615   4.30580139   4.42812139   4.45568414   4.5077761
   4.6048243 ]
    CPU time for vj and vk     37.62 sec, wall time      1.90 sec
E1 = -6179.251878365877  E_coul = 2639.3961214751694
cycle= 5 E= -1444.1886396127  delta_E= -0.000141  |g|= 0.00591  |ddm|= 0.029
    CPU time for cycle= 5     38.73 sec, wall time      1.96 sec
diis-norm(errvec)=0.010712
diis-c [-8.15216161e-05  1.39431424e-03 -9.51567875e-07 -3.92692556e-02
  5.28515922e-02  9.85024301e-01]
  HOMO = -0.441551679574537  LUMO = 0.155184673565271
  mo_energy =
[-20.62059346 -20.5856745  -20.57980956 -20.57627852 -20.57570353
 -20.5728607  -20.55983485 -20.55804283 -20.55696188 -20.55437799
 -20.55107837 -20.53827531 -20.53558376 -20.52666326 -20.52538225
 -20.52372353 -20.52242623 -20.51602469 -20.50420677  -1.4227869
  -1.39639992  -1.38956541  -1.37624516  -1.37197099  -1.36268276
  -1.35870752  -1.35369873  -1.34919665  -1.34800014  -1.33592458
  -1.33201254  -1.32574599  -1.32283521  -1.31010519  -1.30766136
  -1.30464867  -1.30177762  -1.28619143  -0.81045713  -0.78276231
  -0.77070324  -0.76758871  -0.76524922  -0.75310196  -0.74725483
  -0.73682532  -0.72818377  -0.723631    -0.72300729  -0.72000864
  -0.71582621  -0.70409637  -0.69885768  -0.69725389  -0.68221862
  -0.67819268  -0.66907795  -0.66616369  -0.65287562  -0.63335006
  -0.62973139  -0.62694632  -0.62149669  -0.59800314  -0.59324271
  -0.58521467  -0.57771204  -0.57304319  -0.56512147  -0.55496295
  -0.55013288  -0.54129765  -0.53590598  -0.53203813  -0.53075467
  -0.52566656  -0.52133768  -0.51818154  -0.51375151  -0.50792718
  -0.50737811  -0.50438269  -0.50180479  -0.49817669  -0.49176403
  -0.49068255  -0.48432678  -0.47611466  -0.4738105   -0.46999366
  -0.46415487  -0.46303244  -0.46114834  -0.44725262  -0.44155168
   0.15518467   0.20033887   0.21145227   0.23956332   0.24514492
   0.25190532   0.25625264   0.26891662   0.28414016   0.29068123
   0.29641525   0.30634887   0.31255252   0.31536376   0.31711208
   0.32733736   0.33548261   0.34279675   0.3511374    0.35485934
   0.36459125   0.37024065   0.37559066   0.38116855   0.38578592
   0.38950254   0.3993255    0.40879571   0.41569943   0.42218719
   0.43080433   0.43446973   0.44651162   0.45130975   0.4667943
   0.49828785   0.50517543   0.53248702   0.93925527   0.94869099
   0.9618436    0.96818742   0.97506668   0.98849387   0.98998205
   0.99334997   1.00857118   1.01266974   1.02756665   1.03878632
   1.0442949    1.04842345   1.05818485   1.06240195   1.06290274
   1.06543065   1.07093073   1.07985598   1.08944069   1.09788639
   1.1004757    1.10460754   1.10634888   1.11818923   1.11919007
   1.12490206   1.12879859   1.13279079   1.13869624   1.1443771
   1.14654848   1.15841805   1.15960664   1.16486687   1.16754228
   1.1754727    1.17737718   1.17981719   1.18777859   1.19229335
   1.19610959   1.20980014   1.21193439   1.22512576   1.2320427
   1.23794582   1.24466475   1.25231542   1.25925451   1.27052693
   1.28174745   1.2895522    1.30148554   1.30732991   1.31392465
   1.31581978   1.3296805    1.34389234   1.34424874   1.35131659
   1.3522881    1.35763843   1.36511368   1.37611351   1.380937
   1.39005528   1.39344995   1.40130146   1.40339675   1.42023388
   1.42239127   1.42883429   1.43493893   1.44080627   1.44787028
   1.45959892   1.46446911   1.47272764   1.4800625    1.49149245
   1.49798496   1.50567772   1.50932492   1.52305375   1.52811461
   1.53149258   1.53820775   1.54454647   1.55130012   1.56906225
   1.57039159   1.58354587   1.58955703   1.59525368   1.60559521
   1.62268529   1.63640502   1.64111064   1.66324837   1.67292445
   1.68351839   1.69310757   1.71739911   1.7365569    1.74348131
   1.78098257   1.7921885    1.80430715   1.86488404   1.87241603
   1.93842113   1.96595314   1.97124646   1.98818088   1.99783017
   2.00641016   2.00736104   2.01357139   2.01429055   2.0165412
   2.03171993   2.03313504   2.03471831   2.03666228   2.04043438
   2.04309495   2.04808266   2.05057899   2.05702503   2.05997505
   2.06299969   2.06865023   2.0712152    2.07561417   2.08337089
   2.09056392   2.0926238    2.09593882   2.0962442    2.09758537
   2.10113885   2.10245364   2.11115577   2.11527786   2.11870992
   2.12525884   2.13965029   2.14997088   2.15184139   2.15585484
   2.1654323    2.17103027   2.17398427   2.17532782   2.17654817
   2.18102044   2.18709905   2.19435059   2.20550098   2.20879941
   2.20979051   2.21997466   2.22328486   2.26762133   2.31197372
   2.32237003   2.37605717   2.47955203   2.55367914   2.55787727
   2.63065685   2.63398652   2.6423722    2.65761559   2.66940814
   2.67845238   2.68792163   2.69026165   2.69764762   2.70355997
   2.70986104   2.72461027   2.75295735   2.76327246   2.7778507
   2.78923586   2.81682764   2.86553589   2.93420967   2.94433172
   2.95793302   2.96127445   2.96981414   2.9863618    2.99566323
   2.9970934    3.01170471   3.02688227   3.03223857   3.04022827
   3.04321776   3.04827863   3.05925947   3.08313782   3.08674035
   3.09896375   3.11507019   4.04519501   4.05109627   4.09861528
   4.14169148   4.14728099   4.17947772   4.19889638   4.20899941
   4.21687544   4.22428314   4.24295893   4.24824916   4.27437161
   4.29099258   4.30573166   4.42809985   4.45543447   4.50749081
   4.60474434]
    CPU time for vj and vk     34.86 sec, wall time      1.76 sec
E1 = -6179.242357682331  E_coul = 2639.386588214734
cycle= 6 E= -1444.18865218959  delta_E= -1.26e-05  |g|= 0.00248  |ddm|= 0.00863
    CPU time for cycle= 6     35.83 sec, wall time      1.81 sec
diis-norm(errvec)=0.00452184
diis-c [-4.90406348e-06  8.61952520e-04  3.09899588e-03  8.98239567e-04
 -1.41009620e-01  2.03384596e-01  9.32765836e-01]
  HOMO = -0.441797549094825  LUMO = 0.155241323324352
  mo_energy =
[-20.62040152 -20.58530236 -20.57920117 -20.57635198 -20.57494057
 -20.5723161  -20.55909741 -20.55767263 -20.55757155 -20.55373855
 -20.55124036 -20.53852666 -20.53458168 -20.52669617 -20.52501984
 -20.52462836 -20.52232363 -20.51604803 -20.50487579  -1.42268878
  -1.39623085  -1.38946615  -1.37606699  -1.37189099  -1.36249016
  -1.35869341  -1.35360926  -1.34914811  -1.34786015  -1.3359225
  -1.33197572  -1.32564881  -1.32284358  -1.31000395  -1.30760553
  -1.30494675  -1.30178277  -1.28637648  -0.81033805  -0.78257898
  -0.77055988  -0.76744003  -0.76512343  -0.75309255  -0.74708655
  -0.7366633   -0.72812167  -0.72354424  -0.72290802  -0.7199115
  -0.71574316  -0.70399062  -0.69878705  -0.69715158  -0.68236186
  -0.6781495   -0.6690834   -0.66610487  -0.6528023   -0.63328485
  -0.62964804  -0.62690001  -0.62139253  -0.59824588  -0.59322812
  -0.58510936  -0.57760073  -0.57295987  -0.56505603  -0.55489474
  -0.5501343   -0.54127886  -0.53583955  -0.53195143  -0.5307582
  -0.52561034  -0.52128071  -0.51817013  -0.51369164  -0.50817883
  -0.5073954   -0.50461246  -0.50186894  -0.49815768  -0.49174372
  -0.49066983  -0.48437789  -0.47611362  -0.47382823  -0.4700007
  -0.46452656  -0.46304693  -0.46119699  -0.44726202  -0.44179755
   0.15524132   0.2003787    0.21144205   0.23957612   0.24518602
   0.25192909   0.25627988   0.26894198   0.28412993   0.29071232
   0.29638322   0.30637889   0.3125798    0.31535716   0.3171227
   0.32736007   0.3354902    0.34282274   0.35112368   0.35485256
   0.36466319   0.37029253   0.37556801   0.38122507   0.38583222
   0.3895432    0.39932513   0.40882952   0.41575728   0.42221578
   0.43082869   0.4344832    0.44654535   0.45137337   0.46685169
   0.49837893   0.5052348    0.53253667   0.93928285   0.94871119
   0.96184921   0.96823502   0.97505152   0.98852816   0.98995891
   0.993334     1.00860249   1.01269913   1.02761023   1.03879513
   1.04432792   1.0484505    1.0581985    1.06237402   1.06289205
   1.06544744   1.07094648   1.07987294   1.08939588   1.09783462
   1.10045927   1.1046447    1.10633168   1.11818901   1.11921381
   1.12492908   1.12883404   1.13273026   1.13864898   1.14437271
   1.14658504   1.15845112   1.15964487   1.16481414   1.16756014
   1.17547912   1.1773961    1.17987118   1.18773634   1.19225086
   1.1961256    1.20981597   1.21198014   1.22515645   1.23203169
   1.23794305   1.24463585   1.25230127   1.25929234   1.27057656
   1.28176318   1.28955409   1.30149763   1.30735976   1.31390395
   1.31589642   1.32971372   1.34387281   1.34430499   1.35130743
   1.35227369   1.35764387   1.3650565    1.37612879   1.38105017
   1.3900486    1.39349621   1.40133534   1.40343314   1.42029144
   1.42237542   1.42889188   1.43496966   1.44087786   1.44794452
   1.45964376   1.46452039   1.47276729   1.48008663   1.49146687
   1.49800747   1.50571605   1.50941511   1.52320484   1.52814672
   1.53152818   1.53820117   1.54456736   1.55133581   1.56910958
   1.5704311    1.5835368    1.58962726   1.59527755   1.60562599
   1.62274395   1.63645271   1.64118086   1.66317435   1.67299983
   1.68350994   1.69316156   1.71747021   1.73664066   1.7435422
   1.78104282   1.79224828   1.80438446   1.86493275   1.87248438
   1.93852099   1.9660262    1.97130394   1.98824205   1.9979465
   2.00653795   2.00741566   2.01364864   2.01440162   2.01653013
   2.03174555   2.03315476   2.03471593   2.03664608   2.04042425
   2.04311827   2.04807447   2.05060038   2.05704049   2.06002359
   2.06306029   2.0686015    2.07122493   2.07560517   2.0833921
   2.09060792   2.09256201   2.09584039   2.09626049   2.09759554
   2.10111554   2.10226614   2.11122821   2.11528677   2.11862397
   2.12523916   2.13974158   2.14999313   2.15185323   2.15589122
   2.16545507   2.17100177   2.17399629   2.17535259   2.17658481
   2.18104219   2.18718927   2.19428094   2.20551811   2.20876997
   2.2096964    2.22001021   2.22332227   2.26765307   2.31202983
   2.3224991    2.37614529   2.47961405   2.55373391   2.55794555
   2.63062686   2.63401786   2.64228109   2.65761688   2.66945903
   2.67847619   2.68797831   2.69028153   2.69763696   2.7035449
   2.70988147   2.72454362   2.75302277   2.76336896   2.77791905
   2.78929647   2.81681045   2.86556677   2.93430595   2.94431616
   2.95804565   2.96112222   2.96988065   2.986423     2.99570451
   2.99711531   3.01166229   3.02690508   3.03223299   3.04018637
   3.04319486   3.04821408   3.05930862   3.08323054   3.08683384
   3.09904517   3.11508311   4.04500411   4.05106765   4.09840977
   4.14169362   4.14704597   4.17958247   4.19891959   4.20910164
   4.21702398   4.22443562   4.24311414   4.24837794   4.2744329
   4.2910429    4.30578342   4.42813769   4.45557645   4.50760616
   4.60478133]
    CPU time for vj and vk     33.11 sec, wall time      1.68 sec
E1 = -6179.232129555601  E_coul = 2639.376357937652
cycle= 7 E= -1444.18865433995  delta_E= -2.15e-06  |g|= 0.000441  |ddm|= 0.00361
    CPU time for cycle= 7     34.11 sec, wall time      1.73 sec
diis-norm(errvec)=0.000776212
diis-c [-3.08088602e-07 -1.51195005e-04 -1.85132257e-04  1.40108204e-03
  9.44881508e-03 -7.12666525e-02 -8.29095243e-02  1.14366261e+00]
  HOMO = -0.441817987221434  LUMO = 0.155237831747767
  mo_energy =
[-20.62037441 -20.58533041 -20.57923726 -20.57630377 -20.57498018
 -20.57232586 -20.5591728  -20.55775205 -20.55756074 -20.55377474
 -20.55115685 -20.53845538 -20.53470749 -20.52662877 -20.52504654
 -20.52458276 -20.52229627 -20.51604749 -20.50480681  -1.42269489
  -1.39625012  -1.38948284  -1.37609109  -1.37190444  -1.36251483
  -1.35871264  -1.35361911  -1.34916778  -1.34789322  -1.33593955
  -1.33197845  -1.32567052  -1.32284437  -1.31002547  -1.30762666
  -1.30494072  -1.30180566  -1.28637694  -0.81033202  -0.78258438
  -0.77056495  -0.76744449  -0.7651277   -0.75309238  -0.74708791
  -0.73668956  -0.72811768  -0.72354555  -0.72291489  -0.71991511
  -0.71574613  -0.70398754  -0.69877996  -0.69716369  -0.68234802
  -0.67815742  -0.66908845  -0.66610825  -0.65281674  -0.63329817
  -0.62966379  -0.62691405  -0.62141082  -0.59824634  -0.59324286
  -0.58513674  -0.57762798  -0.57298119  -0.56507616  -0.55492233
  -0.5501509   -0.54130132  -0.53586608  -0.53198334  -0.53078209
  -0.52563393  -0.52131119  -0.5181931   -0.51371982  -0.50817988
  -0.50741606  -0.50462632  -0.50188511  -0.49818917  -0.49178016
  -0.49069977  -0.48440616  -0.47614031  -0.47386442  -0.47003561
  -0.46453878  -0.46307142  -0.46122613  -0.44731099  -0.44181799
   0.15523783   0.20036717   0.21143984   0.23957526   0.24518051
   0.25192405   0.25627645   0.26893509   0.28412619   0.29070439
   0.29638265   0.30637617   0.3125787    0.31535528   0.3171168
   0.32735297   0.33548262   0.34281645   0.35111379   0.35485078
   0.36464986   0.370287     0.37556494   0.38121269   0.38582039
   0.38952834   0.399318     0.40881981   0.41574111   0.42219962
   0.43082131   0.43447092   0.44653565   0.45135583   0.46684039
   0.49836281   0.50519755   0.53250573   0.93926867   0.94869385
   0.96183923   0.96821325   0.97504149   0.98851693   0.98994979
   0.99331117   1.00859103   1.01268239   1.02759175   1.03878685
   1.0443159    1.04843926   1.0581771    1.06236708   1.06288252
   1.0654394    1.07093038   1.07985516   1.08939157   1.09783138
   1.10045271   1.10463389   1.10632731   1.11817628   1.11920537
   1.12490925   1.12882667   1.13272285   1.13863957   1.14435855
   1.14657932   1.15843927   1.15962552   1.16480626   1.16754793
   1.17546966   1.17738412   1.17984807   1.18772622   1.19223696
   1.19611039   1.20980797   1.21197239   1.22514274   1.23202799
   1.23792323   1.24461978   1.25229245   1.25928465   1.27056093
   1.28175265   1.28954885   1.3014834    1.30735228   1.31389693
   1.31589289   1.32970618   1.34386649   1.34429364   1.35129531
   1.35226824   1.35763889   1.36505861   1.37612292   1.38102974
   1.3900412    1.39349329   1.40132957   1.4034249    1.42027713
   1.42236893   1.42888466   1.43496378   1.44086921   1.44793357
   1.45963219   1.46451263   1.47275774   1.48008254   1.49146502
   1.49800177   1.50571232   1.50940293   1.52318956   1.52814049
   1.53151987   1.53819726   1.54455194   1.55132376   1.56909713
   1.57041895   1.58352799   1.58961969   1.59526996   1.60560817
   1.62273154   1.63644154   1.64115972   1.66317154   1.67298083
   1.68349255   1.69314343   1.71745528   1.73662169   1.7435271
   1.78102478   1.79222322   1.80436683   1.86491881   1.87247159
   1.93849265   1.96600527   1.97129672   1.98822646   1.99792802
   2.00651757   2.00740205   2.0136312    2.01438177   2.01651834
   2.03172695   2.03313534   2.03470453   2.03663691   2.0404042
   2.04310596   2.0480591    2.05058658   2.05702556   2.06000578
   2.06304593   2.06859721   2.07120404   2.0755998    2.08337655
   2.0905895    2.09255215   2.09583265   2.09624586   2.09757589
   2.10110518   2.10226281   2.11120692   2.11527802   2.11861337
   2.12522833   2.13971649   2.14997409   2.15183028   2.15587107
   2.16543967   2.17098479   2.17397748   2.17533035   2.17657232
   2.18103204   2.18717259   2.19427355   2.20550726   2.2087507
   2.20968669   2.21998337   2.22331185   2.26764502   2.31201514
   2.32246344   2.3761264    2.47958261   2.55373241   2.55791897
   2.6306202    2.63400974   2.64227867   2.6575934    2.66944663
   2.6784655    2.6879625    2.69026776   2.69762064   2.70353048
   2.70986046   2.72453339   2.75300825   2.76335032   2.77790391
   2.78927652   2.81678799   2.86554      2.93428657   2.94431694
   2.95802696   2.96112256   2.96986928   2.98641331   2.99567795
   2.99710273   3.01165824   3.02689568   3.0322173    3.04018023
   3.04318477   3.04820196   3.05929718   3.08320829   3.08680989
   3.09902636   3.11505813   4.04500563   4.05106853   4.09840988
   4.14168981   4.14705305   4.17956712   4.19889813   4.2090781
   4.21700457   4.22441679   4.24309008   4.24835012   4.27442394
   4.29103151   4.30577978   4.42813512   4.45555299   4.50757633
   4.60477457]
    CPU time for vj and vk     30.39 sec, wall time      1.54 sec
E1 = -6179.2318559948035  E_coul = 2639.376084274602
cycle= 8 E= -1444.1886544422  delta_E= -1.02e-07  |g|= 0.000109  |ddm|= 0.000878
    CPU time for cycle= 8     31.22 sec, wall time      1.58 sec
diis-norm(errvec)=0.000197715
diis-c [-1.60446528e-08 -7.52075279e-05 -2.28405161e-04  7.39481617e-05
  1.04920878e-02 -2.16568822e-02 -7.10456043e-02  1.20797162e-01
  9.61642901e-01]
  HOMO = -0.441819762097048  LUMO = 0.155241151950541
  mo_energy =
[-20.62037881 -20.58531848 -20.57922719 -20.57631682 -20.57497336
 -20.5723353  -20.559145   -20.55770318 -20.55752329 -20.55376752
 -20.55118772 -20.53847462 -20.53466804 -20.52666225 -20.52504176
 -20.52455107 -20.52231265 -20.51604259 -20.50481127  -1.42269274
  -1.39624727  -1.38947729  -1.37608723  -1.37190169  -1.36251067
  -1.35870186  -1.35361867  -1.34916082  -1.34788775  -1.33592912
  -1.33198018  -1.3256697   -1.32284636  -1.31002537  -1.30762703
  -1.30493019  -1.30180272  -1.28637672  -0.81032857  -0.78257921
  -0.77055702  -0.76743812  -0.76512008  -0.7530824   -0.74708414
  -0.73668084  -0.72811736  -0.72353656  -0.72291143  -0.71991195
  -0.71573592  -0.70398327  -0.69877808  -0.69715758  -0.68233765
  -0.67815199  -0.66908397  -0.66610334  -0.65281337  -0.63329689
  -0.62966034  -0.62690901  -0.62140465  -0.59823579  -0.59324154
  -0.5851311   -0.57762221  -0.57297713  -0.56507208  -0.55491699
  -0.55014772  -0.54129894  -0.53586395  -0.53197792  -0.53078059
  -0.52563162  -0.52131062  -0.51819423  -0.51372033  -0.50816954
  -0.50741497  -0.50461742  -0.50188757  -0.49818881  -0.49177648
  -0.49070142  -0.48440438  -0.47613705  -0.47386473  -0.47003555
  -0.46452998  -0.46307606  -0.46122868  -0.44730967  -0.44181976
   0.15524115   0.20036881   0.21144224   0.23957706   0.24518201
   0.25192513   0.25627793   0.26893559   0.28412702   0.29070737
   0.29638428   0.30637698   0.31257977   0.31535571   0.31711768
   0.32735429   0.33548159   0.34281868   0.35111511   0.35485419
   0.36465402   0.37029083   0.37556921   0.38121691   0.3858258
   0.38953258   0.39932268   0.40882413   0.41574575   0.42220356
   0.43082513   0.43447448   0.44653951   0.45136157   0.46684485
   0.498371     0.50520591   0.53251258   0.93927004   0.94869968
   0.96184255   0.96821774   0.97504664   0.98852005   0.9899531
   0.99331469   1.00859471   1.01268408   1.02759422   1.03879082
   1.04431855   1.04844108   1.05818035   1.06237014   1.06288617
   1.06544149   1.07093241   1.07985744   1.08939574   1.09783399
   1.1004553    1.10463511   1.10632984   1.11817762   1.11920675
   1.12491044   1.12882709   1.13272784   1.13864326   1.14436139
   1.14658151   1.15844256   1.15962686   1.16481108   1.16755178
   1.17547183   1.17738423   1.17985122   1.18772888   1.19224099
   1.19611283   1.20980849   1.21197445   1.22514489   1.23203054
   1.2379243    1.2446223    1.25229762   1.25928728   1.27056377
   1.28175583   1.28955096   1.30148748   1.30735613   1.31390009
   1.31589513   1.32970657   1.34386988   1.34429688   1.35130065
   1.35227413   1.35764155   1.36506278   1.37612654   1.38103435
   1.39004481   1.39349437   1.40133316   1.40342921   1.42028109
   1.42237343   1.42888755   1.43496646   1.44087315   1.44793769
   1.45963403   1.46451707   1.47275913   1.48008503   1.49146938
   1.49800554   1.50571638   1.50940868   1.52319455   1.52814242
   1.53152335   1.5381982    1.54455724   1.55132551   1.56910192
   1.57042522   1.58353311   1.58962221   1.59527343   1.6056131
   1.62273462   1.63644295   1.64116546   1.66317773   1.67298383
   1.68349595   1.69314723   1.71745908   1.73662568   1.74353132
   1.7810279    1.79222778   1.80437183   1.86492311   1.87247541
   1.9384973    1.9660085    1.97129999   1.98823187   1.99793169
   2.00652187   2.00740674   2.01363633   2.01438649   2.01652386
   2.03173079   2.03314009   2.03470954   2.03664113   2.04040731
   2.04310983   2.0480663    2.05058937   2.05703097   2.06000997
   2.06304714   2.06860036   2.07120614   2.07560007   2.08337964
   2.09059265   2.09255844   2.09583392   2.0962477    2.09757807
   2.10110788   2.10227029   2.11121169   2.1152793    2.11861631
   2.12523294   2.1397199    2.14997788   2.15183625   2.15587495
   2.16544153   2.17098779   2.17398258   2.17533491   2.1765739
   2.18103464   2.18717505   2.19427929   2.20550961   2.20875289
   2.20969498   2.21998658   2.22331252   2.26764461   2.31201921
   2.32247024   2.37613201   2.47958718   2.55373498   2.55792306
   2.63062501   2.63401117   2.64228402   2.657597     2.66944974
   2.67846765   2.68796498   2.69027181   2.69762278   2.70353774
   2.70986684   2.72454094   2.75301202   2.76335519   2.77790831
   2.78927901   2.8167913    2.86554218   2.93429306   2.94431863
   2.95803082   2.96112928   2.96987148   2.98641545   2.99568438
   2.99711069   3.01166421   3.02689695   3.03221949   3.04018371
   3.04319112   3.04820461   3.05929973   3.08321395   3.08681573
   3.09902963   3.11506053   4.04501549   4.05107216   4.09842019
   4.14169233   4.14705303   4.17956784   4.19891069   4.20908073
   4.21700834   4.22442061   4.2430947    4.24835321   4.27442256
   4.29103195   4.30577773   4.42813438   4.45555992   4.50758131
   4.60476972]
    CPU time for vj and vk     27.35 sec, wall time      1.38 sec
E1 = -6179.2316021455235  E_coul = 2639.3758304207126
cycle= 9 E= -1444.18865444681  delta_E= -4.61e-09  |g|= 3.28e-05  |ddm|= 0.000179
    CPU time for cycle= 9     28.25 sec, wall time      1.43 sec
diis-norm(errvec)=5.81497e-05
diis-c [-2.09989154e-09  8.87950212e-01 -2.44545892e-05 -7.20345230e-05
  9.61408811e-04  5.39066165e-04 -5.59756329e-03 -4.01667273e-02
  1.56410093e-01]
  HOMO = -0.441818839402003  LUMO = 0.155241562046982
  mo_energy =
[-20.62037627 -20.58531829 -20.57922778 -20.57631013 -20.57497249
 -20.57232774 -20.55915026 -20.5577175  -20.55753842 -20.55376781
 -20.55117605 -20.5384679  -20.53467644 -20.52664907 -20.52504022
 -20.52456474 -20.52230531 -20.51604226 -20.50480985  -1.42269186
  -1.39624601  -1.38947716  -1.37608612  -1.37190029  -1.36250987
  -1.35870486  -1.35361749  -1.34916192  -1.34788686  -1.33593222
  -1.33197841  -1.32566793  -1.32284469  -1.31002331  -1.30762503
  -1.30493491  -1.30180176  -1.28637554  -0.81032793  -0.78257819
  -0.77055661  -0.76743728  -0.76511982  -0.75308452  -0.74708215
  -0.73668013  -0.72811498  -0.72353751  -0.72290972  -0.71991023
  -0.71573746  -0.70398208  -0.69877614  -0.69715662  -0.68234104
  -0.67815119  -0.66908268  -0.666102    -0.65281192  -0.63329506
  -0.62965865  -0.6269083   -0.62140358  -0.59823985  -0.59323939
  -0.58513056  -0.57762129  -0.57297589  -0.56507105  -0.55491715
  -0.55014753  -0.54129719  -0.53586265  -0.53197806  -0.53077965
  -0.52563043  -0.52130965  -0.51819281  -0.51371858  -0.50817305
  -0.50741406  -0.50462147  -0.50188601  -0.49818785  -0.49177695
  -0.49070003  -0.48440463  -0.47613543  -0.47386381  -0.47003441
  -0.46453448  -0.46307338  -0.46122645  -0.4473092   -0.44181884
   0.15524156   0.20036937   0.21144127   0.23957645   0.24518249
   0.25192549   0.25627834   0.26893594   0.28412702   0.29070758
   0.29638366   0.30637702   0.31257997   0.3153558    0.31711791
   0.32735481   0.33548193   0.34281911   0.35111579   0.3548534
   0.36465465   0.37029093   0.37556793   0.38121754   0.38582639
   0.38953344   0.3993223    0.40882448   0.41574663   0.42220448
   0.43082608   0.43447528   0.44654048   0.45136246   0.46684559
   0.49837123   0.50520731   0.53251452   0.93927143   0.94869998
   0.96184304   0.96821867   0.97504585   0.98852077   0.98995309
   0.9933156    1.00859501   1.01268514   1.02759519   1.03879117
   1.04431909   1.04844187   1.0581812    1.0623699    1.062886
   1.06544192   1.07093312   1.07985831   1.08939417   1.0978332
   1.10045492   1.10463592   1.10632962   1.11817781   1.11920687
   1.12491099   1.12882844   1.13272648   1.13864257   1.14436153
   1.14658194   1.15844275   1.15962804   1.16480963   1.16755169
   1.17547223   1.1773854    1.17985132   1.1877288    1.19224027
   1.19611377   1.20980893   1.21197537   1.22514513   1.23203016
   1.237925     1.24462275   1.25229638   1.25928742   1.27056481
   1.28175628   1.28955114   1.30148762   1.30735619   1.31389979
   1.31589567   1.32970758   1.34386972   1.34429731   1.3513
   1.35227283   1.35764168   1.36506178   1.37612634   1.38103537
   1.390045     1.39349563   1.40133384   1.40342943   1.42028191
   1.42237305   1.42888837   1.4349668    1.44087376   1.44793857
   1.45963508   1.46451701   1.47276021   1.48008611   1.49146902
   1.49800577   1.50571648   1.50940861   1.52319536   1.52814323
   1.53152371   1.53819943   1.54455748   1.55132638   1.56910187
   1.57042457   1.58353228   1.58962286   1.59527385   1.60561349
   1.6227354    1.63644388   1.64116632   1.66317563   1.67298521
   1.68349694   1.69314827   1.71746024   1.73662689   1.74353235
   1.78102889   1.79222907   1.80437249   1.8649236    1.87247603
   1.9384984    1.96600963   1.97130089   1.98823187   1.99793257
   2.00652273   2.00740684   2.0136366    2.01438702   2.01652308
   2.03173115   2.03314005   2.03470892   2.03664072   2.04040813
   2.04310989   2.04806476   2.05059014   2.05703041   2.06001015
   2.06304878   2.06860054   2.07120742   2.07560141   2.08338048
   2.09059341   2.09255699   2.0958349    2.09624886   2.09757924
   2.10110842   2.1022676    2.11121232   2.11528047   2.1186168
   2.12523267   2.13972115   2.14997843   2.15183618   2.15587541
   2.16544284   2.17098861   2.17398268   2.17533565   2.17657542
   2.18103565   2.18717637   2.19427843   2.20551033   2.20875423
   2.20969272   2.21998821   2.22331417   2.26764661   2.31202008
   2.32247092   2.37613235   2.47958817   2.55373594   2.55792435
   2.63062443   2.63401249   2.64228242   2.65759798   2.66945075
   2.67846866   2.68796661   2.69027259   2.69762413   2.70353651
   2.70986661   2.72453907   2.75301265   2.76335571   2.77790887
   2.78928077   2.81679236   2.86554368   2.93429331   2.94431977
   2.95803193   2.96112661   2.96987315   2.98641679   2.99568466
   2.99710933   3.01166315   3.02689871   3.03222094   3.04018349
   3.04318988   3.0482055    3.059301     3.08321462   3.08681628
   3.09903117   3.11506224   4.04501167   4.05107188   4.0984164
   4.14169292   4.14705383   4.17956961   4.19890729   4.2090818
   4.21700892   4.22442123   4.24309527   4.24835452   4.27442465
   4.29103329   4.30577979   4.42813574   4.45555908   4.5075814
   4.60477301]
    CPU time for vj and vk     24.37 sec, wall time      1.23 sec
E1 = -6179.231613329134  E_coul = 2639.3758416039805
cycle= 10 E= -1444.18865444715  delta_E= -3.43e-10  |g|= 1.05e-05  |ddm|= 4.13e-05
    CPU time for cycle= 10     25.14 sec, wall time      1.27 sec
  HOMO = -0.441819019253552  LUMO = 0.155241270811465
  mo_energy =
[-20.62037776 -20.58531956 -20.57922818 -20.57631309 -20.57497344
 -20.57233093 -20.55914948 -20.55771434 -20.5575347  -20.55376842
 -20.55118008 -20.53847059 -20.53467473 -20.52665382 -20.52504147
 -20.52456134 -20.52230846 -20.51604307 -20.50481035  -1.42269245
  -1.39624676  -1.38947755  -1.37608682  -1.37190103  -1.36251047
  -1.35870424  -1.35361819  -1.34916187  -1.34788741  -1.33593159
  -1.33197924  -1.32566878  -1.32284549  -1.31002428  -1.30762589
  -1.30493367  -1.30180221  -1.28637583  -0.8103286   -0.78257882
  -0.77055709  -0.7674378   -0.76512019  -0.75308416  -0.7470831
  -0.73668049  -0.72811593  -0.7235376   -0.72291048  -0.71991104
  -0.71573734  -0.70398275  -0.69877705  -0.69715714  -0.68234031
  -0.67815159  -0.66908313  -0.66610235  -0.65281246  -0.63329572
  -0.62965919  -0.6269086   -0.62140398  -0.59823864  -0.59323999
  -0.58513083  -0.57762159  -0.57297632  -0.56507137  -0.5549173
  -0.55014779  -0.5412977   -0.5358633   -0.53197835  -0.53078012
  -0.52563095  -0.52131034  -0.51819356  -0.51371939  -0.508172
  -0.50741447  -0.50462027  -0.50188675  -0.49818844  -0.49177709
  -0.49070083  -0.48440483  -0.47613576  -0.47386429  -0.47003486
  -0.46453315  -0.46307451  -0.46122719  -0.44730958  -0.44181902
   0.15524127   0.20036903   0.21144143   0.23957646   0.24518229
   0.25192533   0.25627824   0.26893568   0.28412695   0.29070742
   0.29638374   0.3063769    0.31257984   0.31535571   0.31711778
   0.32735459   0.33548176   0.34281892   0.35111566   0.35485349
   0.36465424   0.37029073   0.37556821   0.3812172    0.38582602
   0.38953313   0.39932227   0.40882423   0.41574618   0.42220415
   0.43082566   0.4344749    0.44654004   0.45136204   0.46684518
   0.49837098   0.50520658   0.53251359   0.93927074   0.94869971
   0.96184272   0.96821824   0.97504592   0.98852038   0.98995295
   0.99331527   1.0085947    1.01268461   1.02759474   1.03879091
   1.04431877   1.04844145   1.05818082   1.06236991   1.06288595
   1.06544164   1.07093281   1.07985795   1.08939442   1.09783334
   1.10045486   1.10463548   1.10632958   1.11817757   1.11920663
   1.12491073   1.12882798   1.13272674   1.13864265   1.1443614
   1.14658163   1.15844248   1.1596276    1.16480993   1.16755155
   1.17547197   1.17738489   1.17985115   1.18772872   1.19224037
   1.19611344   1.20980851   1.21197495   1.2251448    1.23203007
   1.23792458   1.24462258   1.25229657   1.2592872    1.27056426
   1.28175595   1.28955083   1.30148742   1.30735598   1.31389964
   1.31589526   1.32970709   1.34386964   1.34429699   1.35130005
   1.35227296   1.35764149   1.36506184   1.37612613   1.38103487
   1.39004474   1.39349508   1.40133343   1.40342914   1.42028147
   1.42237295   1.42888786   1.4349665    1.4408733    1.44793796
   1.45963464   1.46451677   1.47275972   1.48008558   1.49146894
   1.49800552   1.50571626   1.50940843   1.52319478   1.52814283
   1.53152344   1.5381989    1.54455723   1.55132598   1.56910169
   1.57042453   1.58353234   1.58962247   1.59527354   1.60561319
   1.62273501   1.63644352   1.64116584   1.6631761    1.67298456
   1.68349661   1.69314779   1.71745958   1.73662634   1.74353184
   1.78102845   1.79222851   1.80437205   1.86492319   1.87247558
   1.93849781   1.96600903   1.9713004    1.98823161   1.99793206
   2.00652221   2.00740658   2.01363629   2.01438664   2.01652312
   2.03173087   2.03313989   2.03470891   2.03664065   2.04040781
   2.04310966   2.04806503   2.05058972   2.05703038   2.06000987
   2.06304803   2.0686003    2.07120694   2.07560081   2.08338007
   2.09059297   2.09255725   2.09583464   2.09624833   2.09757876
   2.10110807   2.10226828   2.1112119    2.11527992   2.11861666
   2.12523257   2.13972053   2.14997808   2.15183606   2.15587508
   2.16544225   2.17098828   2.17398248   2.1753353    2.17657473
   2.1810351    2.18717571   2.19427851   2.2055099    2.20875376
   2.20969321   2.21998756   2.22331345   2.2676458    2.31201957
   2.32247042   2.37613199   2.47958771   2.5537354    2.55792376
   2.63062444   2.63401195   2.64228273   2.65759764   2.66945025
   2.67846819   2.68796592   2.69027222   2.69762365   2.70353673
   2.70986653   2.72453949   2.75301223   2.76335532   2.77790851
   2.78927997   2.81679203   2.86554304   2.934293     2.94431926
   2.95803129   2.96112725   2.96987242   2.98641619   2.99568456
   2.99710955   3.01166329   3.02689804   3.0322204    3.04018337
   3.04319008   3.04820528   3.05930041   3.08321423   3.08681596
   3.09903044   3.11506153   4.04501255   4.05107163   4.09841726
   4.14169242   4.14705367   4.17956876   4.19890795   4.20908122
   4.2170084    4.22442066   4.24309472   4.24835383   4.2744237
   4.29103262   4.30577887   4.42813505   4.45555902   4.50758112
   4.60477173]
    CPU time for vj and vk     22.39 sec, wall time      1.13 sec
E1 = -6179.231655220596  E_coul = 2639.3758834953996
Extra cycle  E= -1444.18865444719  delta_E= -4.23e-11  |g|= 5.16e-06  |ddm|= 1.56e-05
    CPU time for scf_cycle    443.50 sec, wall time     22.48 sec
    CPU time for SCF    443.72 sec, wall time     22.57 sec
converged SCF energy = -1444.18865444719
