#INFO: **** input file is /home/wsr/dftpart/test_hfeda/alkane/test_alk.py ****
from dftpart import scfeda

mollist = [
#'c12h26'
#'c2h6',
'c4h10-i','c6h14-ia','c6h14-ib','c6h14-ic','c6h14-t'
#'c8h18','c12h26'
]
basislist = [
#'6-31g',
'6-31gss','6-311gss'#,'6-311+gss',
#'cc-pvdz'
,'cc-pvtz',
#'def2-svp','def2-tzvp'
]
for mol in mollist:
    for basis in basislist:
        test1 = scfeda.EDA()
        test1.gjf = './'+mol+'.gjf'
        test1.method = ['m062x',basis]
        test1.output = mol.upper()+'_'+basis
        #test1.build()
        test1.kernel()
        

#INFO: ******************** input file end ********************


System: uname_result(system='Linux', node='lw06', release='3.10.0-957.el7.x86_64', version='#1 SMP Thu Nov 8 23:39:32 UTC 2018', machine='x86_64', processor='x86_64')  Threads 48
Python 3.7.3 (default, Mar 27 2019, 22:11:17) 
[GCC 7.3.0]
numpy 1.16.2  scipy 1.2.1
Date: Fri Jul 12 14:55:26 2019
PySCF version 1.6.2
PySCF path  /home/wsr/pyscf

[CONFIG] conf_file None
[INPUT] verbose = 4
[INPUT] num. atoms = 20
[INPUT] num. electrons = 50
[INPUT] charge = 0
[INPUT] spin (= nelec alpha-beta = 2S) = 0
[INPUT] symmetry False subgroup None
[INPUT] Mole.unit = angstrom
[INPUT]  1 C     -6.448111350000   0.175808720000  -0.084410400000 AA  -12.185164472199   0.332230331110  -0.159512538065 Bohr
[INPUT]  2 H     -6.091456930000  -0.833001280000  -0.084410400000 AA  -11.511185297284  -1.574144280612  -0.159512538065 Bohr
[INPUT]  3 H     -6.091438510000   0.680206910000   0.789241100000 AA  -11.511150488529   1.285404767937   1.491449525250 Bohr
[INPUT]  4 H     -7.518111350000   0.175821900000  -0.084410400000 AA  -14.207171425484   0.332255237701  -0.159512538065 Bohr
[INPUT]  5 C     -5.934769130000   0.901764990000  -1.341815370000 AA  -11.215088268223   1.704088859821  -2.535663559032 Bohr
[INPUT]  6 H     -6.289843770000   0.396238200000  -2.215465570000 AA  -11.886082091602   0.748781678091  -4.186623165703 Bohr
[INPUT]  7 C     -4.394771680000   0.904184460000  -1.340408100000 AA   -8.304914855195   1.708660995488  -2.533004204149 Bohr
[INPUT]  8 H     -4.036521940000  -0.104059210000  -1.339052400000 AA   -7.627920962398  -0.196643407639  -2.530442302442 Bohr
[INPUT]  9 C     -3.881428470000   1.629671300000  -2.598083570000 AA   -7.334836780390   3.079632430064  -4.909666396032 Bohr
[INPUT] 10 H     -4.239746200000   2.637890750000  -2.599479960000 AA   -8.011959155665   4.984891064024  -4.912305190695 Bohr
[INPUT] 11 H     -2.811430390000   1.631423700000  -2.597064700000 AA   -5.312833455379   3.082943986125  -4.907741010776 Bohr
[INPUT] 12 H     -4.236435470000   1.123771240000  -3.471545170000 AA   -8.005702782693   2.123619870263  -6.560269600357 Bohr
[INPUT] 13 C     -6.450382620000   2.352882060000  -1.343224040000 AA  -12.189456550454   4.446302696802  -2.538325559532 Bohr
[INPUT] 14 H     -5.839164520000   2.949199710000  -0.698462300000 AA  -11.034421739077   5.573179738547  -1.319902455334 Bohr
[INPUT] 15 H     -6.408492350000   2.745313780000  -2.337780500000 AA  -12.110295412870   5.187891170194  -4.417764884349 Bohr
[INPUT] 16 H     -7.461741800000   2.372375930000  -0.994408050000 AA  -14.100648414219   4.483140772210  -1.879158870563 Bohr
[INPUT] 17 C     -3.883729830000   1.632234150000  -0.083276490000 AA   -7.339185720504   3.084475514662  -0.157369758715 Bohr
[INPUT] 18 H     -4.266057420000   1.146738220000   0.790233270000 AA   -8.061680155469   2.167021172371   1.493324454819 Bohr
[INPUT] 19 H     -2.814172110000   1.606585840000  -0.066292860000 AA   -5.318014555289   3.036007233204  -0.125275349414 Bohr
[INPUT] 20 H     -4.215885610000   2.649230930000  -0.100308710000 AA   -7.966869175395   5.006320898427  -0.189555989808 Bohr

nuclear repulsion = 268.798258648687
number of shells = 104
number of NR pGTOs = 298
number of NR cGTOs = 192
basis = 6-311gss
ecp = {}
CPU time:     21681.60


******** <class 'pyscf.dft.rks.RKS'> ********
method = RKS-RHF
initial guess = minao
damping factor = 0
level shift factor = 0
DIIS = <class 'pyscf.scf.diis.CDIIS'>
DIIS start cycle = 1
DIIS space = 8
SCF tol = 1e-09
SCF gradient tol = None
max. SCF cycles = 50
direct_scf = True
direct_scf_tol = 1e-13
chkfile to save SCF result = /home/wsr/dftpart/test_hfeda/alkane/tmpmr8khaxt
max_memory 4000 MB (current use 862 MB)
XC functionals = m062x
small_rho_cutoff = 1e-07
radial grids: 
    Treutler-Ahlrichs (JCP 102, 346 (M4)) radial grids
    
becke partition: Becke, JCP, 88, 2547 (1988)
pruning grids: <function nwchem_prune at 0x2b1fbb370378>
grids dens level: 3
symmetrized grids: False
atomic radii adjust function: <function treutler_atomic_radii_adjust at 0x2b1fbb3702f0>
Set gradient conv threshold to 3.16228e-05
tot grids = 223748
init E= -238.059935492235
  HOMO = -0.398975036449578  LUMO = 0.0130110448216237
cycle= 1 E= -236.876063915187  delta_E= 1.18  |g|= 0.718  |ddm|= 3.06
  HOMO = -0.250048920834288  LUMO = 0.102219693418781
cycle= 2 E= -236.899891343004  delta_E= -0.0238  |g|= 0.623  |ddm|= 0.993
  HOMO = -0.363585084443205  LUMO = 0.0756580834649029
cycle= 3 E= -236.997841414215  delta_E= -0.098  |g|= 0.0491  |ddm|= 0.53
  HOMO = -0.357314116041992  LUMO = 0.0775155446216293
cycle= 4 E= -236.998297789435  delta_E= -0.000456  |g|= 0.0238  |ddm|= 0.0505
  HOMO = -0.358944212853422  LUMO = 0.0778873862399777
cycle= 5 E= -236.998428336615  delta_E= -0.000131  |g|= 0.00427  |ddm|= 0.0204
  HOMO = -0.358593235359467  LUMO = 0.077987043734697
cycle= 6 E= -236.998432565217  delta_E= -4.23e-06  |g|= 0.000621  |ddm|= 0.00412
  HOMO = -0.358669167696157  LUMO = 0.0779576518976895
cycle= 7 E= -236.998432673301  delta_E= -1.08e-07  |g|= 0.00016  |ddm|= 0.000922
  HOMO = -0.358657817889861  LUMO = 0.0779617621650625
cycle= 8 E= -236.998432679583  delta_E= -6.28e-09  |g|= 5.2e-05  |ddm|= 0.000167
  HOMO = -0.358660793540704  LUMO = 0.0779627108431453
cycle= 9 E= -236.998432680247  delta_E= -6.64e-10  |g|= 7.36e-06  |ddm|= 4.27e-05
  HOMO = -0.358659292049162  LUMO = 0.0779630453311175
Extra cycle  E= -236.998432680256  delta_E= -8.7e-12  |g|= 5.8e-06  |ddm|= 1.09e-05
converged SCF energy = -236.998432680256
tot grids = 223748
