#INFO: **** input file is /home/wsr/dftpart/test_hfeda/test_new.py ****
from dftpart import scfeda

ok = ['FAIL','OK']
mollist = [
#'c12h26',
'c2h6',
'c4h10','c6h14',
'c8h18','c12h26',
'c10h22'
]
basislist = [
#'6-31g',
'6-31gss','6-311gss','6-311+gss',
#"6311g(2df,2pd)"
'cc-pvdz','cc-pvtz',
'def2-svp','def2-tzvp'
]
with open("CH3_new.txt",'a') as f:
    for basis in basislist:
        for mol in mollist:
            test1 = scfeda.EDA()
            test1.gjf = './'+mol+'.xyz'
            test1.method = ['m062x',basis]
            test1.output = mol.upper()+'_'+basis+'_new'
            #test1.build()
            atme, tote, conv = test1.kernel()
            CH3E = atme[:4].sum()
            f.write("%s %.10f  %s\n" % (test1.output,CH3E,ok[conv]))
#INFO: ******************** input file end ********************


System: uname_result(system='Linux', node='lw06', release='3.10.0-957.el7.x86_64', version='#1 SMP Thu Nov 8 23:39:32 UTC 2018', machine='x86_64', processor='x86_64')  Threads 48
Python 3.7.3 (default, Mar 27 2019, 22:11:17) 
[GCC 7.3.0]
numpy 1.16.2  scipy 1.2.1
Date: Sun Jul 21 06:50:28 2019
PySCF version 1.6.2
PySCF path  /home/wsr/pyscf

[CONFIG] conf_file None
[INPUT] verbose = 4
[INPUT] num. atoms = 38
[INPUT] num. electrons = 98
[INPUT] charge = 0
[INPUT] spin (= nelec alpha-beta = 2S) = 0
[INPUT] symmetry False subgroup None
[INPUT] Mole.unit = angstrom
[INPUT]  1 C     -7.760571710000  -0.690679840000   0.714187300000 AA  -14.665355101948  -1.305195737358   1.349618398643 Bohr
[INPUT]  2 H     -7.403917290000  -1.699489840000   0.714187300000 AA  -13.991375927032  -3.211570349081   1.349618398643 Bohr
[INPUT]  3 H     -7.403898870000  -0.186281650000   1.587838800000 AA  -13.991341118277  -0.352021300532   3.000580461958 Bohr
[INPUT]  4 H     -8.830571710000  -0.690666660000   0.714187300000 AA  -16.687362055232  -1.305170830768   1.349618398643 Bohr
[INPUT]  5 C     -7.247229490000   0.035276430000  -0.543217670000 AA  -13.695278897971   0.066662791352  -1.026532622324 Bohr
[INPUT]  6 H     -7.605480420000   1.043520110000  -0.544196420000 AA  -14.372275039542   1.971967213376  -1.028382191769 Bohr
[INPUT]  7 H     -7.602304130000  -0.470250360000  -1.416867870000 AA  -14.366272721350  -0.888644390378  -2.677492228996 Bohr
[INPUT]  8 C     -5.707232040000   0.037695900000  -0.541810400000 AA  -10.785105484943   0.071234927019  -1.023873267441 Bohr
[INPUT]  9 H     -5.348982300000  -0.970547770000  -0.540454700000 AA  -10.108111592146  -1.834069476107  -1.021311365734 Bohr
[INPUT] 10 H     -5.352157510000   0.543548610000   0.331651170000 AA  -10.114111869434   1.027158008288   0.626729880192 Bohr
[INPUT] 11 C     -5.193888830000   0.763182740000  -1.799485870000 AA   -9.815027410138   1.442206361595  -3.400535459325 Bohr
[INPUT] 12 H     -5.552206560000   1.771402190000  -1.800882260000 AA  -10.492149785414   3.347464995555  -3.403174253988 Bohr
[INPUT] 13 H     -5.548895830000   0.257282680000  -2.672947470000 AA  -10.485893412441   0.486193801794  -5.051138663649 Bohr
[INPUT] 14 C     -3.653891600000   0.765704890000  -1.798019450000 AA   -6.904854412849   1.446972534340  -3.397764327141 Bohr
[INPUT] 15 H     -3.295574730000  -0.242514850000  -1.796613100000 AA   -6.227733662737  -0.458286647640  -3.395106710806 Bohr
[INPUT] 16 H     -3.298884380000   1.271613210000  -0.924562730000 AA   -6.233987994806   2.403000703279  -1.747170344680 Bohr
[INPUT] 17 C     -3.140548370000   1.491179950000  -3.055701710000 AA   -5.934776300249   2.817921707943  -5.774439350265 Bohr
[INPUT] 18 H     -3.498867520000   2.499398880000  -3.057108420000 AA   -6.611901358936   4.723179359245  -5.777097646902 Bohr
[INPUT] 19 H     -3.495553930000   0.985270700000  -3.929158570000 AA   -6.605639581347   1.861891781559  -7.425033597288 Bohr
[INPUT] 20 C     -1.600551140000   1.493704280000  -3.054234050000 AA   -3.024603302960   2.822692000291  -5.771665874821 Bohr
[INPUT] 21 H     -1.242232840000   0.485485050000  -3.052828560000 AA   -2.347479850541   0.917433782071  -5.769009883650 Bohr
[INPUT] 22 H     -1.245545350000   1.999612100000  -2.180776450000 AA   -2.353739587226   3.778719224366  -4.121070229401 Bohr
[INPUT] 23 C     -1.087207910000   2.219181520000  -4.311915050000 AA   -2.054525190361   4.193645293496  -8.148338516890 Bohr
[INPUT] 24 H     -1.445525630000   3.227400960000  -4.313319140000 AA   -2.731647546739   6.098903908558  -8.150991862445 Bohr
[INPUT] 25 H     -1.442214910000   1.713274800000  -5.185372790000 AA   -2.725391192664   3.237620148119  -9.798934426872 Bohr
[INPUT] 26 C      0.452789330000   2.221703650000  -4.310448640000 AA    0.855647825825   4.198411428447  -8.145567403604 Bohr
[INPUT] 27 H      0.811106190000   1.213483910000  -4.309045810000 AA    1.532768557039   2.293152246466  -8.142916439105 Bohr
[INPUT] 28 H      0.807796550000   2.727608920000  -3.436990150000 AA    1.526514243869   5.154433833721  -6.494970076328 Bohr
[INPUT] 29 C      0.966132550000   2.947183100000  -5.568128370000 AA    1.825725919528   5.569368897947 -10.522237645721 Bohr
[INPUT] 30 H      0.607816270000   3.955403060000  -5.569529800000 AA    1.148606284355   7.474628495667 -10.524885964604 Bohr
[INPUT] 31 H      0.611124120000   2.441278930000  -6.441587000000 AA    1.154857214916   4.613348571371 -12.172835237559 Bohr
[INPUT] 32 C      2.506129790000   2.949703030000  -5.566663230000 AA    4.735898935714   5.574130875500 -10.519468932387 Bohr
[INPUT] 33 H      2.864445220000   1.941482770000  -5.565263040000 AA    5.413016964620   3.668870710862 -10.516822956764 Bohr
[INPUT] 34 H      2.861138460000   3.455605760000  -4.693203850000 AA    5.406768093860   6.530148480870  -8.868869923254 Bohr
[INPUT] 35 C      3.019473010000   3.675184680000  -6.824341690000 AA    5.705977029416   6.945092502397 -12.896136774551 Bohr
[INPUT] 36 H      2.661158170000   4.683405150000  -6.825740480000 AA    5.028860115449   8.850353063878 -12.898780104557 Bohr
[INPUT] 37 H      4.089471100000   3.676934010000  -6.823324570000 AA    7.727980373324   6.948398256999 -12.894214696316 Bohr
[INPUT] 38 H      2.664463140000   3.169283040000  -7.697801200000 AA    5.035105603599   5.989076956829 -14.546736029348 Bohr

nuclear repulsion = 678.876069185797
number of shells = 224
number of NR pGTOs = 628
number of NR cGTOs = 420
basis = 6-311+gss
ecp = {}
CPU time:     35816.10


******** <class 'pyscf.dft.rks.RKS'> ********
method = RKS-RHF
initial guess = minao
damping factor = 0
level shift factor = 0
DIIS = <class 'pyscf.scf.diis.CDIIS'>
DIIS start cycle = 1
DIIS space = 8
SCF tol = 1e-09
SCF gradient tol = None
max. SCF cycles = 50
direct_scf = True
direct_scf_tol = 1e-13
chkfile to save SCF result = /home/wsr/dftpart/test_hfeda/tmp1ekdy7i6
max_memory 4000 MB (current use 1106 MB)
XC functionals = m062x
small_rho_cutoff = 1e-07
radial grids: 
    Treutler-Ahlrichs (JCP 102, 346 (M4)) radial grids
    
becke partition: Becke, JCP, 88, 2547 (1988)
pruning grids: <function nwchem_prune at 0x2abf1e1291e0>
grids dens level: 3
symmetrized grids: False
atomic radii adjust function: <function treutler_atomic_radii_adjust at 0x2abf1e129158>
Set gradient conv threshold to 3.16228e-05
tot grids = 427448
init E= -475.062444392835
  HOMO = -0.374443258665538  LUMO = -0.0116105994721282
cycle= 1 E= -472.595864287582  delta_E= 2.47  |g|= 0.948  |ddm|= 10.2
  HOMO = -0.198633248307098  LUMO = 0.0286749358744232
cycle= 2 E= -472.663768982219  delta_E= -0.0679  |g|= 0.76  |ddm|= 10.7
  HOMO = -0.320656817640328  LUMO = 0.0186400220565253
cycle= 3 E= -472.813103041859  delta_E= -0.149  |g|= 0.0297  |ddm|= 3.96
  HOMO = -0.319622633994811  LUMO = 0.0190208897226973
cycle= 4 E= -472.813332752243  delta_E= -0.00023  |g|= 0.017  |ddm|= 0.239
  HOMO = -0.319371766948823  LUMO = 0.019016995781102
cycle= 5 E= -472.813400658595  delta_E= -6.79e-05  |g|= 0.00368  |ddm|= 0.0798
  HOMO = -0.319602919627002  LUMO = 0.0189986779411565
cycle= 6 E= -472.813403986184  delta_E= -3.33e-06  |g|= 0.000569  |ddm|= 0.0305
  HOMO = -0.319590833732877  LUMO = 0.0190013665863537
cycle= 7 E= -472.81340407077  delta_E= -8.46e-08  |g|= 0.000183  |ddm|= 0.0081
  HOMO = -0.319596357861543  LUMO = 0.0190019577010169
cycle= 8 E= -472.813404078626  delta_E= -7.86e-09  |g|= 4.97e-05  |ddm|= 0.00145
  HOMO = -0.319595136476963  LUMO = 0.0190023865959119
cycle= 9 E= -472.813404079233  delta_E= -6.07e-10  |g|= 8.51e-06  |ddm|= 0.00037
  HOMO = -0.31959495970531  LUMO = 0.0190024544633276
Extra cycle  E= -472.813404079235  delta_E= -2.05e-12  |g|= 7.26e-06  |ddm|= 7.44e-05
converged SCF energy = -472.813404079235
tot grids = 427448
