#INFO: **** input file is /home/wsr/dftpart/test_hfeda/test_c2h6.py ****
from dftpart import scfeda

test1 = scfeda.EDA()
test1.gjf = '../1.xyz'
test1.method = ['m062x','sto-3g']
test1.output = 'C2H6'
#test1.build()
test1.kernel()

#INFO: ******************** input file end ********************


System: uname_result(system='Linux', node='lw06', release='3.10.0-957.el7.x86_64', version='#1 SMP Thu Nov 8 23:39:32 UTC 2018', machine='x86_64', processor='x86_64')  Threads 48
Python 3.7.3 (default, Mar 27 2019, 22:11:17) 
[GCC 7.3.0]
numpy 1.16.2  scipy 1.2.1
Date: Wed Jul 10 09:28:38 2019
PySCF version 1.6.2
PySCF path  /home/wsr/pyscf

[CONFIG] conf_file None
[INPUT] verbose = 4
[INPUT] num. atoms = 8
[INPUT] num. electrons = 18
[INPUT] charge = 0
[INPUT] spin (= nelec alpha-beta = 2S) = 0
[INPUT] symmetry False subgroup None
[INPUT] Mole.unit = angstrom
[INPUT]  1 C     -2.749648430000  -1.202428580000  -0.015740650000 AA   -5.196082471540  -2.272260700550  -0.029745517523 Bohr
[INPUT]  2 H     -2.392994000000  -2.211238580000  -0.015740650000 AA   -4.522103277727  -4.178635312272  -0.029745517523 Bohr
[INPUT]  3 H     -2.392975590000  -0.698030390000  -0.889392160000 AA   -4.522068487869  -1.319086263723  -1.680707599735 Bohr
[INPUT]  4 H     -3.819648430000  -1.202415400000  -0.015740650000 AA   -7.218089424825  -2.272235793959  -0.029745517523 Bohr
[INPUT]  5 C     -2.236306210000  -0.476472310000   1.241664320000 AA   -4.226006267564  -0.900402171839   2.346405503444 Bohr
[INPUT]  6 H     -1.166308020000  -0.478179370000   1.242642670000 AA   -2.204002734684  -0.903628047717   2.348254316998 Bohr
[INPUT]  7 H     -2.591362770000   0.532900710000   1.240686930000 AA   -4.896965924694   1.007036393486   2.344558504027 Bohr
[INPUT]  8 H     -2.594575170000  -0.979740300000   2.115314520000 AA   -4.903036480897  -1.851440840199   3.997365110116 Bohr

nuclear repulsion = 42.6703219875163
number of shells = 12
number of NR pGTOs = 48
number of NR cGTOs = 16
basis = sto-3g
ecp = {}
CPU time:         0.49


******** <class 'pyscf.dft.rks.RKS'> ********
method = RKS-RHF
initial guess = minao
damping factor = 0
level shift factor = 0
DIIS = <class 'pyscf.scf.diis.CDIIS'>
DIIS start cycle = 1
DIIS space = 8
SCF tol = 1e-09
SCF gradient tol = None
max. SCF cycles = 50
direct_scf = True
direct_scf_tol = 1e-13
chkfile to save SCF result = /home/wsr/dftpart/test_hfeda/tmpbesgbhv5
max_memory 4000 MB (current use 58 MB)
XC functionals = m062x
small_rho_cutoff = 1e-07
radial grids: 
    Treutler-Ahlrichs (JCP 102, 346 (M4)) radial grids
    
becke partition: Becke, JCP, 88, 2547 (1988)
pruning grids: <function nwchem_prune at 0x2b4d8817b510>
grids dens level: 3
symmetrized grids: False
atomic radii adjust function: <function treutler_atomic_radii_adjust at 0x2b4d8817b488>
Set gradient conv threshold to 3.16228e-05
tot grids = 87948
init E= -78.9895680732517
  HOMO = -0.38432257269246  LUMO = 0.330517029161918
cycle= 1 E= -78.8528103092609  delta_E= 0.137  |g|= 0.182  |ddm|= 2.81
  HOMO = -0.343646067073801  LUMO = 0.529632420136774
cycle= 2 E= -78.8611117459932  delta_E= -0.0083  |g|= 0.0819  |ddm|= 0.359
  HOMO = -0.382425137735323  LUMO = 0.482969043512078
cycle= 3 E= -78.8632535516651  delta_E= -0.00214  |g|= 0.00576  |ddm|= 0.114
  HOMO = -0.381819856873667  LUMO = 0.484997226230197
cycle= 4 E= -78.8632658139367  delta_E= -1.23e-05  |g|= 6.21e-05  |ddm|= 0.0109
  HOMO = -0.381809884899867  LUMO = 0.48502541361795
cycle= 5 E= -78.8632658154086  delta_E= -1.47e-09  |g|= 6.63e-06  |ddm|= 9.85e-05
  HOMO = -0.381810004280695  LUMO = 0.485024032700235
cycle= 6 E= -78.8632658154304  delta_E= -2.18e-11  |g|= 3.87e-07  |ddm|= 1.2e-05
  HOMO = -0.381810064907892  LUMO = 0.485023867810325
Extra cycle  E= -78.8632658154306  delta_E= -1.71e-13  |g|= 9.63e-08  |ddm|= 6.77e-07
converged SCF energy = -78.8632658154306
tot grids = 87948
