#INFO: **** input file is /home/wsr/dftpart/test_hfeda/test_new.py ****
from dftpart import scfeda

ok = ['FAIL','OK']
mollist = [
#'c12h26',
'c2h6',
'c4h10','c6h14',
'c8h18','c12h26',
'c10h22'
]
basislist = [
#'6-31g',
'6-31gss','6-311gss','6-311+gss',
#"6311g(2df,2pd)"
'cc-pvdz','cc-pvtz',
'def2-svp','def2-tzvp'
]
with open("CH3_new.txt",'a') as f:
    for basis in basislist:
        for mol in mollist:
            test1 = scfeda.EDA()
            test1.gjf = './'+mol+'.xyz'
            test1.method = ['m062x',basis]
            test1.output = mol.upper()+'_'+basis+'_new'
            #test1.build()
            atme, tote, conv = test1.kernel()
            CH3E = atme[:4].sum()
            f.write("%s %.10f  %s\n" % (test1.output,CH3E,ok[conv]))
#INFO: ******************** input file end ********************


System: uname_result(system='Linux', node='lw06', release='3.10.0-957.el7.x86_64', version='#1 SMP Thu Nov 8 23:39:32 UTC 2018', machine='x86_64', processor='x86_64')  Threads 48
Python 3.7.3 (default, Mar 27 2019, 22:11:17) 
[GCC 7.3.0]
numpy 1.16.2  scipy 1.2.1
Date: Sun Jul 21 07:16:35 2019
PySCF version 1.6.2
PySCF path  /home/wsr/pyscf

[CONFIG] conf_file None
[INPUT] verbose = 4
[INPUT] num. atoms = 8
[INPUT] num. electrons = 18
[INPUT] charge = 0
[INPUT] spin (= nelec alpha-beta = 2S) = 0
[INPUT] symmetry False subgroup None
[INPUT] Mole.unit = angstrom
[INPUT]  1 C     -2.749648430000  -1.202428580000  -0.015740650000 AA   -5.196082471540  -2.272260700550  -0.029745517523 Bohr
[INPUT]  2 H     -2.392994000000  -2.211238580000  -0.015740650000 AA   -4.522103277727  -4.178635312272  -0.029745517523 Bohr
[INPUT]  3 H     -2.392975590000  -0.698030390000  -0.889392160000 AA   -4.522068487869  -1.319086263723  -1.680707599735 Bohr
[INPUT]  4 H     -3.819648430000  -1.202415400000  -0.015740650000 AA   -7.218089424825  -2.272235793959  -0.029745517523 Bohr
[INPUT]  5 C     -2.236306210000  -0.476472310000   1.241664320000 AA   -4.226006267564  -0.900402171839   2.346405503444 Bohr
[INPUT]  6 H     -1.166308020000  -0.478179370000   1.242642670000 AA   -2.204002734684  -0.903628047717   2.348254316998 Bohr
[INPUT]  7 H     -2.591362770000   0.532900710000   1.240686930000 AA   -4.896965924694   1.007036393486   2.344558504027 Bohr
[INPUT]  8 H     -2.594575170000  -0.979740300000   2.115314520000 AA   -4.903036480897  -1.851440840199   3.997365110116 Bohr

nuclear repulsion = 42.6703219875163
number of shells = 30
number of NR pGTOs = 90
number of NR cGTOs = 58
basis = def2-svp
ecp = {}
CPU time:    110630.03


******** <class 'pyscf.dft.rks.RKS'> ********
method = RKS-RHF
initial guess = minao
damping factor = 0
level shift factor = 0
DIIS = <class 'pyscf.scf.diis.CDIIS'>
DIIS start cycle = 1
DIIS space = 8
SCF tol = 1e-09
SCF gradient tol = None
max. SCF cycles = 50
direct_scf = True
direct_scf_tol = 1e-13
chkfile to save SCF result = /home/wsr/dftpart/test_hfeda/tmp8202kwlg
max_memory 4000 MB (current use 1108 MB)
XC functionals = m062x
small_rho_cutoff = 1e-07
radial grids: 
    Treutler-Ahlrichs (JCP 102, 346 (M4)) radial grids
    
becke partition: Becke, JCP, 88, 2547 (1988)
pruning grids: <function nwchem_prune at 0x2abf1e1291e0>
grids dens level: 3
symmetrized grids: False
atomic radii adjust function: <function treutler_atomic_radii_adjust at 0x2abf1e129158>
Set gradient conv threshold to 3.16228e-05
tot grids = 87948
init E= -79.8165346613091
  HOMO = -0.43487679290407  LUMO = 0.0415662415167036
cycle= 1 E= -79.6690678569963  delta_E= 0.147  |g|= 0.377  |ddm|= 2.44
  HOMO = -0.331692398255382  LUMO = 0.123369732778475
cycle= 2 E= -79.6820865546295  delta_E= -0.013  |g|= 0.303  |ddm|= 0.613
  HOMO = -0.409313865055397  LUMO = 0.106414096480624
cycle= 3 E= -79.7062679011627  delta_E= -0.0242  |g|= 0.01  |ddm|= 0.261
  HOMO = -0.408252159028386  LUMO = 0.107505718858457
cycle= 4 E= -79.7062970504703  delta_E= -2.91e-05  |g|= 0.00229  |ddm|= 0.0109
  HOMO = -0.40784828627411  LUMO = 0.107682482049766
cycle= 5 E= -79.7062984029631  delta_E= -1.35e-06  |g|= 0.00023  |ddm|= 0.00276
  HOMO = -0.4078366302799  LUMO = 0.107674252456028
cycle= 6 E= -79.7062984174877  delta_E= -1.45e-08  |g|= 1.77e-05  |ddm|= 0.000258
  HOMO = -0.407839281021416  LUMO = 0.10767439998965
cycle= 7 E= -79.706298417605  delta_E= -1.17e-10  |g|= 1.23e-06  |ddm|= 2.71e-05
  HOMO = -0.40783902643861  LUMO = 0.107674412734306
Extra cycle  E= -79.7062984176055  delta_E= -4.97e-13  |g|= 8.7e-07  |ddm|= 1.94e-06
converged SCF energy = -79.7062984176055
tot grids = 87948
