#INFO: **** input file is /home/wsr/dftpart/test_hfeda/test2.py ****
from dftpart import scfeda

test1 = scfeda.EDA()
test1.gjf = './c2h6.xyz'
test1.method = ['m062x','cc-pvtz']
test1.output = 'C2H6_cc-pvtz_b'
test1.verbose = 6
#test1.build()
test1.kernel()

#INFO: ******************** input file end ********************


System: uname_result(system='Linux', node='lw06', release='3.10.0-957.el7.x86_64', version='#1 SMP Thu Nov 8 23:39:32 UTC 2018', machine='x86_64', processor='x86_64')  Threads 48
Python 3.7.3 (default, Mar 27 2019, 22:11:17) 
[GCC 7.3.0]
numpy 1.16.2  scipy 1.2.1
Date: Fri Jul 12 08:46:05 2019
PySCF version 1.6.2
PySCF path  /home/wsr/pyscf

[CONFIG] conf_file None
[INPUT] verbose = 6
[INPUT] max_memory = 4000 
[INPUT] num. atoms = 8
[INPUT] num. electrons = 18
[INPUT] charge = 0
[INPUT] spin (= nelec alpha-beta = 2S) = 0
[INPUT] symmetry False subgroup None
[INPUT] Mole.unit = angstrom
[INPUT]  1 C     -2.749648430000  -1.202428580000  -0.015740650000 AA   -5.196082471540  -2.272260700550  -0.029745517523 Bohr
[INPUT]  2 H     -2.392994000000  -2.211238580000  -0.015740650000 AA   -4.522103277727  -4.178635312272  -0.029745517523 Bohr
[INPUT]  3 H     -2.392975590000  -0.698030390000  -0.889392160000 AA   -4.522068487869  -1.319086263723  -1.680707599735 Bohr
[INPUT]  4 H     -3.819648430000  -1.202415400000  -0.015740650000 AA   -7.218089424825  -2.272235793959  -0.029745517523 Bohr
[INPUT]  5 C     -2.236306210000  -0.476472310000   1.241664320000 AA   -4.226006267564  -0.900402171839   2.346405503444 Bohr
[INPUT]  6 H     -1.166308020000  -0.478179370000   1.242642670000 AA   -2.204002734684  -0.903628047717   2.348254316998 Bohr
[INPUT]  7 H     -2.591362770000   0.532900710000   1.240686930000 AA   -4.896965924694   1.007036393486   2.344558504027 Bohr
[INPUT]  8 H     -2.594575170000  -0.979740300000   2.115314520000 AA   -4.903036480897  -1.851440840199   3.997365110116 Bohr
[INPUT] ---------------- BASIS SET ---------------- 
[INPUT] l, kappa, [nprim/nctr], expnt,             c_1 c_2 ...
[INPUT] H
[INPUT] 0    0    [3    /1   ]  33.87             0.006068
                                5.095             0.045308
                                1.159             0.202822
[INPUT] 0    0    [1    /1   ]  0.3258               1
[INPUT] 0    0    [1    /1   ]  0.1027               1
[INPUT] 1    0    [1    /1   ]  1.407                1
[INPUT] 1    0    [1    /1   ]  0.388                1
[INPUT] 2    0    [1    /1   ]  1.057                1
[INPUT] C
[INPUT] 0    0    [8    /2   ]  8236              0.000531 -0.000113
                                1235              0.004108 -0.000878
                                280.8             0.021087 -0.00454
                                79.27             0.081853 -0.018133
                                25.59             0.234817 -0.05576
                                8.997             0.434401 -0.126895
                                3.319             0.346129 -0.170352
                                0.3643            -0.008983 0.598684
[INPUT] 0    0    [1    /1   ]  0.9059               1
[INPUT] 0    0    [1    /1   ]  0.1285               1
[INPUT] 1    0    [3    /1   ]  18.71             0.014031
                                4.133             0.086866
                                1.2               0.290216
[INPUT] 1    0    [1    /1   ]  0.3827               1
[INPUT] 1    0    [1    /1   ]  0.1209               1
[INPUT] 2    0    [1    /1   ]  1.097                1
[INPUT] 2    0    [1    /1   ]  0.318                1
[INPUT] 3    0    [1    /1   ]  0.761                1

nuclear repulsion = 42.6703219875163
number of shells = 54
number of NR pGTOs = 180
number of NR cGTOs = 144
basis = cc-pvtz
ecp = {}
CPU time:         0.51


******** <class 'pyscf.dft.rks.RKS'> ********
method = RKS-RHF
initial guess = minao
damping factor = 0
level shift factor = 0
DIIS = <class 'pyscf.scf.diis.CDIIS'>
DIIS start cycle = 1
DIIS space = 8
SCF tol = 1e-09
SCF gradient tol = None
max. SCF cycles = 50
direct_scf = True
direct_scf_tol = 1e-13
chkfile to save SCF result = /home/wsr/dftpart/test_hfeda/tmptoqb4wez
max_memory 4000 MB (current use 59 MB)
XC functionals = m062x
small_rho_cutoff = 1e-07
radial grids: 
    Treutler-Ahlrichs (JCP 102, 346 (M4)) radial grids
    
becke partition: Becke, JCP, 88, 2547 (1988)
pruning grids: <function nwchem_prune at 0x2b6cc5d1a598>
grids dens level: 3
symmetrized grids: False
atomic radii adjust function: <function treutler_atomic_radii_adjust at 0x2b6cc5d1a510>
Set gradient conv threshold to 3.16228e-05
Nelec from initial guess = 17.99850556664481
cond(S) = 6319.924005930639
atom C rad-grids = 75, ang-grids = [ 50  50  50  50  50  50  50  50  50  50  50  50  50  50  50  50  50  50
  50  50  50  50  50  86  86  86  86  86  86  86  86  86  86 266 266 266
 266 266 266 266 302 302 302 302 302 302 302 302 302 302 302 302 302 302
 302 302 302 302 302 302 266 266 266 266 266 266 266 266 266 266 266 266
 266 266 266]
atom H rad-grids = 50, ang-grids = [ 50  50  50  50  50  50  50  50  50  50  50  50  50  50  86  86  86  86
 266 266 266 266 302 302 302 302 302 302 302 302 302 302 302 302 302 266
 266 266 266 266 266 266 266 266 266 266 266 266 266 266]
tot grids = 87948
    CPU time for setting up grids      0.75 sec, wall time      0.02 sec
nelec by numeric integration = 17.998506846660884
    CPU time for vxc     83.58 sec, wall time      1.80 sec
 Exc = -6.141014641694828
 Exc = -12.843354058538441
E1 = -187.34654387294805  Ecoul = 77.62608435310526  Exc = -12.843354058538441
init E= -79.8934915908649
    CPU time for initialize scf     93.05 sec, wall time      2.03 sec
  HOMO = -0.434277797856275  LUMO = 0.0245771523321418
  mo_energy =
[-10.80847563 -10.80701146  -1.16792715  -0.87864333  -0.56848207
  -0.56847954  -0.47157335  -0.43427942  -0.4342778    0.02457715
   0.06850973   0.09588393   0.09588572   0.11544315   0.11544579
   0.145213     0.24243302   0.26104231   0.26105415   0.26814419
   0.26814907   0.38443669   0.41792134   0.41792986   0.4283601
   0.45431816   0.45432188   0.47287829   0.51605311   0.51606034
   0.60653787   0.63381933   0.77092461   0.77093152   0.84011284
   0.90705103   0.90706189   0.91797474   0.98624426   1.00569959
   1.0057166    1.03536492   1.05681271   1.05682495   1.1129508
   1.15272173   1.15273371   1.21171206   1.26269198   1.26269997
   1.33616326   1.33617842   1.36312958   1.36314673   1.48714986
   1.48717783   1.49528417   1.52750791   2.05471621   2.054726
   2.11057498   2.20947427   2.20949684   2.23941086   2.29429434
   2.41873908   2.42005901   2.42010819   2.61657546   2.61662041
   2.65612516   2.669717     2.74679126   2.74686378   2.75549908
   2.77168673   2.77169301   2.84774767   2.9029814    2.90307144
   2.9595855    2.95964183   2.98147953   2.98154424   3.09742964
   3.09743853   3.17936166   3.22145695   3.32507189   3.32511232
   3.32900134   3.3290549    3.35257504   3.41733693   3.45410484
   3.45415844   3.60010482   3.65025047   3.65028283   3.69105118
   3.69107637   3.70508615   3.77234646   3.77238731   3.85110277
   3.88593074   3.88594325   3.91704332   3.93154805   3.96517397
   3.96521059   4.0052671    4.11566314   4.1856022    4.19484984
   4.19487993   4.19842697   4.19842994   4.38697241   4.64131278
   4.67263668   4.67265642   4.6731604    4.67321195   4.71946336
   4.75616856   4.76094117   4.76095167   5.13438392   5.13443329
   5.14422341   5.1442374    5.15219134   5.16655673   5.23757297
   5.23801936   5.23808133   5.26944156   5.58761709   5.58763326
   5.62587642   5.62590587  13.33403313  13.42862511]
nelec by numeric integration = 18.000003644522458
    CPU time for vxc     70.80 sec, wall time      1.51 sec
 Exc = -6.405463780226061
 Exc = -13.259733358226555
E1 = -191.87107607325797  Ecoul = 82.70711713354035  Exc = -13.259733358226555
cycle= 1 E= -79.7533703104279  delta_E= 0.14  |g|= 0.466  |ddm|= 1.81
    CPU time for cycle= 1     73.19 sec, wall time      1.58 sec
diis-norm(errvec)=1.7297
diis-c [-2.99187689  1.        ]
  HOMO = -0.3185926269041  LUMO = 0.0911297089381326
  mo_energy =
[-10.29866885 -10.29828906  -0.76575404  -0.63718693  -0.44331401
  -0.44329737  -0.34973678  -0.34972043  -0.31859263   0.09112971
   0.132579     0.15643312   0.1564364    0.17965641   0.17966047
   0.27233111   0.32163267   0.33026294   0.33026874   0.34564745
   0.3456604    0.52769058   0.52771955   0.53663522   0.57526064
   0.58468211   0.59200606   0.59201665   0.63067388   0.63069884
   0.70614483   0.71009497   0.86561978   0.86564545   0.91647045
   0.99364462   1.0233526    1.02335672   1.12005239   1.14208389
   1.14214581   1.17193695   1.17196574   1.18079044   1.22257186
   1.24370261   1.24372605   1.29802462   1.37334856   1.37338025
   1.45616902   1.45622261   1.4719626    1.47197985   1.59535254
   1.59538917   1.65069575   1.70136288   2.22741421   2.22744304
   2.38262982   2.39093977   2.39107709   2.43022044   2.48589389
   2.65662603   2.65677792   2.71082557   2.84582449   2.84588
   2.89059289   2.90344768   2.97273555   2.97509231   2.97514287
   3.00114115   3.00138818   3.0613004    3.16069209   3.16093673
   3.1978517    3.19794749   3.22240707   3.2225842    3.29984057
   3.30009279   3.32115173   3.36471853   3.4970587    3.49711216
   3.50539082   3.50572158   3.53617233   3.61494884   3.61525715
   3.615316     3.80261164   3.80282517   3.82114769   3.8523713
   3.85292333   3.85303125   3.92958491   3.9296987    4.0112525
   4.01741844   4.01772037   4.06373428   4.13531003   4.14113975
   4.14133082   4.1471828    4.2707241    4.33877175   4.33887215
   4.37987035   4.41602824   4.41628026   4.58549385   4.88578231
   4.88625064   4.89624376   4.90998728   4.91019305   4.96540665
   4.99806603   5.00002647   5.00018661   5.3759623    5.37654869
   5.40659386   5.40721593   5.42748531   5.44760448   5.5130034
   5.51329715   5.52314778   5.52703618   5.86068676   5.86157738
   5.90216097   5.90289435  13.71385626  13.80122459]
nelec by numeric integration = 18.00000235897488
    CPU time for vxc     70.19 sec, wall time      1.51 sec
 Exc = -6.240934629556637
 Exc = -12.92712137427046
E1 = -188.40906548347226  Ecoul = 78.90035148921172  Exc = -12.92712137427046
cycle= 2 E= -79.7655133810147  delta_E= -0.0121  |g|= 0.392  |ddm|= 0.443
    CPU time for cycle= 2     72.04 sec, wall time      1.55 sec
diis-norm(errvec)=1.50427
diis-c [-0.04708006  0.46450422  0.53549578]
  HOMO = -0.412153392593957  LUMO = 0.0746101295576038
  mo_energy =
[-10.51623462 -10.51588452  -0.85705494  -0.70699761  -0.51263566
  -0.51261949  -0.41928516  -0.41217104  -0.41215339   0.07461013
   0.11906488   0.13913292   0.13913672   0.16087832   0.16088255
   0.23819036   0.2919783    0.30936016   0.30936726   0.31715368
   0.31717016   0.48422234   0.48424379   0.49354465   0.50128102
   0.54223162   0.54223878   0.55060149   0.59075323   0.59077708
   0.67071406   0.6822726    0.83426756   0.83429011   0.89249313
   0.97103097   0.98279219   0.98280595   1.07284578   1.09516181
   1.09521756   1.13027846   1.13030208   1.13791777   1.17078779
   1.21433275   1.21435418   1.27106746   1.3300596    1.33008306
   1.41089276   1.41093622   1.43176056   1.43177541   1.5578721
   1.55790024   1.60151528   1.64683238   2.17632382   2.17634725
   2.26680285   2.33465414   2.33475486   2.36934959   2.42375702
   2.5666148    2.56675666   2.59650792   2.76806658   2.76809411
   2.80962539   2.82032056   2.88500329   2.88506734   2.90739866
   2.93276448   2.93299944   2.98256526   3.0757523    3.07593013
   3.12087704   3.12095369   3.1328874    3.1330498    3.23077849
   3.23099197   3.2871737    3.32933839   3.44259855   3.44264749
   3.4505897    3.45087749   3.48495508   3.55843024   3.56331684
   3.56339605   3.74086196   3.76676358   3.76693804   3.80842105
   3.80849559   3.8200463    3.88201239   3.88210943   3.97122154
   3.98898283   3.98926099   4.02706846   4.06848877   4.08373705
   4.08390397   4.09944446   4.2216363    4.29777557   4.297884
   4.3140158    4.34134155   4.34159008   4.52521827   4.817461
   4.82161888   4.82209167   4.83803291   4.83822657   4.88483028
   4.92628739   4.93151693   4.9316539    5.31277856   5.31342445
   5.3379978    5.33867061   5.34237972   5.38100541   5.43604002
   5.43629759   5.43959794   5.44856953   5.78341762   5.78432986
   5.82463419   5.82537146  13.56714558  13.66039138]
nelec by numeric integration = 18.000002923700514
    CPU time for vxc     68.27 sec, wall time      1.46 sec
 Exc = -6.320799392074536
 Exc = -13.09000297863589
E1 = -190.12398460958613  Ecoul = 80.7402728656519  Exc = -13.09000297863589
cycle= 3 E= -79.8033927350538  delta_E= -0.0379  |g|= 0.015  |ddm|= 0.215
    CPU time for cycle= 3     70.33 sec, wall time      1.50 sec
diis-norm(errvec)=0.0603416
diis-c [-0.00162423 -0.00178518  0.02712297  0.97466221]
  HOMO = -0.410388524354807  LUMO = 0.0757529320048669
  mo_energy =
[-10.51615086 -10.51580159  -0.85308259  -0.70544353  -0.51010972
  -0.51008993  -0.41670199  -0.41040857  -0.41038852   0.07575293
   0.1201467    0.1404057    0.14040987   0.16243103   0.16243551
   0.239807     0.2937035    0.31099265   0.31100134   0.31967187
   0.31968787   0.48667008   0.48669852   0.49688366   0.50212716
   0.54440502   0.54441404   0.55163462   0.59307242   0.59310331
   0.67327863   0.68470671   0.83660222   0.83663199   0.89469134
   0.97312604   0.98542433   0.98543668   1.07472737   1.09767189
   1.09773694   1.13242498   1.13245703   1.1409542    1.17201905
   1.2165425    1.21656707   1.27295896   1.33188827   1.33191795
   1.41358867   1.41364194   1.43372638   1.43373956   1.55977267
   1.55980771   1.60342167   1.64868113   2.18017026   2.18019173
   2.27317572   2.33859058   2.33869106   2.37393694   2.42721218
   2.570629     2.57080336   2.60054303   2.77077129   2.77080314
   2.8124172    2.82442577   2.88871735   2.88879964   2.91120352
   2.93488621   2.93516448   2.98473492   3.07877155   3.07896485
   3.12479028   3.12488208   3.13657732   3.13676071   3.23365225
   3.23387639   3.28898879   3.33115438   3.44563272   3.44569961
   3.45368941   3.45401405   3.48875628   3.5617302    3.56633075
   3.56641043   3.74382544   3.7702854    3.77049304   3.81218198
   3.81223873   3.82246529   3.88472632   3.88480248   3.97291467
   3.99177723   3.99208252   4.02938665   4.07158445   4.08648899
   4.08666596   4.10161252   4.22415289   4.30011777   4.30022885
   4.31726798   4.34479682   4.34506669   4.52774169   4.81899257
   4.82343289   4.8239638    4.84022274   4.84043857   4.88863378
   4.93239559   4.93467483   4.93486138   5.31530455   5.31603691
   5.34056266   5.34133003   5.34809295   5.38202125   5.44173558
   5.44206781   5.44550084   5.45480183   5.78842433   5.78948257
   5.82867155   5.82956155  13.57018352  13.6627145 ]
nelec by numeric integration = 18.000002914321026
    CPU time for vxc     67.09 sec, wall time      1.44 sec
 Exc = -6.320123799351762
 Exc = -13.088947207511328
E1 = -190.09173000772773  Ecoul = 80.70690375599875  Exc = -13.088947207511328
cycle= 4 E= -79.803451471724  delta_E= -5.87e-05  |g|= 0.00329  |ddm|= 0.0114
    CPU time for cycle= 4     69.11 sec, wall time      1.48 sec
diis-norm(errvec)=0.0122016
diis-c [-2.12411328e-05 -1.70580069e-02 -1.16795406e-02  1.47762592e-01
  8.80974956e-01]
  HOMO = -0.409959232526919  LUMO = 0.0758735898827164
  mo_energy =
[-10.51481061 -10.51445954  -0.85276899  -0.70467415  -0.50975843
  -0.5097376   -0.41647771  -0.4099802   -0.40995923   0.07587359
   0.12038775   0.14049598   0.1404998    0.16252999   0.16253423
   0.24031243   0.29400703   0.31122967   0.31123879   0.31985838
   0.31987402   0.48685853   0.48688732   0.49730684   0.50243804
   0.54464435   0.54465328   0.55204878   0.59338822   0.59342021
   0.673497     0.68483313   0.8367778    0.83680858   0.89486129
   0.97333032   0.98558127   0.98559326   1.07519926   1.09783665
   1.09790311   1.13273019   1.13276368   1.14132456   1.17247809
   1.21684012   1.21686468   1.2732904    1.33200575   1.33203565
   1.41384952   1.41390365   1.4339265    1.43393955   1.56011779
   1.56015383   1.6040322    1.6493718    2.18058367   2.18060503
   2.27361051   2.33909117   2.33919285   2.37459473   2.42790515
   2.57115335   2.57133174   2.60101535   2.77130658   2.77133937
   2.81313764   2.82470574   2.88901316   2.88909898   2.91149694
   2.93558992   2.93587272   2.98552698   3.07945818   3.07965346
   3.125361     3.1254538    3.13716532   3.13735351   3.23426435
   3.23449007   3.28963805   3.33180272   3.44604005   3.44610896
   3.45414764   3.45447681   3.48911801   3.56221666   3.56679554
   3.56687448   3.74451222   3.77069291   3.77090577   3.81260077
   3.81265969   3.82301958   3.88520899   3.88528308   3.9735251
   3.99227029   3.99257968   4.02980381   4.07273932   4.08703915
   4.08721663   4.10202015   4.22469106   4.30055515   4.30066755
   4.31782386   4.34527936   4.34555158   4.52856426   4.8194112
   4.82385268   4.82439317   4.84062171   4.84083916   4.88926935
   4.9327223    4.9354014    4.93559174   5.31591123   5.31665453
   5.34117422   5.34195239   5.34904357   5.38227732   5.44233299
   5.44267096   5.44650255   5.45519634   5.78946906   5.79054038
   5.82962463   5.83052841  13.57125846  13.66380256]
nelec by numeric integration = 18.000002907851396
    CPU time for vxc     65.96 sec, wall time      1.41 sec
 Exc = -6.319750605018781
 Exc = -13.088249711134413
E1 = -190.08564933745393  Ecoul = 80.70012286406562  Exc = -13.088249711134413
cycle= 5 E= -79.8034541970064  delta_E= -2.73e-06  |g|= 0.00032  |ddm|= 0.00271
    CPU time for cycle= 5     68.00 sec, wall time      1.46 sec
diis-norm(errvec)=0.00106208
diis-c [-3.83220007e-07  5.25499559e-04  2.28476583e-04 -2.08653718e-02
 -1.25575869e-02  1.03266898e+00]
  HOMO = -0.409976673264476  LUMO = 0.07585858414633
  mo_energy =
[-10.51469006 -10.51433874  -0.85276707  -0.70469221  -0.50976403
  -0.50974305  -0.41649901  -0.40999776  -0.40997667   0.07585858
   0.12037013   0.14048631   0.14048998   0.16252062   0.16252473
   0.24030335   0.29397664   0.31120961   0.31121875   0.3198405
   0.31985606   0.48686224   0.48689077   0.49730301   0.50242361
   0.54462746   0.54463617   0.55203623   0.59335757   0.59338967
   0.6734753    0.68481485   0.83673758   0.83676833   0.89482458
   0.97329163   0.98554601   0.98555804   1.07514004   1.09778891
   1.09785555   1.13269521   1.13272883   1.14129717   1.17245359
   1.21680417   1.21682863   1.27324486   1.33199992   1.33202966
   1.41383055   1.41388458   1.43391246   1.43392558   1.56008857
   1.56012454   1.60400913   1.64934813   2.18051017   2.1805315
   2.27366475   2.33904593   2.33914752   2.37454733   2.42784755
   2.57117285   2.57135109   2.60100796   2.77127498   2.77130748
   2.81314491   2.82467815   2.88902308   2.889109     2.9114622
   2.93554098   2.93582266   2.98549124   3.079424     3.07961887
   3.12535977   3.12545204   3.13721541   3.13740382   3.23423902
   3.2344647    3.28957166   3.33173379   3.44600907   3.44607787
   3.45410196   3.45443075   3.48908072   3.56220874   3.56674013
   3.56681883   3.74452074   3.77065384   3.77086618   3.81256611
   3.8126255    3.82296979   3.88515628   3.8852302    3.97345806
   3.99222492   3.99253402   4.02972189   4.0728297    4.08699295
   4.08717039   4.1019398    4.22462925   4.30050557   4.30061803
   4.31778566   4.34523533   4.34550702   4.52853834   4.81944521
   4.82381614   4.82435582   4.84057548   4.84079138   4.88920019
   4.93261717   4.93529831   4.93548796   5.31578877   5.31653089
   5.34106155   5.34183867   5.34909183   5.38225878   5.44222152
   5.44255892   5.4464992    5.45507504   5.78947304   5.79054207
   5.82962606   5.83052753  13.57131877  13.66381861]
nelec by numeric integration = 18.00000290784897
    CPU time for vxc     67.96 sec, wall time      1.45 sec
 Exc = -6.319734977998752
 Exc = -13.088229836178295
E1 = -190.08511331858634  Ecoul = 80.69956693644444  Exc = -13.088229836178295
cycle= 6 E= -79.8034542308039  delta_E= -3.38e-08  |g|= 4.16e-05  |ddm|= 0.000598
    CPU time for cycle= 6     69.98 sec, wall time      1.49 sec
diis-norm(errvec)=0.000144493
diis-c [-4.34285278e-09  1.25851494e-04  3.71272007e-06 -6.35600091e-04
 -6.15199109e-03 -1.01696801e-01  1.10835483e+00]
  HOMO = -0.409977787017361  LUMO = 0.0758599840808336
  mo_energy =
[-10.51471787 -10.51436655  -0.85277022  -0.70469492  -0.50976411
  -0.50974314  -0.4165066   -0.40999885  -0.40997779   0.07585998
   0.12037046   0.14048797   0.14049163   0.1625226    0.1625267
   0.24030449   0.29397577   0.31121072   0.31121985   0.31984269
   0.31985825   0.48686444   0.48689297   0.49729948   0.50242486
   0.54462873   0.54463742   0.55203735   0.59335892   0.59339102
   0.6734764    0.68481671   0.83673828   0.83676904   0.89482617
   0.9732934    0.9855472    0.98555924   1.07513747   1.09778985
   1.09785651   1.13269528   1.13272892   1.141296     1.17245267
   1.21680591   1.21683037   1.27324609   1.33200011   1.33202988
   1.41383203   1.41388608   1.43391294   1.43392607   1.56009009
   1.56012606   1.60400974   1.649348     2.18051413   2.18053545
   2.2736632    2.33905035   2.33915194   2.3745526    2.42784967
   2.57117364   2.57135199   2.6010013    2.77127295   2.77130544
   2.81314144   2.82467883   2.88901976   2.8891057    2.91146315
   2.9355399    2.93582156   2.98548966   3.07942177   3.07961659
   3.12536262   3.12545487   3.13721346   3.13740193   3.23423821
   3.23446392   3.28957377   3.33173564   3.44600906   3.4460779
   3.45410263   3.45443143   3.48908278   3.56221088   3.56674098
   3.5668197    3.74451848   3.77065828   3.77087064   3.81256913
   3.81262854   3.82297339   3.88515796   3.88523185   3.97345906
   3.99222913   3.99253826   4.02972225   4.0728337    4.08699421
   4.08717165   4.10194014   4.22462989   4.30050747   4.30061993
   4.31778669   4.3452351    4.34550676   4.52853785   4.81944602
   4.82381544   4.82435517   4.8405739    4.84078971   4.88919719
   4.93262035   4.93529791   4.93548758   5.31578669   5.31652883
   5.34106006   5.34183725   5.34910307   5.38225741   5.44222131
   5.44255875   5.4465053    5.45507724   5.7894748    5.79054376
   5.82962862   5.83053012  13.57130497  13.66380145]
nelec by numeric integration = 18.000002907780644
    CPU time for vxc     68.36 sec, wall time      1.46 sec
 Exc = -6.3197403524683535
 Exc = -13.08824224316556
E1 = -190.08519100866496  Ecoul = 80.69965703278146  Exc = -13.08824224316556
cycle= 7 E= -79.8034542315328  delta_E= -7.29e-10  |g|= 3.84e-06  |ddm|= 9.81e-05
    CPU time for cycle= 7     70.40 sec, wall time      1.51 sec
  HOMO = -0.409979103595862  LUMO = 0.0758597333152166
  mo_energy =
[-10.51471908 -10.51436777  -0.85277201  -0.70469661  -0.50976538
  -0.50974441  -0.4165081   -0.41000017  -0.4099791    0.07585973
   0.12037021   0.14048788   0.14049154   0.16252231   0.16252641
   0.24030388   0.29397514   0.31121019   0.31121932   0.31984191
   0.31985746   0.48686397   0.4868925    0.49729849   0.50242443
   0.54462822   0.54463691   0.55203688   0.593358     0.5933901
   0.67347547   0.68481583   0.83673754   0.8367683    0.89482543
   0.97329272   0.98554649   0.98555852   1.07513656   1.09778925
   1.0978559    1.13269444   1.13272809   1.14129534   1.17245181
   1.21680523   1.21682968   1.27324552   1.33199945   1.33202921
   1.41383106   1.41388511   1.43391224   1.43392537   1.56008927
   1.56012524   1.60400893   1.64934704   2.18051297   2.1805343
   2.27366177   2.33904915   2.33915074   2.37455132   2.4278483
   2.57117251   2.57135087   2.60099982   2.77127151   2.771304
   2.8131401    2.82467734   2.88901827   2.88910421   2.91146165
   2.93553852   2.9358202    2.98548794   3.07942046   3.07961529
   3.12536131   3.12545358   3.13721222   3.13740069   3.23423685
   3.23446254   3.28957256   3.33173442   3.44600772   3.44607655
   3.45410132   3.45443013   3.48908144   3.56220969   3.56673959
   3.56681832   3.74451716   3.77065707   3.77086943   3.81256787
   3.81262729   3.82297218   3.88515653   3.88523042   3.97345785
   3.99222799   3.99253712   4.02972083   4.07283262   4.08699288
   4.08717033   4.10193873   4.22462838   4.30050608   4.30061855
   4.31778534   4.34523372   4.34550537   4.52853638   4.81944427
   4.82381381   4.82435355   4.84057232   4.84078813   4.88919575
   4.93261914   4.93529653   4.9354862    5.31578515   5.31652731
   5.34105849   5.3418357    5.34910208   5.38225545   5.44222026
   5.4425577    5.4465044    5.455076     5.78947358   5.79054257
   5.82962721   5.83052873  13.5713042   13.66380061]
nelec by numeric integration = 18.000002907766984
    CPU time for vxc     66.86 sec, wall time      1.43 sec
 Exc = -6.319741143838417
 Exc = -13.08824395885015
E1 = -190.08520627745617  Ecoul = 80.69967401725104  Exc = -13.08824395885015
Extra cycle  E= -79.803454231539  delta_E= -6.22e-12  |g|= 1.87e-06  |ddm|= 5.95e-06
    CPU time for scf_cycle    654.83 sec, wall time     14.06 sec
    CPU time for SCF    654.83 sec, wall time     14.06 sec
converged SCF energy = -79.803454231539
atom C rad-grids = 75, ang-grids = [ 50  50  50  50  50  50  50  50  50  50  50  50  50  50  50  50  50  50
  50  50  50  50  50  86  86  86  86  86  86  86  86  86  86 266 266 266
 266 266 266 266 302 302 302 302 302 302 302 302 302 302 302 302 302 302
 302 302 302 302 302 302 266 266 266 266 266 266 266 266 266 266 266 266
 266 266 266]
atom H rad-grids = 50, ang-grids = [ 50  50  50  50  50  50  50  50  50  50  50  50  50  50  86  86  86  86
 266 266 266 266 302 302 302 302 302 302 302 302 302 302 302 302 302 266
 266 266 266 266 266 266 266 266 266 266 266 266 266 266]
tot grids = 87948
