#INFO: **** input file is /home/wsr/dftpart/test_hfeda/test_c4h10_basis.py ****
from dftpart import scfeda

mollist = [
#'c12h26',
'c2h6',
#'c4h10','c6h14',
#'c8h18','c12h26',
#'c10h22'
]
basislist = [
#'6-31g',
'6-31gss',
#'6-311gss','6-311+gss',
#"6311g(2df,2pd)"
#'cc-pvdz','cc-pvtz',
#'def2-svp','def2-tzvp'
]
for mol in mollist:
    for basis in basislist:
        test1 = scfeda.EDA()
        test1.gjf = './'+mol+'.xyz'
        test1.method = ['m06l',basis,'ultrafine']
        test1.output = mol.upper()+'_'+basis+'_0810ultra'
        #test1.build()
        test1.kernel()
        

#INFO: ******************** input file end ********************


System: uname_result(system='Linux', node='lw06', release='3.10.0-957.el7.x86_64', version='#1 SMP Thu Nov 8 23:39:32 UTC 2018', machine='x86_64', processor='x86_64')  Threads 48
Python 3.7.3 (default, Mar 27 2019, 22:11:17) 
[GCC 7.3.0]
numpy 1.16.2  scipy 1.2.1
Date: Sat Aug 10 03:11:30 2019
PySCF version 1.6.2
PySCF path  /home/wsr/pyscf

[CONFIG] conf_file None
[INPUT] verbose = 4
[INPUT] num. atoms = 8
[INPUT] num. electrons = 18
[INPUT] charge = 0
[INPUT] spin (= nelec alpha-beta = 2S) = 0
[INPUT] symmetry False subgroup None
[INPUT] Mole.unit = angstrom
[INPUT]  1 C     -2.749648430000  -1.202428580000  -0.015740650000 AA   -5.196082471540  -2.272260700550  -0.029745517523 Bohr
[INPUT]  2 H     -2.392994000000  -2.211238580000  -0.015740650000 AA   -4.522103277727  -4.178635312272  -0.029745517523 Bohr
[INPUT]  3 H     -2.392975590000  -0.698030390000  -0.889392160000 AA   -4.522068487869  -1.319086263723  -1.680707599735 Bohr
[INPUT]  4 H     -3.819648430000  -1.202415400000  -0.015740650000 AA   -7.218089424825  -2.272235793959  -0.029745517523 Bohr
[INPUT]  5 C     -2.236306210000  -0.476472310000   1.241664320000 AA   -4.226006267564  -0.900402171839   2.346405503444 Bohr
[INPUT]  6 H     -1.166308020000  -0.478179370000   1.242642670000 AA   -2.204002734684  -0.903628047717   2.348254316998 Bohr
[INPUT]  7 H     -2.591362770000   0.532900710000   1.240686930000 AA   -4.896965924694   1.007036393486   2.344558504027 Bohr
[INPUT]  8 H     -2.594575170000  -0.979740300000   2.115314520000 AA   -4.903036480897  -1.851440840199   3.997365110116 Bohr

nuclear repulsion = 42.6703219875163
number of shells = 30
number of NR pGTOs = 96
number of NR cGTOs = 58
basis = 6-31gss
ecp = {}
CPU time:         0.50


******** <class 'pyscf.dft.rks.RKS'> ********
method = RKS-RHF
initial guess = minao
damping factor = 0
level shift factor = 0
DIIS = <class 'pyscf.scf.diis.CDIIS'>
DIIS start cycle = 1
DIIS space = 8
SCF tol = 1e-09
SCF gradient tol = None
max. SCF cycles = 50
direct_scf = True
direct_scf_tol = 1e-13
chkfile to save SCF result = /home/wsr/dftpart/test_hfeda/tmp0rlvfq5i
max_memory 4000 MB (current use 58 MB)
XC functionals = m06l
small_rho_cutoff = 1e-07
radial grids: 
    Treutler-Ahlrichs (JCP 102, 346 (M4)) radial grids
    
becke partition: Becke, JCP, 88, 2547 (1988)
pruning grids: <function nwchem_prune at 0x2b4dcad07488>
grids dens level: 3
symmetrized grids: False
atomic radii adjust function: <function treutler_atomic_radii_adjust at 0x2b4dcad07400>
User specified grid scheme (99, 590)
Set gradient conv threshold to 3.16228e-05
tot grids = 265200
init E= -79.6869619836811
  HOMO = -0.440530712336485  LUMO = 0.0336468916751295
cycle= 1 E= -79.6982834172512  delta_E= -0.0113  |g|= 0.654  |ddm|=  2.2
  HOMO = -0.167694036197858  LUMO = 0.172270522076756
cycle= 2 E= -79.6308746071906  delta_E= 0.0674  |g|= 0.837  |ddm|= 1.21
  HOMO = -0.306706183487238  LUMO = 0.116975642907296
cycle= 3 E= -79.8141702281677  delta_E= -0.183  |g|= 0.0284  |ddm|= 0.681
  HOMO = -0.310791153806927  LUMO = 0.112319122029202
cycle= 4 E= -79.8143657969475  delta_E= -0.000196  |g|= 0.00359  |ddm|= 0.0304
  HOMO = -0.311792252704998  LUMO = 0.111023827798587
cycle= 5 E= -79.8143693394028  delta_E= -3.54e-06  |g|= 0.000934  |ddm|= 0.00719
  HOMO = -0.311920863715223  LUMO = 0.110901293279545
cycle= 6 E= -79.814369532031  delta_E= -1.93e-07  |g|= 0.000232  |ddm|= 0.00102
  HOMO = -0.311969536669517  LUMO = 0.110846620889685
cycle= 7 E= -79.8143695450175  delta_E= -1.3e-08  |g|= 2.28e-05  |ddm|= 0.000187
  HOMO = -0.311973712382795  LUMO = 0.110842663903705
cycle= 8 E= -79.8143695451402  delta_E= -1.23e-10  |g|= 1.08e-06  |ddm|= 1.72e-05
  HOMO = -0.311974127311305  LUMO = 0.110842317792285
Extra cycle  E= -79.8143695451403  delta_E= -2.84e-14  |g|= 1.23e-06  |ddm|= 1.46e-06
converged SCF energy = -79.8143695451403
tot grids = 265200
