#INFO: **** input file is /home/wsr/dftpart/test_hfeda/test_c4h10_basis.py ****
from dftpart import scfeda

mollist = [
#'c12h26',
'c2h6','c4h10','c6h14',
'c8h18','c12h26',
'c10h22'
]
basislist = [
#'6-31g',
#'6-31gss','6-311gss','6-311+gss',
"6-311g(2df,2pd)"
#'cc-pvdz','cc-pvtz',
#'def2-svp','def2-tzvp'
]
for mol in mollist:
    for basis in basislist:
        test1 = scfeda.EDA()
        test1.gjf = './'+mol+'.xyz'
        test1.method = ['m062x',basis]
        test1.output = mol.upper()+'_'+basis
        #test1.build()
        test1.kernel()
        

#INFO: ******************** input file end ********************


System: uname_result(system='Linux', node='lw06', release='3.10.0-957.el7.x86_64', version='#1 SMP Thu Nov 8 23:39:32 UTC 2018', machine='x86_64', processor='x86_64')  Threads 48
Python 3.7.3 (default, Mar 27 2019, 22:11:17) 
[GCC 7.3.0]
numpy 1.16.2  scipy 1.2.1
Date: Tue Jul 16 23:09:57 2019
PySCF version 1.6.2
PySCF path  /home/wsr/pyscf

[CONFIG] conf_file None
[INPUT] verbose = 4
[INPUT] num. atoms = 8
[INPUT] num. electrons = 18
[INPUT] charge = 0
[INPUT] spin (= nelec alpha-beta = 2S) = 0
[INPUT] symmetry False subgroup None
[INPUT] Mole.unit = angstrom
[INPUT]  1 C     -2.749648430000  -1.202428580000  -0.015740650000 AA   -5.196082471540  -2.272260700550  -0.029745517523 Bohr
[INPUT]  2 H     -2.392994000000  -2.211238580000  -0.015740650000 AA   -4.522103277727  -4.178635312272  -0.029745517523 Bohr
[INPUT]  3 H     -2.392975590000  -0.698030390000  -0.889392160000 AA   -4.522068487869  -1.319086263723  -1.680707599735 Bohr
[INPUT]  4 H     -3.819648430000  -1.202415400000  -0.015740650000 AA   -7.218089424825  -2.272235793959  -0.029745517523 Bohr
[INPUT]  5 C     -2.236306210000  -0.476472310000   1.241664320000 AA   -4.226006267564  -0.900402171839   2.346405503444 Bohr
[INPUT]  6 H     -1.166308020000  -0.478179370000   1.242642670000 AA   -2.204002734684  -0.903628047717   2.348254316998 Bohr
[INPUT]  7 H     -2.591362770000   0.532900710000   1.240686930000 AA   -4.896965924694   1.007036393486   2.344558504027 Bohr
[INPUT]  8 H     -2.594575170000  -0.979740300000   2.115314520000 AA   -4.903036480897  -1.851440840199   3.997365110116 Bohr

nuclear repulsion = 42.6703219875163
number of shells = 56
number of NR pGTOs = 182
number of NR cGTOs = 144
basis = 6-311g(2df,2pd)
ecp = {}
CPU time:         0.48


******** <class 'pyscf.dft.rks.RKS'> ********
method = RKS-RHF
initial guess = minao
damping factor = 0
level shift factor = 0
DIIS = <class 'pyscf.scf.diis.CDIIS'>
DIIS start cycle = 1
DIIS space = 8
SCF tol = 1e-09
SCF gradient tol = None
max. SCF cycles = 50
direct_scf = True
direct_scf_tol = 1e-13
chkfile to save SCF result = /home/wsr/dftpart/test_hfeda/tmpek0_30lv
max_memory 4000 MB (current use 58 MB)
XC functionals = m062x
small_rho_cutoff = 1e-07
radial grids: 
    Treutler-Ahlrichs (JCP 102, 346 (M4)) radial grids
    
becke partition: Becke, JCP, 88, 2547 (1988)
pruning grids: <function nwchem_prune at 0x2b5caad6d488>
grids dens level: 3
symmetrized grids: False
atomic radii adjust function: <function treutler_atomic_radii_adjust at 0x2b5caad6d400>
Set gradient conv threshold to 3.16228e-05
tot grids = 87948
init E= -79.87195502876
  HOMO = -0.434530712557212  LUMO = 0.0258056068956417
cycle= 1 E= -79.7508072049977  delta_E= 0.121  |g|= 0.47  |ddm|= 1.46
  HOMO = -0.318095824282785  LUMO = 0.0934685776089572
cycle= 2 E= -79.7633412627339  delta_E= -0.0125  |g|= 0.391  |ddm|= 0.533
  HOMO = -0.411674500208033  LUMO = 0.0763926139814157
cycle= 3 E= -79.8009828539173  delta_E= -0.0376  |g|= 0.0132  |ddm|= 0.232
  HOMO = -0.410410400383161  LUMO = 0.0773611918867736
cycle= 4 E= -79.8010276117675  delta_E= -4.48e-05  |g|= 0.00306  |ddm|= 0.0102
  HOMO = -0.410049872531822  LUMO = 0.0774724953140903
cycle= 5 E= -79.8010299090294  delta_E= -2.3e-06  |g|= 0.000302  |ddm|= 0.00265
  HOMO = -0.410069054768423  LUMO = 0.0774587033629834
cycle= 6 E= -79.8010299348704  delta_E= -2.58e-08  |g|= 3.55e-05  |ddm|= 0.000495
  HOMO = -0.410070059654855  LUMO = 0.0774599866727751
cycle= 7 E= -79.8010299353589  delta_E= -4.89e-10  |g|= 3.02e-06  |ddm|= 7.59e-05
  HOMO = -0.410071014035051  LUMO = 0.0774597959737103
Extra cycle  E= -79.8010299353626  delta_E= -3.71e-12  |g|= 1.06e-06  |ddm|= 4.69e-06
converged SCF energy = -79.8010299353626
tot grids = 87948
