#INFO: **** input file is /home/wsr/dftpart/test_hfeda/test_c2h6_6-311++gss.py ****
from dftpart import scfeda

test1 = scfeda.EDA()
test1.gjf = '../1.xyz'
test1.method = ['m062x','6-311++gss']
test1.output = 'C2H6_6-311++gss'
#test1.build()
test1.kernel()

#INFO: ******************** input file end ********************


System: uname_result(system='Linux', node='lw06', release='3.10.0-957.el7.x86_64', version='#1 SMP Thu Nov 8 23:39:32 UTC 2018', machine='x86_64', processor='x86_64')  Threads 48
Python 3.7.3 (default, Mar 27 2019, 22:11:17) 
[GCC 7.3.0]
numpy 1.16.2  scipy 1.2.1
Date: Wed Jul 10 09:54:58 2019
PySCF version 1.6.2
PySCF path  /home/wsr/pyscf

[CONFIG] conf_file None
[INPUT] verbose = 4
[INPUT] num. atoms = 8
[INPUT] num. electrons = 18
[INPUT] charge = 0
[INPUT] spin (= nelec alpha-beta = 2S) = 0
[INPUT] symmetry False subgroup None
[INPUT] Mole.unit = angstrom
[INPUT]  1 C     -2.749648430000  -1.202428580000  -0.015740650000 AA   -5.196082471540  -2.272260700550  -0.029745517523 Bohr
[INPUT]  2 H     -2.392994000000  -2.211238580000  -0.015740650000 AA   -4.522103277727  -4.178635312272  -0.029745517523 Bohr
[INPUT]  3 H     -2.392975590000  -0.698030390000  -0.889392160000 AA   -4.522068487869  -1.319086263723  -1.680707599735 Bohr
[INPUT]  4 H     -3.819648430000  -1.202415400000  -0.015740650000 AA   -7.218089424825  -2.272235793959  -0.029745517523 Bohr
[INPUT]  5 C     -2.236306210000  -0.476472310000   1.241664320000 AA   -4.226006267564  -0.900402171839   2.346405503444 Bohr
[INPUT]  6 H     -1.166308020000  -0.478179370000   1.242642670000 AA   -2.204002734684  -0.903628047717   2.348254316998 Bohr
[INPUT]  7 H     -2.591362770000   0.532900710000   1.240686930000 AA   -4.896965924694   1.007036393486   2.344558504027 Bohr
[INPUT]  8 H     -2.594575170000  -0.979740300000   2.115314520000 AA   -4.903036480897  -1.851440840199   3.997365110116 Bohr

nuclear repulsion = 42.6703219875163
number of shells = 50
number of NR pGTOs = 124
number of NR cGTOs = 86
basis = 6-311++gss
ecp = {}
CPU time:         0.47


******** <class 'pyscf.dft.rks.RKS'> ********
method = RKS-RHF
initial guess = minao
damping factor = 0
level shift factor = 0
DIIS = <class 'pyscf.scf.diis.CDIIS'>
DIIS start cycle = 1
DIIS space = 8
SCF tol = 1e-09
SCF gradient tol = None
max. SCF cycles = 50
direct_scf = True
direct_scf_tol = 1e-13
chkfile to save SCF result = /home/wsr/dftpart/test_hfeda/tmp1rcvf3l4
max_memory 4000 MB (current use 58 MB)
XC functionals = m062x
small_rho_cutoff = 1e-07
radial grids: 
    Treutler-Ahlrichs (JCP 102, 346 (M4)) radial grids
    
becke partition: Becke, JCP, 88, 2547 (1988)
pruning grids: <function nwchem_prune at 0x2b01249ed510>
grids dens level: 3
symmetrized grids: False
atomic radii adjust function: <function treutler_atomic_radii_adjust at 0x2b01249ed488>
Set gradient conv threshold to 3.16228e-05
tot grids = 87948
init E= -79.8721983958136
  HOMO = -0.433622608860941  LUMO = -0.0158633782920002
cycle= 1 E= -79.7470098091235  delta_E= 0.125  |g|= 0.454  |ddm|= 1.85
  HOMO = -0.320595340730797  LUMO = 0.00799294720472082
cycle= 2 E= -79.7583903051416  delta_E= -0.0114  |g|= 0.38  |ddm|= 0.499
  HOMO = -0.411782411011246  LUMO = 0.00233175686675498
cycle= 3 E= -79.7946548520209  delta_E= -0.0363  |g|= 0.0117  |ddm|= 0.221
  HOMO = -0.410034549429108  LUMO = 0.00267661153803018
cycle= 4 E= -79.7946931805381  delta_E= -3.83e-05  |g|= 0.00271  |ddm|= 0.0124
  HOMO = -0.409817179354301  LUMO = 0.00271010929022168
cycle= 5 E= -79.7946950097439  delta_E= -1.83e-06  |g|= 0.000298  |ddm|= 0.00271
  HOMO = -0.409830074927795  LUMO = 0.00271413328990631
cycle= 6 E= -79.7946950418616  delta_E= -3.21e-08  |g|= 2.91e-05  |ddm|= 0.000554
  HOMO = -0.409827587182476  LUMO = 0.00271471949655564
cycle= 7 E= -79.7946950424191  delta_E= -5.57e-10  |g|= 2.57e-06  |ddm|= 8.85e-05
  HOMO = -0.409827827532376  LUMO = 0.00271461922967464
Extra cycle  E= -79.794695042422  delta_E= -2.91e-12  |g|= 6.91e-07  |ddm|= 5.33e-06
converged SCF energy = -79.794695042422
tot grids = 87948
