#INFO: **** input file is /home/wsr/dftpart/test_hfeda/test_c2h6_hf.py ****
from dftpart import scfeda

test1 = scfeda.EDA()
test1.gjf = '../1.xyz'
test1.method = ['hf','sto-3g']
test1.output = 'C2H6_hf'
#test1.build()
test1.kernel()

#INFO: ******************** input file end ********************


System: uname_result(system='Linux', node='lw06', release='3.10.0-957.el7.x86_64', version='#1 SMP Thu Nov 8 23:39:32 UTC 2018', machine='x86_64', processor='x86_64')  Threads 48
Python 3.7.3 (default, Mar 27 2019, 22:11:17) 
[GCC 7.3.0]
numpy 1.16.2  scipy 1.2.1
Date: Wed Jul 10 09:42:24 2019
PySCF version 1.6.2
PySCF path  /home/wsr/pyscf

[CONFIG] conf_file None
[INPUT] verbose = 4
[INPUT] num. atoms = 8
[INPUT] num. electrons = 18
[INPUT] charge = 0
[INPUT] spin (= nelec alpha-beta = 2S) = 0
[INPUT] symmetry False subgroup None
[INPUT] Mole.unit = angstrom
[INPUT]  1 C     -2.749648430000  -1.202428580000  -0.015740650000 AA   -5.196082471540  -2.272260700550  -0.029745517523 Bohr
[INPUT]  2 H     -2.392994000000  -2.211238580000  -0.015740650000 AA   -4.522103277727  -4.178635312272  -0.029745517523 Bohr
[INPUT]  3 H     -2.392975590000  -0.698030390000  -0.889392160000 AA   -4.522068487869  -1.319086263723  -1.680707599735 Bohr
[INPUT]  4 H     -3.819648430000  -1.202415400000  -0.015740650000 AA   -7.218089424825  -2.272235793959  -0.029745517523 Bohr
[INPUT]  5 C     -2.236306210000  -0.476472310000   1.241664320000 AA   -4.226006267564  -0.900402171839   2.346405503444 Bohr
[INPUT]  6 H     -1.166308020000  -0.478179370000   1.242642670000 AA   -2.204002734684  -0.903628047717   2.348254316998 Bohr
[INPUT]  7 H     -2.591362770000   0.532900710000   1.240686930000 AA   -4.896965924694   1.007036393486   2.344558504027 Bohr
[INPUT]  8 H     -2.594575170000  -0.979740300000   2.115314520000 AA   -4.903036480897  -1.851440840199   3.997365110116 Bohr

nuclear repulsion = 42.6703219875163
number of shells = 12
number of NR pGTOs = 48
number of NR cGTOs = 16
basis = sto-3g
ecp = {}
CPU time:         0.49


******** <class 'pyscf.scf.hf.RHF'> ********
method = RHF
initial guess = minao
damping factor = 0
level shift factor = 0
DIIS = <class 'pyscf.scf.diis.CDIIS'>
DIIS start cycle = 1
DIIS space = 8
SCF tol = 1e-09
SCF gradient tol = None
max. SCF cycles = 50
direct_scf = True
direct_scf_tol = 1e-13
chkfile to save SCF result = /home/wsr/dftpart/test_hfeda/tmp83jr6b2q
max_memory 4000 MB (current use 58 MB)
Set gradient conv threshold to 3.16228e-05
init E= -78.5312238616003
  HOMO = -0.384615035444456  LUMO = 0.515007598506311
cycle= 1 E= -78.2978954864138  delta_E= 0.233  |g|= 0.131  |ddm|= 2.77
  HOMO = -0.450278002676369  LUMO = 0.686586441711402
cycle= 2 E= -78.3040089161793  delta_E= -0.00611  |g|= 0.0275  |ddm|= 0.212
  HOMO = -0.470054042994241  LUMO = 0.673393350803319
cycle= 3 E= -78.3043364092996  delta_E= -0.000327  |g|= 0.00542  |ddm|= 0.0499
  HOMO = -0.466351797354481  LUMO = 0.678555423250769
cycle= 4 E= -78.3043466323266  delta_E= -1.02e-05  |g|= 0.000196  |ddm|= 0.00974
  HOMO = -0.466370042457012  LUMO = 0.678506988243007
cycle= 5 E= -78.3043466493049  delta_E= -1.7e-08  |g|= 1.44e-05  |ddm|= 0.000332
  HOMO = -0.466372992580677  LUMO = 0.678506035075714
cycle= 6 E= -78.3043466493939  delta_E= -8.9e-11  |g|= 1.03e-06  |ddm|= 2.51e-05
  HOMO = -0.466373143489007  LUMO = 0.67850573364718
Extra cycle  E= -78.3043466493944  delta_E= -4.41e-13  |g|= 2.24e-07  |ddm|= 1.72e-06
converged SCF energy = -78.3043466493944
