#INFO: **** input file is /home/liwei01/wsr/dftpart/test_hfeda/test_c4h10_basis.py ****
from dftpart import scfeda

mollist = [
#'c12h26',
#'c2h6',
'c4h10',
#'c6h14',
#'c8h18','c12h26',
#'c10h22'
]
basislist = [
'6-31g',
#'6-31gss',
#'6-311gss','6-311+gss',
#"6311g(2df,2pd)"
#'cc-pvdz','cc-pvtz',
#'def2-svp','def2-tzvp'
]
for mol in mollist:
    for basis in basislist:
        test1 = scfeda.EDA()
        test1.gjf = './'+mol+'.xyz'
        test1.method = ['hf',basis]
        test1.output = mol.upper()+'_'+basis
        #test1.build()
        test1.anal2=True
        test1.kernel()
        

#INFO: ******************** input file end ********************


System: uname_result(system='Linux', node='master', release='3.10.0-693.el7.x86_64', version='#1 SMP Tue Aug 22 21:09:27 UTC 2017', machine='x86_64', processor='x86_64')  Threads 20
Python 3.6.4 |Anaconda, Inc.| (default, Jan 16 2018, 18:10:19) 
[GCC 7.2.0]
numpy 1.14.0  scipy 1.0.0
Date: Mon Sep  2 22:48:11 2019
PySCF version 1.5.4
PySCF path  /home/liwei01/liaokang/anaconda3/lib/python3.6/site-packages/pyscf

[CONFIG] conf_file None
[INPUT] verbose = 4
[INPUT] num. atoms = 14
[INPUT] num. electrons = 34
[INPUT] charge = 0
[INPUT] spin (= nelec alpha-beta = 2S) = 0
[INPUT] symmetry False subgroup None
[INPUT] Mole.unit = angstrom
[INPUT]  1 C     -6.448111350000   0.175808720000  -0.084410400000 AA  -12.185164472199   0.332230331110  -0.159512538065 Bohr
[INPUT]  2 H     -6.091456930000  -0.833001280000  -0.084410400000 AA  -11.511185297284  -1.574144280612  -0.159512538065 Bohr
[INPUT]  3 H     -6.091438510000   0.680206910000   0.789241100000 AA  -11.511150488529   1.285404767937   1.491449525250 Bohr
[INPUT]  4 H     -7.518111350000   0.175821900000  -0.084410400000 AA  -14.207171425484   0.332255237701  -0.159512538065 Bohr
[INPUT]  5 C     -5.934769130000   0.901764990000  -1.341815370000 AA  -11.215088268223   1.704088859821  -2.535663559032 Bohr
[INPUT]  6 H     -6.293020060000   1.910008670000  -1.342794120000 AA  -11.892084409794   3.609393281845  -2.537513128476 Bohr
[INPUT]  7 H     -6.289843770000   0.396238200000  -2.215465570000 AA  -11.886082091602   0.748781678091  -4.186623165703 Bohr
[INPUT]  8 C     -4.394771680000   0.904184460000  -1.340408100000 AA   -8.304914855195   1.708660995488  -2.533004204149 Bohr
[INPUT]  9 H     -4.036521940000  -0.104059210000  -1.339052400000 AA   -7.627920962398  -0.196643407639  -2.530442302442 Bohr
[INPUT] 10 H     -4.039697150000   1.410037170000  -0.466946530000 AA   -7.633921239686   2.664584076757  -0.882401056516 Bohr
[INPUT] 11 C     -3.881428470000   1.629671300000  -2.598083570000 AA   -7.334836780390   3.079632430064  -4.909666396032 Bohr
[INPUT] 12 H     -4.239746200000   2.637890750000  -2.599479960000 AA   -8.011959155665   4.984891064024  -4.912305190695 Bohr
[INPUT] 13 H     -2.811430390000   1.631423700000  -2.597064700000 AA   -5.312833455379   3.082943986125  -4.907741010776 Bohr
[INPUT] 14 H     -4.236435470000   1.123771240000  -3.471545170000 AA   -8.005702782693   2.123619870263  -6.560269600357 Bohr

nuclear repulsion = 131.827304017211
number of shells = 40
number of NR pGTOs = 128
number of NR cGTOs = 56
basis = 6-31g
ecp = {}
CPU time:         2.64


******** <class 'pyscf.scf.hf.RHF'> flags ********
method = RHF
initial guess = minao
damping factor = 0
level shift factor = 0
DIIS = <class 'pyscf.scf.diis.CDIIS'>
DIIS start cycle = 1
DIIS space = 8
SCF tol = 1e-09
SCF gradient tol = None
max. SCF cycles = 50
direct_scf = True
direct_scf_tol = 1e-13
chkfile to save SCF result = /home/liwei01/wsr/dftpart/test_hfeda/tmptodi0y22
max_memory 4000 MB (current use 77 MB)
Set gradient conv threshold to 3.16228e-05
init E= -158.167979456378
  HOMO = -0.374772366052812  LUMO = 0.142254233273668
cycle= 1 E= -157.201074244403  delta_E= 0.967  |g|= 0.296  |ddm|= 2.85
  HOMO = -0.413059158447682  LUMO = 0.233876952989654
cycle= 2 E= -157.228826876775  delta_E= -0.0278  |g|= 0.0721  |ddm|= 0.338
  HOMO = -0.44887768895928  LUMO = 0.22711973691514
cycle= 3 E= -157.230526528848  delta_E= -0.0017  |g|= 0.0283  |ddm|= 0.109
  HOMO = -0.438875565542653  LUMO = 0.231108074672155
cycle= 4 E= -157.230745319019  delta_E= -0.000219  |g|= 0.00198  |ddm|= 0.0286
  HOMO = -0.439243639311494  LUMO = 0.231133405726437
cycle= 5 E= -157.230747214406  delta_E= -1.9e-06  |g|= 0.000561  |ddm|= 0.00522
  HOMO = -0.439226856738172  LUMO = 0.231149242717909
cycle= 6 E= -157.230747306375  delta_E= -9.2e-08  |g|= 7.21e-05  |ddm|= 0.000787
  HOMO = -0.439239969001524  LUMO = 0.231143865051119
cycle= 7 E= -157.23074730918  delta_E= -2.8e-09  |g|= 1.64e-05  |ddm|= 0.000186
  HOMO = -0.439239836876922  LUMO = 0.231145077377724
cycle= 8 E= -157.230747309369  delta_E= -1.89e-10  |g|= 2.21e-06  |ddm|= 5.86e-05
  HOMO = -0.439239867339088  LUMO = 0.231145126479506
Extra cycle  E= -157.230747309373  delta_E= -3.81e-12  |g|= 8.74e-07  |ddm|= 4.67e-06
converged SCF energy = -157.230747309373
