#INFO: **** input file is /home/wsr/dftpart/test_hfeda/test_c4h10_basis.py ****
from dftpart import scfeda

mollist = [
#'c12h26'
'c2h6','c4h10','c6h14'
]
basislist = [
'6-31g',
'6-31gss','6-311gss','6-311+gss',
'cc-pvdz','cc-pvtz',
'def2-svp','def2-tzvp']
for mol in mollist:
    for basis in basislist:
        test1 = scfeda.EDA()
        test1.gjf = './'+mol+'.xyz'
        test1.method = ['m062x',basis]
        test1.output = mol.upper()+'_'+basis
        #test1.build()
        test1.kernel()
        

#INFO: ******************** input file end ********************


System: uname_result(system='Linux', node='lw06', release='3.10.0-957.el7.x86_64', version='#1 SMP Thu Nov 8 23:39:32 UTC 2018', machine='x86_64', processor='x86_64')  Threads 48
Python 3.7.3 (default, Mar 27 2019, 22:11:17) 
[GCC 7.3.0]
numpy 1.16.2  scipy 1.2.1
Date: Fri Jul 12 09:06:27 2019
PySCF version 1.6.2
PySCF path  /home/wsr/pyscf

[CONFIG] conf_file None
[INPUT] verbose = 4
[INPUT] num. atoms = 14
[INPUT] num. electrons = 34
[INPUT] charge = 0
[INPUT] spin (= nelec alpha-beta = 2S) = 0
[INPUT] symmetry False subgroup None
[INPUT] Mole.unit = angstrom
[INPUT]  1 C     -6.448111350000   0.175808720000  -0.084410400000 AA  -12.185164472199   0.332230331110  -0.159512538065 Bohr
[INPUT]  2 H     -6.091456930000  -0.833001280000  -0.084410400000 AA  -11.511185297284  -1.574144280612  -0.159512538065 Bohr
[INPUT]  3 H     -6.091438510000   0.680206910000   0.789241100000 AA  -11.511150488529   1.285404767937   1.491449525250 Bohr
[INPUT]  4 H     -7.518111350000   0.175821900000  -0.084410400000 AA  -14.207171425484   0.332255237701  -0.159512538065 Bohr
[INPUT]  5 C     -5.934769130000   0.901764990000  -1.341815370000 AA  -11.215088268223   1.704088859821  -2.535663559032 Bohr
[INPUT]  6 H     -6.293020060000   1.910008670000  -1.342794120000 AA  -11.892084409794   3.609393281845  -2.537513128476 Bohr
[INPUT]  7 H     -6.289843770000   0.396238200000  -2.215465570000 AA  -11.886082091602   0.748781678091  -4.186623165703 Bohr
[INPUT]  8 C     -4.394771680000   0.904184460000  -1.340408100000 AA   -8.304914855195   1.708660995488  -2.533004204149 Bohr
[INPUT]  9 H     -4.036521940000  -0.104059210000  -1.339052400000 AA   -7.627920962398  -0.196643407639  -2.530442302442 Bohr
[INPUT] 10 H     -4.039697150000   1.410037170000  -0.466946530000 AA   -7.633921239686   2.664584076757  -0.882401056516 Bohr
[INPUT] 11 C     -3.881428470000   1.629671300000  -2.598083570000 AA   -7.334836780390   3.079632430064  -4.909666396032 Bohr
[INPUT] 12 H     -4.239746200000   2.637890750000  -2.599479960000 AA   -8.011959155665   4.984891064024  -4.912305190695 Bohr
[INPUT] 13 H     -2.811430390000   1.631423700000  -2.597064700000 AA   -5.312833455379   3.082943986125  -4.907741010776 Bohr
[INPUT] 14 H     -4.236435470000   1.123771240000  -3.471545170000 AA   -8.005702782693   2.123619870263  -6.560269600357 Bohr

nuclear repulsion = 131.827304017211
number of shells = 40
number of NR pGTOs = 128
number of NR cGTOs = 56
basis = 6-31g
ecp = {}
CPU time:      3322.04


******** <class 'pyscf.dft.rks.RKS'> ********
method = RKS-RHF
initial guess = minao
damping factor = 0
level shift factor = 0
DIIS = <class 'pyscf.scf.diis.CDIIS'>
DIIS start cycle = 1
DIIS space = 8
SCF tol = 1e-09
SCF gradient tol = None
max. SCF cycles = 50
direct_scf = True
direct_scf_tol = 1e-13
chkfile to save SCF result = /home/wsr/dftpart/test_hfeda/tmploalabb2
max_memory 4000 MB (current use 430 MB)
XC functionals = m062x
small_rho_cutoff = 1e-07
radial grids: 
    Treutler-Ahlrichs (JCP 102, 346 (M4)) radial grids
    
becke partition: Becke, JCP, 88, 2547 (1988)
pruning grids: <function nwchem_prune at 0x2abf6e3f7378>
grids dens level: 3
symmetrized grids: False
atomic radii adjust function: <function treutler_atomic_radii_adjust at 0x2abf6e3f72f0>
Set gradient conv threshold to 3.16228e-05
tot grids = 155848
init E= -158.909677454336
  HOMO = -0.408223206304717  LUMO = 0.0528460502319778
cycle= 1 E= -158.24756134805  delta_E= 0.662  |g|= 0.514  |ddm|= 2.94
  HOMO = -0.267827682575562  LUMO = 0.16757498541147
cycle= 2 E= -158.273387733178  delta_E= -0.0258  |g|= 0.407  |ddm|= 0.831
  HOMO = -0.367266372940035  LUMO = 0.135120264770651
cycle= 3 E= -158.317535276237  delta_E= -0.0441  |g|= 0.0214  |ddm|= 0.399
  HOMO = -0.363346398409164  LUMO = 0.137926259127376
cycle= 4 E= -158.317652953893  delta_E= -0.000118  |g|= 0.00789  |ddm|= 0.027
  HOMO = -0.363849364629764  LUMO = 0.137740394516775
cycle= 5 E= -158.317668892039  delta_E= -1.59e-05  |g|= 0.000625  |ddm|= 0.00702
  HOMO = -0.363879789105449  LUMO = 0.137694933950592
cycle= 6 E= -158.317669014463  delta_E= -1.22e-07  |g|= 2.8e-05  |ddm|= 0.00113
  HOMO = -0.363878353421115  LUMO = 0.13770222750439
cycle= 7 E= -158.317669014825  delta_E= -3.62e-10  |g|= 3.94e-06  |ddm|= 8.92e-05
  HOMO = -0.363876649848032  LUMO = 0.13770307392432
Extra cycle  E= -158.317669014831  delta_E= -6.42e-12  |g|= 1.31e-06  |ddm|= 1.11e-05
converged SCF energy = -158.317669014831
tot grids = 155848
