#INFO: **** input file is /home/wsr/dftpart/test_hfeda/test_c4h10_basis.py ****
from dftpart import scfeda

mollist = [
#'c12h26'
'c2h6','c4h10','c6h14'
]
basislist = [
'6-31g',
'6-31gss','6-311gss','6-311+gss',
'cc-pvdz','cc-pvtz',
'def2-svp','def2-tzvp']
for mol in mollist:
    for basis in basislist:
        test1 = scfeda.EDA()
        test1.gjf = './'+mol+'.xyz'
        test1.method = ['m062x',basis]
        test1.output = mol.upper()+'_'+basis
        #test1.build()
        test1.kernel()
        

#INFO: ******************** input file end ********************


System: uname_result(system='Linux', node='lw06', release='3.10.0-957.el7.x86_64', version='#1 SMP Thu Nov 8 23:39:32 UTC 2018', machine='x86_64', processor='x86_64')  Threads 48
Python 3.7.3 (default, Mar 27 2019, 22:11:17) 
[GCC 7.3.0]
numpy 1.16.2  scipy 1.2.1
Date: Fri Jul 12 09:08:12 2019
PySCF version 1.6.2
PySCF path  /home/wsr/pyscf

[CONFIG] conf_file None
[INPUT] verbose = 4
[INPUT] num. atoms = 14
[INPUT] num. electrons = 34
[INPUT] charge = 0
[INPUT] spin (= nelec alpha-beta = 2S) = 0
[INPUT] symmetry False subgroup None
[INPUT] Mole.unit = angstrom
[INPUT]  1 C     -6.448111350000   0.175808720000  -0.084410400000 AA  -12.185164472199   0.332230331110  -0.159512538065 Bohr
[INPUT]  2 H     -6.091456930000  -0.833001280000  -0.084410400000 AA  -11.511185297284  -1.574144280612  -0.159512538065 Bohr
[INPUT]  3 H     -6.091438510000   0.680206910000   0.789241100000 AA  -11.511150488529   1.285404767937   1.491449525250 Bohr
[INPUT]  4 H     -7.518111350000   0.175821900000  -0.084410400000 AA  -14.207171425484   0.332255237701  -0.159512538065 Bohr
[INPUT]  5 C     -5.934769130000   0.901764990000  -1.341815370000 AA  -11.215088268223   1.704088859821  -2.535663559032 Bohr
[INPUT]  6 H     -6.293020060000   1.910008670000  -1.342794120000 AA  -11.892084409794   3.609393281845  -2.537513128476 Bohr
[INPUT]  7 H     -6.289843770000   0.396238200000  -2.215465570000 AA  -11.886082091602   0.748781678091  -4.186623165703 Bohr
[INPUT]  8 C     -4.394771680000   0.904184460000  -1.340408100000 AA   -8.304914855195   1.708660995488  -2.533004204149 Bohr
[INPUT]  9 H     -4.036521940000  -0.104059210000  -1.339052400000 AA   -7.627920962398  -0.196643407639  -2.530442302442 Bohr
[INPUT] 10 H     -4.039697150000   1.410037170000  -0.466946530000 AA   -7.633921239686   2.664584076757  -0.882401056516 Bohr
[INPUT] 11 C     -3.881428470000   1.629671300000  -2.598083570000 AA   -7.334836780390   3.079632430064  -4.909666396032 Bohr
[INPUT] 12 H     -4.239746200000   2.637890750000  -2.599479960000 AA   -8.011959155665   4.984891064024  -4.912305190695 Bohr
[INPUT] 13 H     -2.811430390000   1.631423700000  -2.597064700000 AA   -5.312833455379   3.082943986125  -4.907741010776 Bohr
[INPUT] 14 H     -4.236435470000   1.123771240000  -3.471545170000 AA   -8.005702782693   2.123619870263  -6.560269600357 Bohr

nuclear repulsion = 131.827304017211
number of shells = 80
number of NR pGTOs = 220
number of NR cGTOs = 148
basis = 6-311+gss
ecp = {}
CPU time:      5744.82


******** <class 'pyscf.dft.rks.RKS'> ********
method = RKS-RHF
initial guess = minao
damping factor = 0
level shift factor = 0
DIIS = <class 'pyscf.scf.diis.CDIIS'>
DIIS start cycle = 1
DIIS space = 8
SCF tol = 1e-09
SCF gradient tol = None
max. SCF cycles = 50
direct_scf = True
direct_scf_tol = 1e-13
chkfile to save SCF result = /home/wsr/dftpart/test_hfeda/tmps_w87zb5
max_memory 4000 MB (current use 568 MB)
XC functionals = m062x
small_rho_cutoff = 1e-07
radial grids: 
    Treutler-Ahlrichs (JCP 102, 346 (M4)) radial grids
    
becke partition: Becke, JCP, 88, 2547 (1988)
pruning grids: <function nwchem_prune at 0x2abf6e3f7378>
grids dens level: 3
symmetrized grids: False
atomic radii adjust function: <function treutler_atomic_radii_adjust at 0x2abf6e3f72f0>
Set gradient conv threshold to 3.16228e-05
tot grids = 155848
init E= -158.909956431899
  HOMO = -0.410693777791313  LUMO = -0.00594261794816212
cycle= 1 E= -158.315894178081  delta_E= 0.594  |g|= 0.591  |ddm|= 3.11
  HOMO = -0.262193992990889  LUMO = 0.029529657260942
cycle= 2 E= -158.335863398909  delta_E= -0.02  |g|= 0.496  |ddm|= 1.69
  HOMO = -0.370280909148435  LUMO = 0.0207552083017727
cycle= 3 E= -158.398643853423  delta_E= -0.0628  |g|= 0.0244  |ddm|= 0.946
  HOMO = -0.367080149631134  LUMO = 0.0210886695123623
cycle= 4 E= -158.398752515712  delta_E= -0.000109  |g|= 0.0155  |ddm|= 0.0399
  HOMO = -0.367750571446697  LUMO = 0.0210720433443623
cycle= 5 E= -158.398809114592  delta_E= -5.66e-05  |g|= 0.00203  |ddm|= 0.0341
  HOMO = -0.3677187989355  LUMO = 0.0210744276303299
cycle= 6 E= -158.398810090829  delta_E= -9.76e-07  |g|= 0.00024  |ddm|= 0.007
  HOMO = -0.36773600517296  LUMO = 0.021075157408636
cycle= 7 E= -158.398810109966  delta_E= -1.91e-08  |g|= 4.05e-05  |ddm|= 0.00203
  HOMO = -0.367733683452573  LUMO = 0.0210757591447774
cycle= 8 E= -158.398810110491  delta_E= -5.25e-10  |g|= 6.77e-06  |ddm|= 0.00024
  HOMO = -0.367733514537167  LUMO = 0.0210758569573032
Extra cycle  E= -158.398810110507  delta_E= -1.59e-11  |g|= 3.2e-06  |ddm|= 4.08e-05
converged SCF energy = -158.398810110507
tot grids = 155848
