#INFO: **** input file is /home/wsr/dftpart/test_hfeda/test_new.py ****
from dftpart import scfeda

ok = ['FAIL','OK']
mollist = [
#'c12h26',
'c2h6',
'c4h10','c6h14',
'c8h18','c12h26',
'c10h22'
]
basislist = [
#'6-31g',
'6-31gss','6-311gss','6-311+gss',
#"6311g(2df,2pd)"
'cc-pvdz','cc-pvtz',
'def2-svp','def2-tzvp'
]
with open("CH3_new.txt",'a') as f:
    for basis in basislist:
        for mol in mollist:
            test1 = scfeda.EDA()
            test1.gjf = './'+mol+'.xyz'
            test1.method = ['m062x',basis]
            test1.output = mol.upper()+'_'+basis+'_new'
            #test1.build()
            atme, tote, conv = test1.kernel()
            CH3E = atme[:4].sum()
            f.write("%s %.10f  %s\n" % (test1.output,CH3E,ok[conv]))
#INFO: ******************** input file end ********************


System: uname_result(system='Linux', node='lw06', release='3.10.0-957.el7.x86_64', version='#1 SMP Thu Nov 8 23:39:32 UTC 2018', machine='x86_64', processor='x86_64')  Threads 48
Python 3.7.3 (default, Mar 27 2019, 22:11:17) 
[GCC 7.3.0]
numpy 1.16.2  scipy 1.2.1
Date: Sun Jul 21 07:00:07 2019
PySCF version 1.6.2
PySCF path  /home/wsr/pyscf

[CONFIG] conf_file None
[INPUT] verbose = 4
[INPUT] num. atoms = 14
[INPUT] num. electrons = 34
[INPUT] charge = 0
[INPUT] spin (= nelec alpha-beta = 2S) = 0
[INPUT] symmetry False subgroup None
[INPUT] Mole.unit = angstrom
[INPUT]  1 C     -6.448111350000   0.175808720000  -0.084410400000 AA  -12.185164472199   0.332230331110  -0.159512538065 Bohr
[INPUT]  2 H     -6.091456930000  -0.833001280000  -0.084410400000 AA  -11.511185297284  -1.574144280612  -0.159512538065 Bohr
[INPUT]  3 H     -6.091438510000   0.680206910000   0.789241100000 AA  -11.511150488529   1.285404767937   1.491449525250 Bohr
[INPUT]  4 H     -7.518111350000   0.175821900000  -0.084410400000 AA  -14.207171425484   0.332255237701  -0.159512538065 Bohr
[INPUT]  5 C     -5.934769130000   0.901764990000  -1.341815370000 AA  -11.215088268223   1.704088859821  -2.535663559032 Bohr
[INPUT]  6 H     -6.293020060000   1.910008670000  -1.342794120000 AA  -11.892084409794   3.609393281845  -2.537513128476 Bohr
[INPUT]  7 H     -6.289843770000   0.396238200000  -2.215465570000 AA  -11.886082091602   0.748781678091  -4.186623165703 Bohr
[INPUT]  8 C     -4.394771680000   0.904184460000  -1.340408100000 AA   -8.304914855195   1.708660995488  -2.533004204149 Bohr
[INPUT]  9 H     -4.036521940000  -0.104059210000  -1.339052400000 AA   -7.627920962398  -0.196643407639  -2.530442302442 Bohr
[INPUT] 10 H     -4.039697150000   1.410037170000  -0.466946530000 AA   -7.633921239686   2.664584076757  -0.882401056516 Bohr
[INPUT] 11 C     -3.881428470000   1.629671300000  -2.598083570000 AA   -7.334836780390   3.079632430064  -4.909666396032 Bohr
[INPUT] 12 H     -4.239746200000   2.637890750000  -2.599479960000 AA   -8.011959155665   4.984891064024  -4.912305190695 Bohr
[INPUT] 13 H     -2.811430390000   1.631423700000  -2.597064700000 AA   -5.312833455379   3.082943986125  -4.907741010776 Bohr
[INPUT] 14 H     -4.236435470000   1.123771240000  -3.471545170000 AA   -8.005702782693   2.123619870263  -6.560269600357 Bohr

nuclear repulsion = 131.827304017211
number of shells = 96
number of NR pGTOs = 328
number of NR cGTOs = 260
basis = cc-pvtz
ecp = {}
CPU time:     63463.00


******** <class 'pyscf.dft.rks.RKS'> ********
method = RKS-RHF
initial guess = minao
damping factor = 0
level shift factor = 0
DIIS = <class 'pyscf.scf.diis.CDIIS'>
DIIS start cycle = 1
DIIS space = 8
SCF tol = 1e-09
SCF gradient tol = None
max. SCF cycles = 50
direct_scf = True
direct_scf_tol = 1e-13
chkfile to save SCF result = /home/wsr/dftpart/test_hfeda/tmpyv1obmtw
max_memory 4000 MB (current use 1057 MB)
XC functionals = m062x
small_rho_cutoff = 1e-07
radial grids: 
    Treutler-Ahlrichs (JCP 102, 346 (M4)) radial grids
    
becke partition: Becke, JCP, 88, 2547 (1988)
pruning grids: <function nwchem_prune at 0x2abf1e1291e0>
grids dens level: 3
symmetrized grids: False
atomic radii adjust function: <function treutler_atomic_radii_adjust at 0x2abf1e129158>
Set gradient conv threshold to 3.16228e-05
tot grids = 155848
init E= -158.954337702278
  HOMO = -0.411308008048339  LUMO = 0.015205377396228
cycle= 1 E= -158.327822671515  delta_E= 0.627  |g|= 0.608  |ddm|= 2.51
  HOMO = -0.259270131059415  LUMO = 0.0927741198922817
cycle= 2 E= -158.349190461956  delta_E= -0.0214  |g|= 0.513  |ddm|= 0.66
  HOMO = -0.370472807746256  LUMO = 0.0704458365291421
cycle= 3 E= -158.414996094392  delta_E= -0.0658  |g|= 0.0278  |ddm|= 0.363
  HOMO = -0.367128477022702  LUMO = 0.0725199814374609
cycle= 4 E= -158.415147525867  delta_E= -0.000151  |g|= 0.0159  |ddm|= 0.0233
  HOMO = -0.36752698889016  LUMO = 0.0725346761311847
cycle= 5 E= -158.415206030341  delta_E= -5.85e-05  |g|= 0.0025  |ddm|= 0.0105
  HOMO = -0.367439058856096  LUMO = 0.0725347939226662
cycle= 6 E= -158.415207459944  delta_E= -1.43e-06  |g|= 0.000273  |ddm|= 0.0017
  HOMO = -0.367465939655451  LUMO = 0.0725320645237576
cycle= 7 E= -158.415207482253  delta_E= -2.23e-08  |g|= 5.25e-05  |ddm|= 0.000443
  HOMO = -0.367466183714841  LUMO = 0.0725332044145475
cycle= 8 E= -158.415207483022  delta_E= -7.69e-10  |g|= 9.59e-06  |ddm|= 6.53e-05
  HOMO = -0.367468021323016  LUMO = 0.072533280894424
Extra cycle  E= -158.415207483046  delta_E= -2.4e-11  |g|= 4.91e-06  |ddm|= 1.48e-05
converged SCF energy = -158.415207483046
tot grids = 155848
