#INFO: **** input file is /home/wsr/dftpart/test_hfeda/test.py ****
from dftpart import scfeda

test1 = scfeda.EDA()
test1.gjf = './c4h10.xyz'
test1.method = ['m062x','6-31g']
test1.output = 'C4H10_6-31g_b'
test1.verbose = 6
#test1.build()
test1.kernel()

#INFO: ******************** input file end ********************


System: uname_result(system='Linux', node='lw06', release='3.10.0-957.el7.x86_64', version='#1 SMP Thu Nov 8 23:39:32 UTC 2018', machine='x86_64', processor='x86_64')  Threads 48
Python 3.7.3 (default, Mar 27 2019, 22:11:17) 
[GCC 7.3.0]
numpy 1.16.2  scipy 1.2.1
Date: Fri Jul 12 08:22:36 2019
PySCF version 1.6.2
PySCF path  /home/wsr/pyscf

[CONFIG] conf_file None
[INPUT] verbose = 6
[INPUT] max_memory = 4000 
[INPUT] num. atoms = 14
[INPUT] num. electrons = 34
[INPUT] charge = 0
[INPUT] spin (= nelec alpha-beta = 2S) = 0
[INPUT] symmetry False subgroup None
[INPUT] Mole.unit = angstrom
[INPUT]  1 C     -6.448111350000   0.175808720000  -0.084410400000 AA  -12.185164472199   0.332230331110  -0.159512538065 Bohr
[INPUT]  2 H     -6.091456930000  -0.833001280000  -0.084410400000 AA  -11.511185297284  -1.574144280612  -0.159512538065 Bohr
[INPUT]  3 H     -6.091438510000   0.680206910000   0.789241100000 AA  -11.511150488529   1.285404767937   1.491449525250 Bohr
[INPUT]  4 H     -7.518111350000   0.175821900000  -0.084410400000 AA  -14.207171425484   0.332255237701  -0.159512538065 Bohr
[INPUT]  5 C     -5.934769130000   0.901764990000  -1.341815370000 AA  -11.215088268223   1.704088859821  -2.535663559032 Bohr
[INPUT]  6 H     -6.293020060000   1.910008670000  -1.342794120000 AA  -11.892084409794   3.609393281845  -2.537513128476 Bohr
[INPUT]  7 H     -6.289843770000   0.396238200000  -2.215465570000 AA  -11.886082091602   0.748781678091  -4.186623165703 Bohr
[INPUT]  8 C     -4.394771680000   0.904184460000  -1.340408100000 AA   -8.304914855195   1.708660995488  -2.533004204149 Bohr
[INPUT]  9 H     -4.036521940000  -0.104059210000  -1.339052400000 AA   -7.627920962398  -0.196643407639  -2.530442302442 Bohr
[INPUT] 10 H     -4.039697150000   1.410037170000  -0.466946530000 AA   -7.633921239686   2.664584076757  -0.882401056516 Bohr
[INPUT] 11 C     -3.881428470000   1.629671300000  -2.598083570000 AA   -7.334836780390   3.079632430064  -4.909666396032 Bohr
[INPUT] 12 H     -4.239746200000   2.637890750000  -2.599479960000 AA   -8.011959155665   4.984891064024  -4.912305190695 Bohr
[INPUT] 13 H     -2.811430390000   1.631423700000  -2.597064700000 AA   -5.312833455379   3.082943986125  -4.907741010776 Bohr
[INPUT] 14 H     -4.236435470000   1.123771240000  -3.471545170000 AA   -8.005702782693   2.123619870263  -6.560269600357 Bohr
[INPUT] ---------------- BASIS SET ---------------- 
[INPUT] l, kappa, [nprim/nctr], expnt,             c_1 c_2 ...
[INPUT] H
[INPUT] 0    0    [3    /1   ]  18.731137         0.0334946
                                2.8253937         0.23472695
                                0.6401217         0.81375733
[INPUT] 0    0    [1    /1   ]  0.1612778            1
[INPUT] C
[INPUT] 0    0    [6    /1   ]  3047.5249         0.0018347
                                457.36951         0.0140373
                                103.94869         0.0688426
                                29.210155         0.2321844
                                9.286663          0.4679413
                                3.163927          0.362312
[INPUT] 0    0    [3    /1   ]  7.8682724         -0.1193324
                                1.8812885         -0.1608542
                                0.5442493         1.1434564
[INPUT] 0    0    [1    /1   ]  0.1687144            1
[INPUT] 1    0    [3    /1   ]  7.8682724         0.0689991
                                1.8812885         0.316424
                                0.5442493         0.7443083
[INPUT] 1    0    [1    /1   ]  0.1687144            1

nuclear repulsion = 131.827304017211
number of shells = 40
number of NR pGTOs = 128
number of NR cGTOs = 56
basis = 6-31g
ecp = {}
CPU time:         0.49


******** <class 'pyscf.dft.rks.RKS'> ********
method = RKS-RHF
initial guess = minao
damping factor = 0
level shift factor = 0
DIIS = <class 'pyscf.scf.diis.CDIIS'>
DIIS start cycle = 1
DIIS space = 8
SCF tol = 1e-09
SCF gradient tol = None
max. SCF cycles = 50
direct_scf = True
direct_scf_tol = 1e-13
chkfile to save SCF result = /home/wsr/dftpart/test_hfeda/tmpcxltvq49
max_memory 4000 MB (current use 58 MB)
XC functionals = m062x
small_rho_cutoff = 1e-07
radial grids: 
    Treutler-Ahlrichs (JCP 102, 346 (M4)) radial grids
    
becke partition: Becke, JCP, 88, 2547 (1988)
pruning grids: <function nwchem_prune at 0x2b621cd81598>
grids dens level: 3
symmetrized grids: False
atomic radii adjust function: <function treutler_atomic_radii_adjust at 0x2b621cd81510>
Set gradient conv threshold to 3.16228e-05
Nelec from initial guess = 33.978738659711105
cond(S) = 1003.3471331763996
atom C rad-grids = 75, ang-grids = [ 50  50  50  50  50  50  50  50  50  50  50  50  50  50  50  50  50  50
  50  50  50  50  50  86  86  86  86  86  86  86  86  86  86 266 266 266
 266 266 266 266 302 302 302 302 302 302 302 302 302 302 302 302 302 302
 302 302 302 302 302 302 266 266 266 266 266 266 266 266 266 266 266 266
 266 266 266]
atom H rad-grids = 50, ang-grids = [ 50  50  50  50  50  50  50  50  50  50  50  50  50  50  86  86  86  86
 266 266 266 266 302 302 302 302 302 302 302 302 302 302 302 302 302 266
 266 266 266 266 266 266 266 266 266 266 266 266 266 266]
tot grids = 155848
    CPU time for setting up grids      3.00 sec, wall time      0.07 sec
nelec by numeric integration = 33.97868361080711
    CPU time for vxc     65.59 sec, wall time      1.52 sec
 Exc = -12.064568970359753
 Exc = -25.356634894484188
E1 = -467.06489316438604  Ecoul = 201.6845465873234  Exc = -25.356634894484188
init E= -158.909677454336
    CPU time for initialize scf     71.87 sec, wall time      1.68 sec
  HOMO = -0.408223206304717  LUMO = 0.0528460502319779
  mo_energy =
[-10.77036424 -10.77016767 -10.76677822 -10.7655293   -1.26412041
  -1.09618251  -0.90181339  -0.80843954  -0.62375483  -0.55738075
  -0.54469437  -0.53251017  -0.47145972  -0.44486364  -0.42916151
  -0.40886325  -0.40822321   0.05284605   0.07821059   0.10428116
   0.11648861   0.1266413    0.13518236   0.15634903   0.15943265
   0.16280808   0.17389172   0.17430095   0.18494497   0.19291587
   0.46955187   0.47642777   0.52121638   0.52405878   0.53472942
   0.56966884   0.57587723   0.60239132   0.61262142   0.70891797
   0.73780046   0.82268562   0.85882132   0.86885371   0.9049105
   0.92425444   0.93112768   0.95704577   0.96572073   0.9658978
   0.96890277   0.98472965   1.12305439   1.31706235   1.39120309
   1.5977619 ]
nelec by numeric integration = 33.99997163874496
    CPU time for vxc     58.94 sec, wall time      1.40 sec
 Exc = -12.410529117386321
 Exc = -25.676019396960136
E1 = -475.01114964366826  Ecoul = 210.61230367536731  Exc = -25.676019396960136
cycle= 1 E= -158.24756134805  delta_E= 0.662  |g|= 0.514  |ddm|= 2.94
    CPU time for cycle= 1     60.21 sec, wall time      1.43 sec
diis-norm(errvec)=0.877516
diis-c [-0.77003378  1.        ]
  HOMO = -0.267827682575565  LUMO = 0.16757498541144
  mo_energy =
[-10.35453816 -10.35424158 -10.32724956 -10.32724236  -0.80517888
  -0.7390768   -0.64711863  -0.60019351  -0.48252551  -0.4285128
  -0.42103964  -0.40896252  -0.35806023  -0.35247754  -0.33495078
  -0.31033706  -0.26782768   0.16757499   0.19758256   0.22184852
   0.23191967   0.25309792   0.27044856   0.27247478   0.27334251
   0.28885844   0.29610578   0.34163618   0.35082942   0.35997704
   0.61633489   0.64285674   0.65431026   0.66583512   0.67883861
   0.75024716   0.76218608   0.82607925   0.84460089   0.9072747
   0.94613533   1.00683498   1.03542411   1.05424374   1.09953208
   1.11152856   1.11375967   1.11594028   1.13603011   1.1449891
   1.15155449   1.17857611   1.26015228   1.48353256   1.55078818
   1.75047177]
nelec by numeric integration = 33.99996165736241
    CPU time for vxc     54.68 sec, wall time      1.28 sec
 Exc = -12.185551128939665
 Exc = -25.228524715208234
E1 = -469.2004349817182  Ecoul = 204.32826794653806  Exc = -25.228524715208234
cycle= 2 E= -158.273387733177  delta_E= -0.0258  |g|= 0.407  |ddm|= 0.831
    CPU time for cycle= 2     55.20 sec, wall time      1.29 sec
diis-norm(errvec)=0.673789
diis-c [-0.01397299  0.43274699  0.56725301]
  HOMO = -0.367266372940037  LUMO = 0.135120264770664
  mo_energy =
[-10.53516737 -10.53489063 -10.52018178 -10.52017416  -0.89690852
  -0.81980417  -0.71848373  -0.66605176  -0.54988433  -0.49694022
  -0.48418756  -0.48090457  -0.43122958  -0.41844393  -0.39246755
  -0.39026274  -0.36726637   0.13512026   0.16718973   0.18524673
   0.19876745   0.21742401   0.23653157   0.23879693   0.24168509
   0.25371203   0.2572699    0.2881272    0.29225432   0.29358269
   0.56201025   0.57908888   0.60523358   0.61652382   0.61923419
   0.68082885   0.70173704   0.7237262    0.74681796   0.83021112
   0.86831536   0.94143021   0.98905941   0.9904107    1.04116586
   1.05776966   1.06132736   1.07043997   1.08762404   1.09548249
   1.09971379   1.1149481    1.22384364   1.42702008   1.49614657
   1.6997666 ]
nelec by numeric integration = 33.9999673388858
    CPU time for vxc     50.48 sec, wall time      1.19 sec
 Exc = -12.296279749649166
 Exc = -25.449474080793493
E1 = -472.018988061787  Ecoul = 207.32362284913336  Exc = -25.449474080793493
cycle= 3 E= -158.317535276236  delta_E= -0.0441  |g|= 0.0214  |ddm|= 0.399
    CPU time for cycle= 3     50.94 sec, wall time      1.20 sec
diis-norm(errvec)=0.0369976
diis-c [-3.03104809e-04 -3.96024218e-02 -1.19735978e-03  1.04079978e+00]
  HOMO = -0.363346398409166  LUMO = 0.137926259127388
  mo_energy =
[-10.5213543  -10.52107512 -10.51753894 -10.51753288  -0.89119088
  -0.81639498  -0.71487353  -0.66116268  -0.54559825  -0.49395603
  -0.48152259  -0.47840754  -0.42841252  -0.4156103   -0.38839731
  -0.38609514  -0.3633464    0.13792626   0.16930969   0.18822447
   0.20159863   0.21954286   0.23898115   0.24167119   0.24400697
   0.25632799   0.2603766    0.29236256   0.29517172   0.29782772
   0.56524841   0.58181137   0.60745781   0.61977374   0.62347222
   0.68348403   0.70526244   0.72791433   0.75404472   0.83514733
   0.87409777   0.94468285   0.99342596   0.9955175    1.04521847
   1.06153856   1.06495334   1.07358823   1.09204169   1.0998163
   1.10270165   1.12005591   1.22821106   1.43056143   1.50035283
   1.70406603]
nelec by numeric integration = 33.999967121411196
    CPU time for vxc     52.49 sec, wall time      1.23 sec
 Exc = -12.291635061551748
 Exc = -25.440231939220944
E1 = -471.88841520859626  Ecoul = 207.18369017671392  Exc = -25.440231939220944
cycle= 4 E= -158.317652953892  delta_E= -0.000118  |g|= 0.00789  |ddm|= 0.027
    CPU time for cycle= 4     52.92 sec, wall time      1.24 sec
diis-norm(errvec)=0.0133234
diis-c [-1.26496328e-05 -2.58216682e-02 -1.08179554e-02  4.54414000e-01
  5.82225623e-01]
  HOMO = -0.363849364629766  LUMO = 0.137740394516764
  mo_energy =
[-10.52464273 -10.5243624  -10.51477125 -10.51476383  -0.891896
  -0.81608514  -0.71478046  -0.661825    -0.54620054  -0.49394595
  -0.48130462  -0.47816982  -0.42832445  -0.41551864  -0.3890322
  -0.38672272  -0.36384936   0.13774039   0.16945483   0.18799866
   0.20138621   0.21964156   0.23899915   0.24159369   0.24405439
   0.25619      0.26007188   0.29199952   0.29506606   0.29735336
   0.56508935   0.58188063   0.60775711   0.61959133   0.62271284
   0.68395461   0.70509735   0.72818609   0.75266773   0.8345445
   0.87324378   0.94484431   0.99312549   0.99514838   1.04536849
   1.06184392   1.06521322   1.07390902   1.09194862   1.09975393
   1.10319492   1.11936003   1.22781583   1.43057263   1.49998331
   1.70366105]
nelec by numeric integration = 33.99996714867301
    CPU time for vxc     54.49 sec, wall time      1.28 sec
 Exc = -12.291612741911399
 Exc = -25.440160790534748
E1 = -471.8948780229786  Ecoul = 207.19006590426315  Exc = -25.440160790534748
cycle= 5 E= -158.317668892039  delta_E= -1.59e-05  |g|= 0.000625  |ddm|= 0.00702
    CPU time for cycle= 5     55.01 sec, wall time      1.29 sec
diis-norm(errvec)=0.00108134
diis-c [-1.28065594e-07  1.62696192e-03 -7.87416414e-05 -5.00974330e-02
  1.71932997e-02  1.03135591e+00]
  HOMO = -0.36387978910545  LUMO = 0.137694933950595
  mo_energy =
[-10.52446688 -10.5241864  -10.51494238 -10.51493499  -0.89187818
  -0.81614132  -0.71483968  -0.66183668  -0.54622616  -0.49400241
  -0.48139864  -0.47822365  -0.42840368  -0.4156086   -0.3890559
  -0.38675737  -0.36387979   0.13769493   0.16939173   0.18794823
   0.201343     0.21957558   0.23892717   0.24156176   0.24399723
   0.2561316    0.26002661   0.29199601   0.29501437   0.29733286
   0.56503578   0.58182863   0.60767758   0.61953728   0.62271945
   0.68387852   0.70505626   0.72816254   0.75274319   0.83454224
   0.87323908   0.94478623   0.99302406   0.99506575   1.04525578
   1.06168852   1.0651138    1.07378487   1.09180767   1.09962395
   1.10306724   1.11932728   1.22771091   1.43049971   1.49993606
   1.70361519]
nelec by numeric integration = 33.999967144466524
    CPU time for vxc     49.68 sec, wall time      1.09 sec
 Exc = -12.29159625180333
 Exc = -25.440125577376087
E1 = -471.894148869647  Ecoul = 207.18930141535023  Exc = -25.440125577376087
cycle= 6 E= -158.317669014462  delta_E= -1.22e-07  |g|= 2.8e-05  |ddm|= 0.00113
    CPU time for cycle= 6     50.23 sec, wall time      1.10 sec
diis-norm(errvec)=4.2275e-05
diis-c [-8.83335169e-10  2.12082215e-04  8.86148502e-05 -4.16338862e-03
 -3.68473422e-03  1.02184263e-02  9.97328999e-01]
  HOMO = -0.363878353421106  LUMO = 0.137702227504415
  mo_energy =
[-10.52446157 -10.52418109 -10.51494029 -10.51493289  -0.89187147
  -0.81613562  -0.71483038  -0.66182603  -0.546219    -0.49399797
  -0.48138923  -0.47822306  -0.42839628  -0.41559819  -0.38904714
  -0.38675081  -0.36387835   0.13770223   0.16939803   0.18795534
   0.20134941   0.21958073   0.23893446   0.24156563   0.24400312
   0.25613765   0.26003329   0.29200188   0.29502126   0.2973404
   0.56504416   0.58183529   0.60768302   0.61954414   0.6227241
   0.68388556   0.70506174   0.72816748   0.75274877   0.83454927
   0.8732447    0.94479188   0.99303304   0.99507553   1.04526349
   1.06170168   1.06511442   1.0737894    1.09182053   1.09963647
   1.10307601   1.11933479   1.22771969   1.43050946   1.49994449
   1.7036218 ]
nelec by numeric integration = 33.99996714485021
    CPU time for vxc     56.64 sec, wall time      1.32 sec
 Exc = -12.291594526630709
 Exc = -25.440121754183995
E1 = -471.8941308537881  Ecoul = 207.18927957593624  Exc = -25.440121754183995
cycle= 7 E= -158.317669014825  delta_E= -3.63e-10  |g|= 3.94e-06  |ddm|= 8.92e-05
    CPU time for cycle= 7     57.11 sec, wall time      1.33 sec
  HOMO = -0.363876649848031  LUMO = 0.137703073924306
  mo_energy =
[-10.52445966 -10.52417919 -10.51493953 -10.51493214  -0.89187012
  -0.81613425  -0.71482929  -0.66182475  -0.54621797  -0.49399654
  -0.48138859  -0.47822131  -0.4283952   -0.41559761  -0.38904601
  -0.38674967  -0.36387665   0.13770307   0.16939882   0.18795603
   0.20135034   0.21958174   0.2389351    0.24156698   0.24400406
   0.25613844   0.26003409   0.29200302   0.29502223   0.29734172
   0.56504488   0.58183613   0.60768403   0.61954517   0.62272564
   0.68388641   0.70506285   0.72816862   0.75275009   0.83455043
   0.87324602   0.9447929    0.99303461   0.99507653   1.04526488
   1.06170218   1.06511693   1.07379123   1.09182129   1.0996374
   1.10307706   1.11933632   1.22772115   1.43051021   1.49994552
   1.70362318]
nelec by numeric integration = 33.999967144722476
    CPU time for vxc     56.04 sec, wall time      1.31 sec
 Exc = -12.291593785637852
 Exc = -25.440120254915083
E1 = -471.89411654906314  Ecoul = 207.1892637719356  Exc = -25.440120254915083
Extra cycle  E= -158.317669014832  delta_E= -6.76e-12  |g|= 1.31e-06  |ddm|= 1.11e-05
    CPU time for scf_cycle    510.16 sec, wall time     11.89 sec
    CPU time for SCF    510.17 sec, wall time     11.89 sec
converged SCF energy = -158.317669014832
atom C rad-grids = 75, ang-grids = [ 50  50  50  50  50  50  50  50  50  50  50  50  50  50  50  50  50  50
  50  50  50  50  50  86  86  86  86  86  86  86  86  86  86 266 266 266
 266 266 266 266 302 302 302 302 302 302 302 302 302 302 302 302 302 302
 302 302 302 302 302 302 266 266 266 266 266 266 266 266 266 266 266 266
 266 266 266]
atom H rad-grids = 50, ang-grids = [ 50  50  50  50  50  50  50  50  50  50  50  50  50  50  86  86  86  86
 266 266 266 266 302 302 302 302 302 302 302 302 302 302 302 302 302 266
 266 266 266 266 266 266 266 266 266 266 266 266 266 266]
tot grids = 155848
