#INFO: **** input file is /home/wsr/dftpart/test_hfeda/test_c4h10_basis.py ****
from dftpart import scfeda

mollist = [
#'c12h26',
'c2h6','c4h10','c6h14',
'c8h18','c12h26',
'c10h22'
]
basislist = [
#'6-31g',
#'6-31gss','6-311gss','6-311+gss',
"6311g(2df,2pd)"
#'cc-pvdz','cc-pvtz',
#'def2-svp','def2-tzvp'
]
for mol in mollist:
    for basis in basislist:
        test1 = scfeda.EDA()
        test1.gjf = './'+mol+'.xyz'
        test1.method = ['m062x',basis]
        test1.output = mol.upper()+'_'+basis
        #test1.build()
        test1.kernel()
        

#INFO: ******************** input file end ********************


System: uname_result(system='Linux', node='lw06', release='3.10.0-957.el7.x86_64', version='#1 SMP Thu Nov 8 23:39:32 UTC 2018', machine='x86_64', processor='x86_64')  Threads 48
Python 3.7.3 (default, Mar 27 2019, 22:11:17) 
[GCC 7.3.0]
numpy 1.16.2  scipy 1.2.1
Date: Tue Jul 16 23:40:39 2019
PySCF version 1.6.2
PySCF path  /home/wsr/pyscf

[CONFIG] conf_file None
[INPUT] verbose = 4
[INPUT] num. atoms = 20
[INPUT] num. electrons = 50
[INPUT] charge = 0
[INPUT] spin (= nelec alpha-beta = 2S) = 0
[INPUT] symmetry False subgroup None
[INPUT] Mole.unit = angstrom
[INPUT]  1 C     -7.842326140000  -0.306396840000   1.374805980000 AA  -14.819848584117  -0.579006113032   2.598006776614 Bohr
[INPUT]  2 H     -7.485671720000  -1.315206840000   1.374805980000 AA  -14.145869409202  -2.485380724755   2.598006776614 Bohr
[INPUT]  3 H     -7.485653300000   0.198001350000   2.248457480000 AA  -14.145834600447   0.374168323794   4.248968839930 Bohr
[INPUT]  4 H     -8.912326140000  -0.306383660000   1.374805980000 AA  -16.841855537402  -0.578981206442   2.598006776614 Bohr
[INPUT]  5 C     -7.328983920000   0.419559430000   0.117401010000 AA  -13.849772380141   0.792852415679   0.221855755647 Bohr
[INPUT]  6 H     -7.687234850000   1.427803110000   0.116422260000 AA  -14.526768521712   2.698156837702   0.220006186203 Bohr
[INPUT]  7 H     -7.684058560000  -0.085967360000  -0.756249190000 AA  -14.520766203520  -0.162454766052  -1.429103851024 Bohr
[INPUT]  8 C     -5.788986470000   0.421978900000   0.118808280000 AA  -10.939598967113   0.797424551345   0.224515110531 Bohr
[INPUT]  9 H     -5.430736730000  -0.586264770000   0.120163980000 AA  -10.262605074316  -1.107879851781   0.227077012238 Bohr
[INPUT] 10 H     -5.433911940000   0.927831610000   0.992269850000 AA  -10.268605351604   1.753347632614   1.875118258163 Bohr
[INPUT] 11 C     -5.275643260000   1.147465740000  -1.138867190000 AA   -9.969520892308   2.168395985921  -2.152147081353 Bohr
[INPUT] 12 H     -5.633960990000   2.155685190000  -1.140263580000 AA  -10.646643267583   4.073654619881  -2.154785876016 Bohr
[INPUT] 13 H     -5.630650260000   0.641565680000  -2.012328790000 AA  -10.640386894611   1.212383426120  -3.802750285677 Bohr
[INPUT] 14 C     -3.735646030000   1.149987890000  -1.137400780000 AA   -7.059347895019   2.173162158666  -2.149375968067 Bohr
[INPUT] 15 H     -3.377329160000   0.141768150000  -1.135994420000 AA   -6.382227144907   0.267902976686  -2.146718332834 Bohr
[INPUT] 16 H     -3.380638810000   1.655896210000  -0.263944050000 AA   -6.388481476976   3.129190327605  -0.498781966709 Bohr
[INPUT] 17 C     -3.222302800000   1.875462950000  -2.395083040000 AA   -6.089269782419   3.544111332269  -4.526050991191 Bohr
[INPUT] 18 H     -3.580621950000   2.883681880000  -2.396489750000 AA   -6.766394841106   5.449368983571  -4.528709287827 Bohr
[INPUT] 19 H     -2.152304720000   1.877216870000  -2.394063290000 AA   -4.067266457409   3.547425760713  -4.524123942975 Bohr
[INPUT] 20 H     -3.577308360000   1.369553700000  -3.268539900000 AA   -6.760133063517   2.588081405885  -6.176645238213 Bohr

nuclear repulsion = 246.44696916288
number of shells = 144
number of NR pGTOs = 482
number of NR cGTOs = 376
basis = 6311g(2df,2pd)
ecp = {}
CPU time:      2636.99


******** <class 'pyscf.dft.rks.RKS'> ********
method = RKS-RHF
initial guess = minao
damping factor = 0
level shift factor = 0
DIIS = <class 'pyscf.scf.diis.CDIIS'>
DIIS start cycle = 1
DIIS space = 8
SCF tol = 1e-09
SCF gradient tol = None
max. SCF cycles = 50
direct_scf = True
direct_scf_tol = 1e-13
chkfile to save SCF result = /home/wsr/dftpart/test_hfeda/tmpmcazxyd7
max_memory 4000 MB (current use 481 MB)
XC functionals = m062x
small_rho_cutoff = 1e-07
radial grids: 
    Treutler-Ahlrichs (JCP 102, 346 (M4)) radial grids
    
becke partition: Becke, JCP, 88, 2547 (1988)
pruning grids: <function nwchem_prune at 0x2b97910d7488>
grids dens level: 3
symmetrized grids: False
atomic radii adjust function: <function treutler_atomic_radii_adjust at 0x2b97910d7400>
Set gradient conv threshold to 3.16228e-05
tot grids = 223748
init E= -237.948761637747
  HOMO = -0.39575962282194  LUMO = 0.0135163187624994
cycle= 1 E= -236.896413676276  delta_E= 1.05  |g|= 0.723  |ddm|= 2.51
  HOMO = -0.227703176049575  LUMO = 0.0943620421340575
cycle= 2 E= -236.931214471246  delta_E= -0.0348  |g|= 0.592  |ddm|= 0.97
  HOMO = -0.346756518860822  LUMO = 0.0700790060186615
cycle= 3 E= -237.019128662151  delta_E= -0.0879  |g|= 0.0247  |ddm|= 0.48
  HOMO = -0.344074837359926  LUMO = 0.0721537925829508
cycle= 4 E= -237.019269257016  delta_E= -0.000141  |g|= 0.0134  |ddm|= 0.0306
  HOMO = -0.34500518827796  LUMO = 0.0719284645353554
cycle= 5 E= -237.019310485634  delta_E= -4.12e-05  |g|= 0.00334  |ddm|= 0.0119
  HOMO = -0.344879141500625  LUMO = 0.0719475138258237
cycle= 6 E= -237.019313047155  delta_E= -2.56e-06  |g|= 0.000501  |ddm|= 0.00241
  HOMO = -0.344920041854484  LUMO = 0.0719398703053818
cycle= 7 E= -237.019313104891  delta_E= -5.77e-08  |g|= 0.000166  |ddm|= 0.000586
  HOMO = -0.344919062545488  LUMO = 0.0719422404860879
cycle= 8 E= -237.01931311079  delta_E= -5.9e-09  |g|= 4.81e-05  |ddm|= 0.000146
  HOMO = -0.344920040032465  LUMO = 0.0719425709330829
cycle= 9 E= -237.019313111337  delta_E= -5.46e-10  |g|= 6.1e-06  |ddm|= 3.7e-05
  HOMO = -0.34492062625309  LUMO = 0.0719425790031846
Extra cycle  E= -237.019313111341  delta_E= -4.43e-12  |g|= 4.08e-06  |ddm|= 9.05e-06
converged SCF energy = -237.019313111341
tot grids = 223748
