#INFO: **** input file is /home/wsr/dftpart/test_hfeda/test_new.py ****
from dftpart import scfeda

ok = ['FAIL','OK']
mollist = [
#'c12h26',
'c2h6',
'c4h10','c6h14',
'c8h18','c12h26',
'c10h22'
]
basislist = [
#'6-31g',
'6-31gss','6-311gss','6-311+gss',
#"6311g(2df,2pd)"
'cc-pvdz','cc-pvtz',
'def2-svp','def2-tzvp'
]
with open("CH3_new.txt",'a') as f:
    for basis in basislist:
        for mol in mollist:
            test1 = scfeda.EDA()
            test1.gjf = './'+mol+'.xyz'
            test1.method = ['m062x',basis]
            test1.output = mol.upper()+'_'+basis+'_new'
            #test1.build()
            atme, tote, conv = test1.kernel()
            CH3E = atme[:4].sum()
            f.write("%s %.10f  %s\n" % (test1.output,CH3E,ok[conv]))
#INFO: ******************** input file end ********************


System: uname_result(system='Linux', node='lw06', release='3.10.0-957.el7.x86_64', version='#1 SMP Thu Nov 8 23:39:32 UTC 2018', machine='x86_64', processor='x86_64')  Threads 48
Python 3.7.3 (default, Mar 27 2019, 22:11:17) 
[GCC 7.3.0]
numpy 1.16.2  scipy 1.2.1
Date: Sun Jul 21 06:48:35 2019
PySCF version 1.6.2
PySCF path  /home/wsr/pyscf

[CONFIG] conf_file None
[INPUT] verbose = 4
[INPUT] num. atoms = 20
[INPUT] num. electrons = 50
[INPUT] charge = 0
[INPUT] spin (= nelec alpha-beta = 2S) = 0
[INPUT] symmetry False subgroup None
[INPUT] Mole.unit = angstrom
[INPUT]  1 C     -7.842326140000  -0.306396840000   1.374805980000 AA  -14.819848584117  -0.579006113032   2.598006776614 Bohr
[INPUT]  2 H     -7.485671720000  -1.315206840000   1.374805980000 AA  -14.145869409202  -2.485380724755   2.598006776614 Bohr
[INPUT]  3 H     -7.485653300000   0.198001350000   2.248457480000 AA  -14.145834600447   0.374168323794   4.248968839930 Bohr
[INPUT]  4 H     -8.912326140000  -0.306383660000   1.374805980000 AA  -16.841855537402  -0.578981206442   2.598006776614 Bohr
[INPUT]  5 C     -7.328983920000   0.419559430000   0.117401010000 AA  -13.849772380141   0.792852415679   0.221855755647 Bohr
[INPUT]  6 H     -7.687234850000   1.427803110000   0.116422260000 AA  -14.526768521712   2.698156837702   0.220006186203 Bohr
[INPUT]  7 H     -7.684058560000  -0.085967360000  -0.756249190000 AA  -14.520766203520  -0.162454766052  -1.429103851024 Bohr
[INPUT]  8 C     -5.788986470000   0.421978900000   0.118808280000 AA  -10.939598967113   0.797424551345   0.224515110531 Bohr
[INPUT]  9 H     -5.430736730000  -0.586264770000   0.120163980000 AA  -10.262605074316  -1.107879851781   0.227077012238 Bohr
[INPUT] 10 H     -5.433911940000   0.927831610000   0.992269850000 AA  -10.268605351604   1.753347632614   1.875118258163 Bohr
[INPUT] 11 C     -5.275643260000   1.147465740000  -1.138867190000 AA   -9.969520892308   2.168395985921  -2.152147081353 Bohr
[INPUT] 12 H     -5.633960990000   2.155685190000  -1.140263580000 AA  -10.646643267583   4.073654619881  -2.154785876016 Bohr
[INPUT] 13 H     -5.630650260000   0.641565680000  -2.012328790000 AA  -10.640386894611   1.212383426120  -3.802750285677 Bohr
[INPUT] 14 C     -3.735646030000   1.149987890000  -1.137400780000 AA   -7.059347895019   2.173162158666  -2.149375968067 Bohr
[INPUT] 15 H     -3.377329160000   0.141768150000  -1.135994420000 AA   -6.382227144907   0.267902976686  -2.146718332834 Bohr
[INPUT] 16 H     -3.380638810000   1.655896210000  -0.263944050000 AA   -6.388481476976   3.129190327605  -0.498781966709 Bohr
[INPUT] 17 C     -3.222302800000   1.875462950000  -2.395083040000 AA   -6.089269782419   3.544111332269  -4.526050991191 Bohr
[INPUT] 18 H     -3.580621950000   2.883681880000  -2.396489750000 AA   -6.766394841106   5.449368983571  -4.528709287827 Bohr
[INPUT] 19 H     -2.152304720000   1.877216870000  -2.394063290000 AA   -4.067266457409   3.547425760713  -4.524123942975 Bohr
[INPUT] 20 H     -3.577308360000   1.369553700000  -3.268539900000 AA   -6.760133063517   2.588081405885  -6.176645238213 Bohr

nuclear repulsion = 246.44696916288
number of shells = 116
number of NR pGTOs = 322
number of NR cGTOs = 216
basis = 6-311+gss
ecp = {}
CPU time:     30384.90


******** <class 'pyscf.dft.rks.RKS'> ********
method = RKS-RHF
initial guess = minao
damping factor = 0
level shift factor = 0
DIIS = <class 'pyscf.scf.diis.CDIIS'>
DIIS start cycle = 1
DIIS space = 8
SCF tol = 1e-09
SCF gradient tol = None
max. SCF cycles = 50
direct_scf = True
direct_scf_tol = 1e-13
chkfile to save SCF result = /home/wsr/dftpart/test_hfeda/tmpplga1gxh
max_memory 4000 MB (current use 1027 MB)
XC functionals = m062x
small_rho_cutoff = 1e-07
radial grids: 
    Treutler-Ahlrichs (JCP 102, 346 (M4)) radial grids
    
becke partition: Becke, JCP, 88, 2547 (1988)
pruning grids: <function nwchem_prune at 0x2abf1e1291e0>
grids dens level: 3
symmetrized grids: False
atomic radii adjust function: <function treutler_atomic_radii_adjust at 0x2abf1e129158>
Set gradient conv threshold to 3.16228e-05
tot grids = 223748
init E= -237.948045509983
  HOMO = -0.395298402204222  LUMO = -0.00811928219638078
cycle= 1 E= -236.885829856736  delta_E= 1.06  |g|= 0.698  |ddm|= 4.41
  HOMO = -0.231084988767807  LUMO = 0.0288494076149354
cycle= 2 E= -236.917685943671  delta_E= -0.0319  |g|= 0.574  |ddm|= 2.53
  HOMO = -0.347775317351955  LUMO = 0.0196071852128112
cycle= 3 E= -237.002288554846  delta_E= -0.0846  |g|= 0.0234  |ddm|= 1.34
  HOMO = -0.344400871167903  LUMO = 0.0200372310402683
cycle= 4 E= -237.002418004736  delta_E= -0.000129  |g|= 0.0133  |ddm|= 0.0697
  HOMO = -0.345392964789916  LUMO = 0.0199820550838201
cycle= 5 E= -237.002459733548  delta_E= -4.17e-05  |g|= 0.00285  |ddm|= 0.0403
  HOMO = -0.345311712155526  LUMO = 0.0199845732709528
cycle= 6 E= -237.002461653963  delta_E= -1.92e-06  |g|= 0.000449  |ddm|= 0.0108
  HOMO = -0.34534083527193  LUMO = 0.0199840651348494
cycle= 7 E= -237.002461704281  delta_E= -5.03e-08  |g|= 0.000155  |ddm|= 0.00388
  HOMO = -0.345336634882897  LUMO = 0.0199849401791465
cycle= 8 E= -237.002461709897  delta_E= -5.62e-09  |g|= 3.72e-05  |ddm|= 0.000672
  HOMO = -0.345336158719353  LUMO = 0.0199852944803779
cycle= 9 E= -237.002461710254  delta_E= -3.57e-10  |g|= 4.48e-06  |ddm|= 0.000203
  HOMO = -0.34533613712057  LUMO = 0.0199853196288527
Extra cycle  E= -237.002461710259  delta_E= -5.12e-12  |g|= 2.53e-06  |ddm|= 2.97e-05
converged SCF energy = -237.002461710259
tot grids = 223748
