#INFO: **** input file is /home/wsr/dftpart/test_hfeda/test_c4h10_basis.py ****
from dftpart import scfeda

mollist = [
#'c12h26'
#'c2h6','c4h10','c6h14'
'c8h18','c12h26'
]
basislist = [
'6-31g',
'6-31gss','6-311gss','6-311+gss',
'cc-pvdz','cc-pvtz',
'def2-svp','def2-tzvp']
for mol in mollist:
    for basis in basislist:
        test1 = scfeda.EDA()
        test1.gjf = './'+mol+'.xyz'
        test1.method = ['m062x',basis]
        test1.output = mol.upper()+'_'+basis
        #test1.build()
        test1.kernel()
        

#INFO: ******************** input file end ********************


System: uname_result(system='Linux', node='lw06', release='3.10.0-957.el7.x86_64', version='#1 SMP Thu Nov 8 23:39:32 UTC 2018', machine='x86_64', processor='x86_64')  Threads 48
Python 3.7.3 (default, Mar 27 2019, 22:11:17) 
[GCC 7.3.0]
numpy 1.16.2  scipy 1.2.1
Date: Fri Jul 12 10:09:01 2019
PySCF version 1.6.2
PySCF path  /home/wsr/pyscf

[CONFIG] conf_file None
[INPUT] verbose = 4
[INPUT] num. atoms = 26
[INPUT] num. electrons = 66
[INPUT] charge = 0
[INPUT] spin (= nelec alpha-beta = 2S) = 0
[INPUT] symmetry False subgroup None
[INPUT] Mole.unit = angstrom
[INPUT]  1 C     -7.760571710000  -0.690679840000   0.714187300000 AA  -14.665355101948  -1.305195737358   1.349618398643 Bohr
[INPUT]  2 H     -7.403917290000  -1.699489840000   0.714187300000 AA  -13.991375927032  -3.211570349081   1.349618398643 Bohr
[INPUT]  3 H     -7.403898870000  -0.186281650000   1.587838800000 AA  -13.991341118277  -0.352021300532   3.000580461958 Bohr
[INPUT]  4 H     -8.830571710000  -0.690666660000   0.714187300000 AA  -16.687362055232  -1.305170830768   1.349618398643 Bohr
[INPUT]  5 C     -7.247229490000   0.035276430000  -0.543217670000 AA  -13.695278897971   0.066662791352  -1.026532622324 Bohr
[INPUT]  6 H     -7.605480420000   1.043520110000  -0.544196420000 AA  -14.372275039542   1.971967213376  -1.028382191769 Bohr
[INPUT]  7 H     -7.602304130000  -0.470250360000  -1.416867870000 AA  -14.366272721350  -0.888644390378  -2.677492228996 Bohr
[INPUT]  8 C     -5.707232040000   0.037695900000  -0.541810400000 AA  -10.785105484943   0.071234927019  -1.023873267441 Bohr
[INPUT]  9 H     -5.348982300000  -0.970547770000  -0.540454700000 AA  -10.108111592146  -1.834069476107  -1.021311365734 Bohr
[INPUT] 10 H     -5.352157510000   0.543548610000   0.331651170000 AA  -10.114111869434   1.027158008288   0.626729880192 Bohr
[INPUT] 11 C     -5.193888830000   0.763182740000  -1.799485870000 AA   -9.815027410138   1.442206361595  -3.400535459325 Bohr
[INPUT] 12 H     -5.552206560000   1.771402190000  -1.800882260000 AA  -10.492149785414   3.347464995555  -3.403174253988 Bohr
[INPUT] 13 H     -5.548895830000   0.257282680000  -2.672947470000 AA  -10.485893412441   0.486193801794  -5.051138663649 Bohr
[INPUT] 14 C     -3.653891600000   0.765704890000  -1.798019450000 AA   -6.904854412849   1.446972534340  -3.397764327141 Bohr
[INPUT] 15 H     -3.295574730000  -0.242514850000  -1.796613100000 AA   -6.227733662737  -0.458286647640  -3.395106710806 Bohr
[INPUT] 16 H     -3.298884380000   1.271613210000  -0.924562730000 AA   -6.233987994806   2.403000703279  -1.747170344680 Bohr
[INPUT] 17 C     -3.140548370000   1.491179950000  -3.055701710000 AA   -5.934776300249   2.817921707943  -5.774439350265 Bohr
[INPUT] 18 H     -3.498867520000   2.499398880000  -3.057108420000 AA   -6.611901358936   4.723179359245  -5.777097646902 Bohr
[INPUT] 19 H     -3.495553930000   0.985270700000  -3.929158570000 AA   -6.605639581347   1.861891781559  -7.425033597288 Bohr
[INPUT] 20 C     -1.600551140000   1.493704280000  -3.054234050000 AA   -3.024603302960   2.822692000291  -5.771665874821 Bohr
[INPUT] 21 H     -1.242232840000   0.485485050000  -3.052828560000 AA   -2.347479850541   0.917433782071  -5.769009883650 Bohr
[INPUT] 22 H     -1.245545350000   1.999612100000  -2.180776450000 AA   -2.353739587226   3.778719224366  -4.121070229401 Bohr
[INPUT] 23 C     -1.087207910000   2.219181520000  -4.311915050000 AA   -2.054525190361   4.193645293496  -8.148338516890 Bohr
[INPUT] 24 H     -1.445525630000   3.227400960000  -4.313319140000 AA   -2.731647546739   6.098903908558  -8.150991862445 Bohr
[INPUT] 25 H     -0.017209830000   2.220933910000  -4.310896180000 AA   -0.032521865350   4.196956830659  -8.146413131634 Bohr
[INPUT] 26 H     -1.442214910000   1.713274800000  -5.185372790000 AA   -2.725391192664   3.237620148119  -9.798934426872 Bohr

nuclear repulsion = 378.357834541918
number of shells = 76
number of NR pGTOs = 248
number of NR cGTOs = 108
basis = 6-31g
ecp = {}
CPU time:         0.49


******** <class 'pyscf.dft.rks.RKS'> ********
method = RKS-RHF
initial guess = minao
damping factor = 0
level shift factor = 0
DIIS = <class 'pyscf.scf.diis.CDIIS'>
DIIS start cycle = 1
DIIS space = 8
SCF tol = 1e-09
SCF gradient tol = None
max. SCF cycles = 50
direct_scf = True
direct_scf_tol = 1e-13
chkfile to save SCF result = /home/wsr/dftpart/test_hfeda/tmp1tcildvo
max_memory 4000 MB (current use 58 MB)
XC functionals = m062x
small_rho_cutoff = 1e-07
radial grids: 
    Treutler-Ahlrichs (JCP 102, 346 (M4)) radial grids
    
becke partition: Becke, JCP, 88, 2547 (1988)
pruning grids: <function nwchem_prune at 0x2b1a9ed75378>
grids dens level: 3
symmetrized grids: False
atomic radii adjust function: <function treutler_atomic_radii_adjust at 0x2b1a9ed752f0>
Set gradient conv threshold to 3.16228e-05
tot grids = 291648
init E= -316.996675950465
  HOMO = -0.382538470103569  LUMO = 0.0448100403557623
cycle= 1 E= -315.321427650419  delta_E= 1.68  |g|= 0.681  |ddm|= 4.12
  HOMO = -0.222379252580125  LUMO = 0.161159136450431
cycle= 2 E= -315.373078897197  delta_E= -0.0517  |g|= 0.526  |ddm|= 1.16
  HOMO = -0.331441394888513  LUMO = 0.127436576869135
cycle= 3 E= -315.446733433227  delta_E= -0.0737  |g|= 0.0268  |ddm|= 0.542
  HOMO = -0.328430837000255  LUMO = 0.129860396748853
cycle= 4 E= -315.446947236907  delta_E= -0.000214  |g|= 0.00567  |ddm|= 0.0373
  HOMO = -0.328523291846676  LUMO = 0.129813497001714
cycle= 5 E= -315.446955191829  delta_E= -7.95e-06  |g|= 0.00133  |ddm|= 0.00642
  HOMO = -0.32857744024654  LUMO = 0.129770420865455
cycle= 6 E= -315.446955680279  delta_E= -4.88e-07  |g|= 0.000112  |ddm|= 0.0019
  HOMO = -0.328562446465219  LUMO = 0.12978216275738
cycle= 7 E= -315.446955683155  delta_E= -2.88e-09  |g|= 5.78e-05  |ddm|= 0.00022
  HOMO = -0.328566201120579  LUMO = 0.129781385369907
cycle= 8 E= -315.446955684042  delta_E= -8.86e-10  |g|= 5.05e-06  |ddm|= 6.55e-05
  HOMO = -0.32856475992866  LUMO = 0.129782086173912
Extra cycle  E= -315.446955684044  delta_E= -2.5e-12  |g|= 3.32e-06  |ddm|= 1.35e-05
converged SCF energy = -315.446955684044
tot grids = 291648
