#INFO: **** input file is /home/wsr/dftpart/test_hfeda/watercl/test_wcl.py ****
from dftpart import scfeda

mollist = ['5','6','7','8','9'
#,'c4h10','c6h14'
]
basislist = [
#'6-31g',
'6-31gss','6-311gss',
#'6-311+gss',
#'cc-pvdz','cc-pvtz',
#'def2-svp','def2-tzvp'
]
for mol in mollist:
    for basis in basislist:
        test1 = scfeda.EDA()
        test1.gjf = './TIP4P-'+mol+'.xyz'
        test1.method = ['m062x',basis]
        test1.output = mol.upper()+'_'+basis
        #test1.build()
        test1.kernel()

#INFO: ******************** input file end ********************


System: uname_result(system='Linux', node='lw06', release='3.10.0-957.el7.x86_64', version='#1 SMP Thu Nov 8 23:39:32 UTC 2018', machine='x86_64', processor='x86_64')  Threads 48
Python 3.7.3 (default, Mar 27 2019, 22:11:17) 
[GCC 7.3.0]
numpy 1.16.2  scipy 1.2.1
Date: Thu Jul 11 16:37:11 2019
PySCF version 1.6.2
PySCF path  /home/wsr/pyscf

[CONFIG] conf_file None
[INPUT] verbose = 4
[INPUT] num. atoms = 24
[INPUT] num. electrons = 80
[INPUT] charge = 0
[INPUT] spin (= nelec alpha-beta = 2S) = 0
[INPUT] symmetry False subgroup None
[INPUT] Mole.unit = angstrom
[INPUT]  1 O     -0.105589700000   2.452089100000  -0.009545500000 AA   -0.199535614575   4.633776832031  -0.018038380722 Bohr
[INPUT]  2 H     -0.227098100000   3.368227600000   0.239769600000 AA   -0.429153212409   6.365027689201   0.453098876997 Bohr
[INPUT]  3 H     -0.372430700000   1.955444100000   0.763999300000 AA   -0.703792023380   3.695253800897   1.443749436359 Bohr
[INPUT]  4 O      0.881141800000  -0.811446400000  -2.142224700000 AA    1.665116678906  -1.533411460764  -4.048217980279 Bohr
[INPUT]  5 H      1.431047700000  -0.970124500000  -2.909464400000 AA    2.704288224189  -1.833269611731  -5.498090885172 Bohr
[INPUT]  6 H      1.401893600000  -0.228043600000  -1.590236800000 AA    2.649194959781  -0.430939948460  -3.005112025205 Bohr
[INPUT]  7 O      1.490698200000  -0.769885200000   1.791389800000 AA    2.817011332382  -1.454872175356   3.385236104339 Bohr
[INPUT]  8 H      1.038335800000  -1.398883900000   1.229285900000 AA    1.962170287331  -2.643507451063   2.323013679789 Bohr
[INPUT]  9 H      1.989884800000  -1.310648900000   2.403451400000 AA    3.760337291435  -2.476767466462   4.541864899702 Bohr
[INPUT] 10 O     -1.419403600000   0.662805300000  -1.678489000000 AA   -2.682284064222   1.252520490910  -3.171884513095 Bohr
[INPUT] 11 H     -0.675856800000   0.159348400000  -2.010002600000 AA   -1.277184251425   0.301124834388  -3.798354423664 Bohr
[INPUT] 12 H     -1.022602900000   1.406931600000  -1.225656500000 AA   -1.932439415186   2.658715399996  -2.316155107793 Bohr
[INPUT] 13 O      2.105094400000   0.826096400000  -0.396846100000 AA    3.978051882356   1.561095948489  -0.749930442602 Bohr
[INPUT] 14 H      2.060079600000   0.328067300000   0.419348000000 AA    3.892986238804   0.619957347426   0.792452870884 Bohr
[INPUT] 15 H      1.456713300000   1.522008200000  -0.289418400000 AA    2.752789179011   2.876178657342  -0.546921511410 Bohr
[INPUT] 16 O     -0.780604000000   0.803963700000   2.003907000000 AA   -1.475127771740   1.519271207092   3.786835409099 Bohr
[INPUT] 17 H      0.014660800000   0.281478100000   2.107804500000 AA    0.027704896767   0.531916519063   3.983173229126 Bohr
[INPUT] 18 H     -1.404218600000   0.211056700000   1.584624200000 AA   -2.653588573020   0.398839359754   2.994505748358 Bohr
[INPUT] 19 O     -2.266250300000  -0.870757500000   0.360380300000 AA   -4.282592396713  -1.645493195911   0.681020067689 Bohr
[INPUT] 20 H     -3.193834700000  -1.087454300000   0.266243500000 AA   -6.035472870132  -2.054990799981   0.503127297446 Bohr
[INPUT] 21 H     -2.067798700000  -0.328516600000  -0.403048500000 AA   -3.907573223732  -0.620806401373  -0.761651279917 Bohr
[INPUT] 22 O      0.094913300000  -2.292865400000   0.071428100000 AA    0.179360142579  -4.332887646491   0.134979546598 Bohr
[INPUT] 23 H     -0.795517200000  -1.962834700000   0.191616300000 AA   -1.503309635381  -3.709220010793   0.362102328002 Bohr
[INPUT] 24 H      0.366741900000  -1.946055600000  -0.778315500000 AA    0.693041749403  -3.677512107176  -1.470803133504 Bohr

nuclear repulsion = 517.238664990377
number of shells = 96
number of NR pGTOs = 328
number of NR cGTOs = 192
basis = 6-31gss
ecp = {}
CPU time:      7811.92


******** <class 'pyscf.dft.rks.RKS'> ********
method = RKS-RHF
initial guess = minao
damping factor = 0
level shift factor = 0
DIIS = <class 'pyscf.scf.diis.CDIIS'>
DIIS start cycle = 1
DIIS space = 8
SCF tol = 1e-09
SCF gradient tol = None
max. SCF cycles = 50
direct_scf = True
direct_scf_tol = 1e-13
chkfile to save SCF result = /home/wsr/dftpart/test_hfeda/watercl/tmp5gt_e08m
max_memory 4000 MB (current use 1023 MB)
XC functionals = m062x
small_rho_cutoff = 1e-07
radial grids: 
    Treutler-Ahlrichs (JCP 102, 346 (M4)) radial grids
    
becke partition: Becke, JCP, 88, 2547 (1988)
pruning grids: <function nwchem_prune at 0x2b5a55b6b598>
grids dens level: 3
symmetrized grids: False
atomic radii adjust function: <function treutler_atomic_radii_adjust at 0x2b5a55b6b510>
Set gradient conv threshold to 3.16228e-05
tot grids = 274480
init E= -610.955525689314
  HOMO = -0.455163742478189  LUMO = -0.0171960002397053
cycle= 1 E= -610.900220668331  delta_E= 0.0553  |g|= 1.36  |ddm|= 3.41
  HOMO = -0.261188605017307  LUMO = 0.11070636532545
cycle= 2 E= -610.953975289185  delta_E= -0.0538  |g|= 1.27  |ddm|= 1.56
  HOMO = -0.376912646951142  LUMO = 0.0819476391046266
cycle= 3 E= -611.231882105902  delta_E= -0.278  |g|= 0.05  |ddm|= 0.783
  HOMO = -0.372138677048861  LUMO = 0.0864888373046751
cycle= 4 E= -611.232335252637  delta_E= -0.000453  |g|= 0.00892  |ddm|= 0.0317
  HOMO = -0.373444044493387  LUMO = 0.0865683044304682
cycle= 5 E= -611.232344803402  delta_E= -9.55e-06  |g|= 0.00708  |ddm|= 0.00981
  HOMO = -0.373060539742998  LUMO = 0.0864916713718308
cycle= 6 E= -611.232353569461  delta_E= -8.77e-06  |g|= 0.000503  |ddm|= 0.00453
  HOMO = -0.373094270226672  LUMO = 0.0864869792289574
cycle= 7 E= -611.232353632462  delta_E= -6.3e-08  |g|= 6.29e-05  |ddm|= 0.000535
  HOMO = -0.373104940745678  LUMO = 0.0864805913533263
cycle= 8 E= -611.232353633797  delta_E= -1.33e-09  |g|= 1.84e-05  |ddm|= 8.46e-05
  HOMO = -0.373103625525956  LUMO = 0.0864817166556731
cycle= 9 E= -611.232353633893  delta_E= -9.64e-11  |g|= 3.16e-06  |ddm|= 2.29e-05
  HOMO = -0.373103049172417  LUMO = 0.0864819003982641
Extra cycle  E= -611.232353633895  delta_E= -1.59e-12  |g|= 2.57e-06  |ddm|= 3.75e-06
converged SCF energy = -611.232353633895
tot grids = 274480
