#INFO: **** input file is /home/wsr/dftpart/test_hfeda/watercl/test_wcl.py ****
from dftpart import scfeda

mollist = ['5','6','7'
#,'8','9'
#,'c4h10','c6h14'
]
basislist = [
#'6-31g',
'6-31gss','6-311gss',
#'6-311+gss',
'cc-pvdz','cc-pvtz',
'def2-svp','def2-tzvp'
]
for mol in mollist:
    for basis in basislist:
        test1 = scfeda.EDA()
        test1.gjf = './TIP4P-'+mol+'.xyz'
        test1.method = ['m062x',basis]
        test1.output = 'TIP4P-'+mol.upper()+'_'+basis
        #test1.build()
        test1.kernel()

#INFO: ******************** input file end ********************


System: uname_result(system='Linux', node='lw06', release='3.10.0-957.el7.x86_64', version='#1 SMP Thu Nov 8 23:39:32 UTC 2018', machine='x86_64', processor='x86_64')  Threads 48
Python 3.7.3 (default, Mar 27 2019, 22:11:17) 
[GCC 7.3.0]
numpy 1.16.2  scipy 1.2.1
Date: Fri Jul 12 11:21:58 2019
PySCF version 1.6.2
PySCF path  /home/wsr/pyscf

[CONFIG] conf_file None
[INPUT] verbose = 4
[INPUT] num. atoms = 21
[INPUT] num. electrons = 70
[INPUT] charge = 0
[INPUT] spin (= nelec alpha-beta = 2S) = 0
[INPUT] symmetry False subgroup None
[INPUT] Mole.unit = angstrom
[INPUT]  1 O      0.603463900000   2.550028200000   1.172091300000 AA    1.140381497062   4.818854907918   2.214931549985 Bohr
[INPUT]  2 H      0.366537400000   3.277181500000   1.747717800000 AA    0.692655300410   6.192975495491   3.302707985027 Bohr
[INPUT]  3 H     -0.234871600000   2.181476200000   0.893532400000 AA   -0.443842998438   4.122392565257   1.688531519425 Bohr
[INPUT]  4 O     -0.870207900000  -1.202491800000   1.564951300000 AA   -1.644454602433  -2.272380169035   2.957329355282 Bohr
[INPUT]  5 H     -1.261813300000  -1.826686900000   2.175899500000 AA   -2.384481557334  -3.451937956331   4.111854129578 Bohr
[INPUT]  6 H     -0.823918200000  -1.676305600000   0.734535900000 AA   -1.556979747045  -3.167758485075   1.388071679661 Bohr
[INPUT]  7 O      1.679101900000  -0.667391300000  -1.366780800000 AA    3.173042726237  -1.261186774917  -2.582841384314 Bohr
[INPUT]  8 H      2.590378900000  -0.738749000000  -1.650883700000 AA    4.895106679852  -1.396033284796  -3.119718056509 Bohr
[INPUT]  9 H      1.734020700000  -0.402805200000  -0.448516000000 AA    3.276824217327  -0.761191509551  -0.847572402485 Bohr
[INPUT] 10 O      1.617735200000   0.007332400000   1.228586500000 AA    3.057076470068   0.013856227836   2.321692005338 Bohr
[INPUT] 11 H      1.406343400000   0.939656100000   1.276733000000 AA    2.657603863090   1.775692680277   2.412675704194 Bohr
[INPUT] 12 H      0.822468000000  -0.434725600000   1.525852300000 AA    1.554239266219  -0.821512323337   2.883442953538 Bohr
[INPUT] 13 O     -0.610656300000  -2.256278600000  -0.905455000000 AA   -1.153973163240  -4.263748614717  -1.711061968118 Bohr
[INPUT] 14 H      0.308809200000  -2.046915800000  -1.069718200000 AA    0.583564812746  -3.868110262045  -2.021474428463 Bohr
[INPUT] 15 H     -1.098751800000  -1.619008600000  -1.426877800000 AA   -2.076339980873  -3.059482847316  -2.696408255222 Bohr
[INPUT] 16 O     -1.624471000000   1.217455300000   0.418842100000 AA   -3.069805287298   2.300657085900   0.791496858438 Bohr
[INPUT] 17 H     -1.444013100000   0.979840100000  -0.490666500000 AA   -2.728789279284   1.851629434866  -0.927225303499 Bohr
[INPUT] 18 H     -1.500492800000   0.404342700000   0.908443300000 AA   -2.835520443882   0.764096963467   1.716709036696 Bohr
[INPUT] 19 O     -0.807045800000   0.348711100000  -2.074444900000 AA   -1.525095531981   0.658968475596  -3.920132721501 Bohr
[INPUT] 20 H      0.106861000000   0.114942700000  -1.912091000000 AA    0.201938023397   0.217210223018  -3.613328315246 Bohr
[INPUT] 21 H     -0.779840600000   0.889572400000  -2.863723700000 AA   -1.473685154816   1.681048203972  -5.411653489426 Bohr

nuclear repulsion = 401.576475136813
number of shells = 84
number of NR pGTOs = 266
number of NR cGTOs = 168
basis = def2-svp
ecp = {}
CPU time:     29588.88


******** <class 'pyscf.dft.rks.RKS'> ********
method = RKS-RHF
initial guess = minao
damping factor = 0
level shift factor = 0
DIIS = <class 'pyscf.scf.diis.CDIIS'>
DIIS start cycle = 1
DIIS space = 8
SCF tol = 1e-09
SCF gradient tol = None
max. SCF cycles = 50
direct_scf = True
direct_scf_tol = 1e-13
chkfile to save SCF result = /home/wsr/dftpart/test_hfeda/watercl/tmpn43pbcr1
max_memory 4000 MB (current use 1128 MB)
XC functionals = m062x
small_rho_cutoff = 1e-07
radial grids: 
    Treutler-Ahlrichs (JCP 102, 346 (M4)) radial grids
    
becke partition: Becke, JCP, 88, 2547 (1988)
pruning grids: <function nwchem_prune at 0x2b291b4d6378>
grids dens level: 3
symmetrized grids: False
atomic radii adjust function: <function treutler_atomic_radii_adjust at 0x2b291b4d62f0>
Set gradient conv threshold to 3.16228e-05
tot grids = 240170
init E= -534.103349895609
  HOMO = -0.452914275931064  LUMO = -0.0217136908084615
cycle= 1 E= -534.10613347664  delta_E= -0.00278  |g|= 1.29  |ddm|= 3.58
  HOMO = -0.245639912250065  LUMO = 0.0797740958616895
cycle= 2 E= -534.141561145526  delta_E= -0.0354  |g|= 1.23  |ddm|= 1.62
  HOMO = -0.36433853160292  LUMO = 0.0591604813909773
cycle= 3 E= -534.403575635827  delta_E= -0.262  |g|= 0.0441  |ddm|= 0.809
  HOMO = -0.362679816891603  LUMO = 0.063179691675703
cycle= 4 E= -534.403910312687  delta_E= -0.000335  |g|= 0.00828  |ddm|= 0.0269
  HOMO = -0.362435818130251  LUMO = 0.063300895117538
cycle= 5 E= -534.40392153629  delta_E= -1.12e-05  |g|= 0.006  |ddm|= 0.0102
  HOMO = -0.362982086132576  LUMO = 0.0633306274007434
cycle= 6 E= -534.40392787984  delta_E= -6.34e-06  |g|= 0.000513  |ddm|= 0.00408
  HOMO = -0.362989754343927  LUMO = 0.0633241987141085
cycle= 7 E= -534.403927952109  delta_E= -7.23e-08  |g|= 0.000124  |ddm|= 0.000591
  HOMO = -0.362991005847475  LUMO = 0.0633216316028361
cycle= 8 E= -534.403927954643  delta_E= -2.53e-09  |g|= 7.38e-05  |ddm|= 0.000139
  HOMO = -0.362994600756148  LUMO = 0.0633226602852578
cycle= 9 E= -534.403927955697  delta_E= -1.05e-09  |g|= 8.5e-06  |ddm|= 5.78e-05
  HOMO = -0.362994218402761  LUMO = 0.063322863048364
cycle= 10 E= -534.403927955709  delta_E= -1.23e-11  |g|= 2.7e-06  |ddm|= 8.43e-06
  HOMO = -0.362994024389644  LUMO = 0.0633229143037429
Extra cycle  E= -534.403927955711  delta_E= -1.82e-12  |g|= 2.79e-06  |ddm|= 3.84e-06
converged SCF energy = -534.403927955711
tot grids = 240170
