#INFO: **** input file is /home/wsr/dftpart/test_hfeda/watercl/test_wcl.py ****
from dftpart import scfeda

mollist = [
#'5','6','7'
'8','9'
#,'c4h10','c6h14'
]
basislist = [
#'6-31g',
'6-31gss','6-311gss',
#'6-311+gss',
'cc-pvdz','cc-pvtz',
'def2-svp','def2-tzvp'
]
for mol in mollist:
    for basis in basislist:
        test1 = scfeda.EDA()
        test1.gjf = './TIP4P-'+mol+'.xyz'
        test1.method = ['m062x',basis]
        test1.output = 'TIP4P-'+mol.upper()+'_'+basis
        #test1.build()
        test1.kernel()

#INFO: ******************** input file end ********************


System: uname_result(system='Linux', node='lw06', release='3.10.0-957.el7.x86_64', version='#1 SMP Thu Nov 8 23:39:32 UTC 2018', machine='x86_64', processor='x86_64')  Threads 48
Python 3.7.3 (default, Mar 27 2019, 22:11:17) 
[GCC 7.3.0]
numpy 1.16.2  scipy 1.2.1
Date: Fri Jul 12 16:14:41 2019
PySCF version 1.6.2
PySCF path  /home/wsr/pyscf

[CONFIG] conf_file None
[INPUT] verbose = 4
[INPUT] num. atoms = 27
[INPUT] num. electrons = 90
[INPUT] charge = 0
[INPUT] spin (= nelec alpha-beta = 2S) = 0
[INPUT] symmetry False subgroup None
[INPUT] Mole.unit = angstrom
[INPUT]  1 O      0.409858400000  -3.173040700000   0.776362000000 AA    0.774520125852  -5.996177905098   1.467111553520 Bohr
[INPUT]  2 H      0.930140200000  -3.959017700000   0.943032200000 AA    1.757710235448  -7.481459175305   1.782072584646 Bohr
[INPUT]  3 H      1.055265600000  -2.498074600000   0.566356600000 AA    1.994162972675  -4.720676832732   1.070258862840 Bohr
[INPUT]  4 O     -1.237824700000   0.674557600000   1.772988900000 AA   -2.339149673222   1.274729119244   3.350463442894 Bohr
[INPUT]  5 H     -1.511302900000   1.281201400000   1.084930100000 AA   -2.855948572261   2.421119756409   2.050220753297 Bohr
[INPUT]  6 H     -1.499581200000  -0.187843900000   1.450531000000 AA   -2.833797769547  -0.354973525170   2.741106325191 Bohr
[INPUT]  7 O      2.109888800000  -1.171393000000   0.166682000000 AA    3.987111985287  -2.213611954233   0.314983329895 Bohr
[INPUT]  8 H      1.981035500000  -0.441414600000   0.772289400000 AA    3.743614538041  -0.834152701384   1.459415454905 Bohr
[INPUT]  9 H      1.891317600000  -0.811505300000  -0.692933900000 AA    3.574072278570  -1.533522765633  -1.309455293427 Bohr
[INPUT] 10 O     -1.867784800000  -1.727434900000   0.550687800000 AA   -3.529601731626  -3.264378859015   1.040649122139 Bohr
[INPUT] 11 H     -1.090409000000  -2.278375700000   0.642246800000 AA   -2.060574373761  -4.305506081864   1.213670556378 Bohr
[INPUT] 12 H     -2.600549600000  -2.312401000000   0.743308100000 AA   -4.914326517347  -4.369804580170   1.404648735171 Bohr
[INPUT] 13 O     -1.624648700000   2.256691400000  -0.470522300000 AA   -3.070141091631   4.264528693661  -0.889158282500 Bohr
[INPUT] 14 H     -0.681643800000   2.392680900000  -0.562612700000 AA   -1.288120096508   4.521511604478  -1.063183917202 Bohr
[INPUT] 15 H     -2.010283600000   3.111412500000  -0.662797400000 AA   -3.798885436705   5.879717485548  -1.252505562074 Bohr
[INPUT] 16 O     -1.452062600000  -0.209184200000  -1.725828900000 AA   -2.744000629724  -0.395300847586  -3.261343958859 Bohr
[INPUT] 17 H     -1.650001900000  -0.808336800000  -1.006059300000 AA   -3.118051696012  -1.527535168407  -1.901176542072 Bohr
[INPUT] 18 H     -1.662267000000   0.658466900000  -1.380535100000 AA   -3.141229375902   1.244322103091  -2.608833244349 Bohr
[INPUT] 19 O      1.436310000000   1.004389100000   1.736078800000 AA    2.714232529974   1.898020321498   3.280713462664 Bohr
[INPUT] 20 H      1.730434300000   1.261095700000   2.610049400000 AA    3.270046903553   2.383125489867   4.932278537585 Bohr
[INPUT] 21 H      0.494581900000   0.862272400000   1.831907700000 AA    0.934624337167   1.629458680771   3.461803838482 Bohr
[INPUT] 22 O      1.197965800000   0.021207800000  -2.156428600000 AA    2.263827268595   0.040076933705  -4.075059461179 Bohr
[INPUT] 23 H      0.255977400000  -0.121982500000  -2.064850800000 AA    0.483727180078  -0.230513516990  -3.902002500089 Bohr
[INPUT] 24 H      1.382329100000  -0.174855400000  -3.075015200000 AA    2.612223413017  -0.330428817401  -5.810936556875 Bohr
[INPUT] 25 O      1.055203600000   2.348515500000  -0.657807200000 AA    1.994045809655   4.438051094296  -1.243075450767 Bohr
[INPUT] 26 H      1.323832000000   2.005487000000   0.194485200000 AA    2.501679914935   3.789821176376   0.367523763281 Bohr
[INPUT] 27 H      1.234114100000   1.635396500000  -1.270738200000 AA    2.332137655464   3.090451490072  -2.401347174023 Bohr

nuclear repulsion = 618.927154606118
number of shells = 189
number of NR pGTOs = 666
number of NR cGTOs = 522
basis = cc-pvtz
ecp = {}
CPU time:     29145.24


******** <class 'pyscf.dft.rks.RKS'> ********
method = RKS-RHF
initial guess = minao
damping factor = 0
level shift factor = 0
DIIS = <class 'pyscf.scf.diis.CDIIS'>
DIIS start cycle = 1
DIIS space = 8
SCF tol = 1e-09
SCF gradient tol = None
max. SCF cycles = 50
direct_scf = True
direct_scf_tol = 1e-13
chkfile to save SCF result = /home/wsr/dftpart/test_hfeda/watercl/tmp63egoh5n
max_memory 4000 MB (current use 983 MB)
XC functionals = m062x
small_rho_cutoff = 1e-07
radial grids: 
    Treutler-Ahlrichs (JCP 102, 346 (M4)) radial grids
    
becke partition: Becke, JCP, 88, 2547 (1988)
pruning grids: <function nwchem_prune at 0x2b826a138378>
grids dens level: 3
symmetrized grids: False
atomic radii adjust function: <function treutler_atomic_radii_adjust at 0x2b826a1382f0>
Set gradient conv threshold to 3.16228e-05
tot grids = 308790
init E= -687.656641118084
  HOMO = -0.452054971833859  LUMO = -0.038820447165928
cycle= 1 E= -687.598742054822  delta_E= 0.0579  |g|= 1.51  |ddm|= 2.89
  HOMO = -0.26027717887293  LUMO = 0.0583013748602323
cycle= 2 E= -687.594115120634  delta_E= 0.00463  |g|= 1.59  |ddm|= 1.69
  HOMO = -0.382100816193544  LUMO = 0.0348870953746507
cycle= 3 E= -687.97956334925  delta_E= -0.385  |g|= 0.0556  |ddm|= 0.87
  HOMO = -0.380089714125528  LUMO = 0.0375548291370638
cycle= 4 E= -687.980020566985  delta_E= -0.000457  |g|= 0.0143  |ddm|= 0.0289
  HOMO = -0.381144620930154  LUMO = 0.0375284207250832
cycle= 5 E= -687.980038610172  delta_E= -1.8e-05  |g|= 0.0109  |ddm|= 0.0126
  HOMO = -0.381025284378662  LUMO = 0.0374387133459441
cycle= 6 E= -687.980057107894  delta_E= -1.85e-05  |g|= 0.000938  |ddm|= 0.00575
  HOMO = -0.381034504622188  LUMO = 0.0374552906480217
cycle= 7 E= -687.980057290061  delta_E= -1.82e-07  |g|= 0.000304  |ddm|= 0.00099
  HOMO = -0.381046141449946  LUMO = 0.0374478154325654
cycle= 8 E= -687.980057304405  delta_E= -1.43e-08  |g|= 0.000117  |ddm|= 0.00023
  HOMO = -0.381049492480508  LUMO = 0.0374470498406676
cycle= 9 E= -687.980057306731  delta_E= -2.33e-09  |g|= 3.22e-05  |ddm|= 9.19e-05
  HOMO = -0.381047079465334  LUMO = 0.0374480040151207
cycle= 10 E= -687.980057306925  delta_E= -1.94e-10  |g|= 5.08e-06  |ddm|= 2.45e-05
  HOMO = -0.381048087331605  LUMO = 0.0374479746403176
Extra cycle  E= -687.980057306923  delta_E= 1.36e-12  |g|= 5.18e-06  |ddm|= 6.03e-06
converged SCF energy = -687.980057306923
tot grids = 308790
