#INFO: **** input file is /home/wsr/dftpart/test_hfeda/alkane/test_alk.py ****
from dftpart import scfeda

mollist = [
#'c12h26'
#'c2h6',
'c4h10-i','c6h14-ia','c6h14-ib','c6h14-ic','c6h14-t'
#'c8h18','c12h26'
]
basislist = [
#'6-31g',
'6-31gss','6-311gss'#,'6-311+gss',
#'cc-pvdz'
,'cc-pvtz',
#'def2-svp','def2-tzvp'
]
for mol in mollist:
    for basis in basislist:
        test1 = scfeda.EDA()
        test1.gjf = './'+mol+'.gjf'
        test1.method = ['m062x',basis]
        test1.output = mol.upper()+'_'+basis
        #test1.build()
        test1.kernel()
        

#INFO: ******************** input file end ********************


System: uname_result(system='Linux', node='lw06', release='3.10.0-957.el7.x86_64', version='#1 SMP Thu Nov 8 23:39:32 UTC 2018', machine='x86_64', processor='x86_64')  Threads 48
Python 3.7.3 (default, Mar 27 2019, 22:11:17) 
[GCC 7.3.0]
numpy 1.16.2  scipy 1.2.1
Date: Fri Jul 12 14:16:47 2019
PySCF version 1.6.2
PySCF path  /home/wsr/pyscf

[CONFIG] conf_file None
[INPUT] verbose = 4
[INPUT] num. atoms = 14
[INPUT] num. electrons = 34
[INPUT] charge = 0
[INPUT] spin (= nelec alpha-beta = 2S) = 0
[INPUT] symmetry False subgroup None
[INPUT] Mole.unit = angstrom
[INPUT]  1 C     -2.749648430000  -1.202428580000  -0.015740650000 AA   -5.196082471540  -2.272260700550  -0.029745517523 Bohr
[INPUT]  2 H     -2.392994000000  -2.211238580000  -0.015740650000 AA   -4.522103277727  -4.178635312272  -0.029745517523 Bohr
[INPUT]  3 H     -2.392975590000  -0.698030390000  -0.889392160000 AA   -4.522068487869  -1.319086263723  -1.680707599735 Bohr
[INPUT]  4 H     -3.819648430000  -1.202415400000  -0.015740650000 AA   -7.218089424825  -2.272235793959  -0.029745517523 Bohr
[INPUT]  5 C     -2.236306210000  -0.476472310000   1.241664320000 AA   -4.226006267564  -0.900402171839   2.346405503444 Bohr
[INPUT]  6 H     -1.166308020000  -0.478179370000   1.242642670000 AA   -2.204002734684  -0.903628047717   2.348254316998 Bohr
[INPUT]  7 C     -2.747322190000   0.976270160000   1.240257610000 AA   -5.191686515040   1.844883225985   2.343747206808 Bohr
[INPUT]  8 H     -3.817319970000   0.977976110000   1.238902710000 AA   -7.213689273133   1.848107004268   2.341186816881 Bohr
[INPUT]  9 H     -2.390956750000   1.480560400000   2.114096860000 AA   -4.518253433180   2.797853666876   3.995064066203 Bohr
[INPUT] 10 H     -2.388746230000   1.479646570000   0.366795840000 AA   -4.514076155787   2.796126778452   0.693143681230 Bohr
[INPUT] 11 C     -2.751945650000  -1.200801940000   2.499067420000 AA   -5.200423588188  -2.269186796446   4.722552990623 Bohr
[INPUT] 12 H     -2.397098000000  -2.210248540000   2.499916420000 AA   -4.529858713743  -4.176764407820   4.724157368103 Bohr
[INPUT] 13 H     -2.395064230000  -0.696551230000   3.372718870000 AA   -4.526015445442  -1.316291056429   6.373514959453 Bohr
[INPUT] 14 H     -3.821943570000  -1.198873840000   2.498216780000 AA   -7.222426610842  -2.265543215506   4.720945513993 Bohr

nuclear repulsion = 135.637783870677
number of shells = 96
number of NR pGTOs = 328
number of NR cGTOs = 260
basis = cc-pvtz
ecp = {}
CPU time:      2000.05


******** <class 'pyscf.dft.rks.RKS'> ********
method = RKS-RHF
initial guess = minao
damping factor = 0
level shift factor = 0
DIIS = <class 'pyscf.scf.diis.CDIIS'>
DIIS start cycle = 1
DIIS space = 8
SCF tol = 1e-09
SCF gradient tol = None
max. SCF cycles = 50
direct_scf = True
direct_scf_tol = 1e-13
chkfile to save SCF result = /home/wsr/dftpart/test_hfeda/alkane/tmp5jev498a
max_memory 4000 MB (current use 267 MB)
XC functionals = m062x
small_rho_cutoff = 1e-07
radial grids: 
    Treutler-Ahlrichs (JCP 102, 346 (M4)) radial grids
    
becke partition: Becke, JCP, 88, 2547 (1988)
pruning grids: <function nwchem_prune at 0x2b1fbb370378>
grids dens level: 3
symmetrized grids: False
atomic radii adjust function: <function treutler_atomic_radii_adjust at 0x2b1fbb3702f0>
Set gradient conv threshold to 3.16228e-05
tot grids = 155848
init E= -158.971865843598
  HOMO = -0.413588259146545  LUMO = 0.0115111446508174
cycle= 1 E= -158.327241876492  delta_E= 0.645  |g|= 0.62  |ddm|= 2.53
  HOMO = -0.275226337582944  LUMO = 0.088316765178463
cycle= 2 E= -158.346625566248  delta_E= -0.0194  |g|= 0.533  |ddm|= 0.676
  HOMO = -0.381681268959142  LUMO = 0.0666806737756775
cycle= 3 E= -158.417593787118  delta_E= -0.071  |g|= 0.0357  |ddm|= 0.385
  HOMO = -0.377289777560724  LUMO = 0.0683294747210565
cycle= 4 E= -158.417835163654  delta_E= -0.000241  |g|= 0.0185  |ddm|= 0.0254
  HOMO = -0.377847921611962  LUMO = 0.0686805037962049
cycle= 5 E= -158.417912214497  delta_E= -7.71e-05  |g|= 0.00319  |ddm|= 0.0124
  HOMO = -0.377658447399979  LUMO = 0.0686953824605467
cycle= 6 E= -158.41791451544  delta_E= -2.3e-06  |g|= 0.000468  |ddm|= 0.00205
  HOMO = -0.377696821596937  LUMO = 0.0686818395010287
cycle= 7 E= -158.417914577666  delta_E= -6.22e-08  |g|= 7.39e-05  |ddm|= 0.000581
  HOMO = -0.377696975075943  LUMO = 0.0686837685440577
cycle= 8 E= -158.417914579432  delta_E= -1.77e-09  |g|= 1.18e-05  |ddm|= 0.00011
  HOMO = -0.37769728615702  LUMO = 0.068684262632011
cycle= 9 E= -158.417914579477  delta_E= -4.56e-11  |g|= 1.54e-06  |ddm|= 1.83e-05
  HOMO = -0.377697689506245  LUMO = 0.0686841699059206
Extra cycle  E= -158.417914579479  delta_E= -1.25e-12  |g|= 9.97e-07  |ddm|= 2.74e-06
converged SCF energy = -158.417914579479
tot grids = 155848
