#INFO: **** input file is /home/wsr/dftpart/test_hfeda/alkane/test_alk.py ****
from dftpart import scfeda

mollist = [
#'c12h26'
#'c2h6',
'c4h10-i','c6h14-ia','c6h14-ib','c6h14-ic','c6h14-t'
#'c8h18','c12h26'
]
basislist = [
#'6-31g',
'6-31gss','6-311gss'#,'6-311+gss',
#'cc-pvdz'
,'cc-pvtz',
#'def2-svp','def2-tzvp'
]
for mol in mollist:
    for basis in basislist:
        test1 = scfeda.EDA()
        test1.gjf = './'+mol+'.gjf'
        test1.method = ['m062x',basis]
        test1.output = mol.upper()+'_'+basis
        #test1.build()
        test1.kernel()
        

#INFO: ******************** input file end ********************


System: uname_result(system='Linux', node='lw06', release='3.10.0-957.el7.x86_64', version='#1 SMP Thu Nov 8 23:39:32 UTC 2018', machine='x86_64', processor='x86_64')  Threads 48
Python 3.7.3 (default, Mar 27 2019, 22:11:17) 
[GCC 7.3.0]
numpy 1.16.2  scipy 1.2.1
Date: Fri Jul 12 14:24:26 2019
PySCF version 1.6.2
PySCF path  /home/wsr/pyscf

[CONFIG] conf_file None
[INPUT] verbose = 4
[INPUT] num. atoms = 20
[INPUT] num. electrons = 50
[INPUT] charge = 0
[INPUT] spin (= nelec alpha-beta = 2S) = 0
[INPUT] symmetry False subgroup None
[INPUT] Mole.unit = angstrom
[INPUT]  1 C     -6.448111350000   0.175808720000  -0.084410400000 AA  -12.185164472199   0.332230331110  -0.159512538065 Bohr
[INPUT]  2 H     -6.091456930000  -0.833001280000  -0.084410400000 AA  -11.511185297284  -1.574144280612  -0.159512538065 Bohr
[INPUT]  3 H     -6.091438510000   0.680206910000   0.789241100000 AA  -11.511150488529   1.285404767937   1.491449525250 Bohr
[INPUT]  4 H     -7.518111350000   0.175821900000  -0.084410400000 AA  -14.207171425484   0.332255237701  -0.159512538065 Bohr
[INPUT]  5 C     -5.934769130000   0.901764990000  -1.341815370000 AA  -11.215088268223   1.704088859821  -2.535663559032 Bohr
[INPUT]  6 H     -6.289843770000   0.396238200000  -2.215465570000 AA  -11.886082091602   0.748781678091  -4.186623165703 Bohr
[INPUT]  7 C     -4.394771680000   0.904184460000  -1.340408100000 AA   -8.304914855195   1.708660995488  -2.533004204149 Bohr
[INPUT]  8 H     -4.036521940000  -0.104059210000  -1.339052400000 AA   -7.627920962398  -0.196643407639  -2.530442302442 Bohr
[INPUT]  9 H     -4.039697150000   1.410037170000  -0.466946530000 AA   -7.633921239686   2.664584076757  -0.882401056516 Bohr
[INPUT] 10 C     -3.881428470000   1.629671300000  -2.598083570000 AA   -7.334836780390   3.079632430064  -4.909666396032 Bohr
[INPUT] 11 H     -4.239746200000   2.637890750000  -2.599479960000 AA   -8.011959155665   4.984891064024  -4.912305190695 Bohr
[INPUT] 12 H     -4.236435470000   1.123771240000  -3.471545170000 AA   -8.005702782693   2.123619870263  -6.560269600357 Bohr
[INPUT] 13 C     -2.341431230000   1.632193450000  -2.596617160000 AA   -4.424663764204   3.084398602809  -4.906895282746 Bohr
[INPUT] 14 H     -1.983114360000   0.623973710000  -2.595210800000 AA   -3.747543014092   1.179139420829  -4.904237647513 Bohr
[INPUT] 15 H     -1.984757690000   2.136257290000  -3.470461330000 AA   -3.750648457724   4.036941209706  -6.558221439594 Bohr
[INPUT] 16 H     -1.986424010000   2.138101770000  -1.723160440000 AA   -3.753797346160   4.040426771748  -3.256301300285 Bohr
[INPUT] 17 C     -6.450382620000   2.352882060000  -1.343224040000 AA  -12.189456550454   4.446302696802  -2.538325559532 Bohr
[INPUT] 18 H     -5.844066890000   2.947463810000  -0.692260310000 AA  -11.043685875739   5.569899362967  -1.308182392807 Bohr
[INPUT] 19 H     -6.400981450000   2.747983920000  -2.336377620000 AA  -12.096101868921   5.192937003509  -4.415113825363 Bohr
[INPUT] 20 H     -7.464350330000   2.371441680000  -1.002012920000 AA  -14.105577821507   4.481375295578  -1.893529992076 Bohr

nuclear repulsion = 256.945143467353
number of shells = 138
number of NR pGTOs = 476
number of NR cGTOs = 376
basis = cc-pvtz
ecp = {}
CPU time:      7347.54


******** <class 'pyscf.dft.rks.RKS'> ********
method = RKS-RHF
initial guess = minao
damping factor = 0
level shift factor = 0
DIIS = <class 'pyscf.scf.diis.CDIIS'>
DIIS start cycle = 1
DIIS space = 8
SCF tol = 1e-09
SCF gradient tol = None
max. SCF cycles = 50
direct_scf = True
direct_scf_tol = 1e-13
chkfile to save SCF result = /home/wsr/dftpart/test_hfeda/alkane/tmplvp7o9ou
max_memory 4000 MB (current use 797 MB)
XC functionals = m062x
small_rho_cutoff = 1e-07
radial grids: 
    Treutler-Ahlrichs (JCP 102, 346 (M4)) radial grids
    
becke partition: Becke, JCP, 88, 2547 (1988)
pruning grids: <function nwchem_prune at 0x2b1fbb370378>
grids dens level: 3
symmetrized grids: False
atomic radii adjust function: <function treutler_atomic_radii_adjust at 0x2b1fbb3702f0>
Set gradient conv threshold to 3.16228e-05
tot grids = 223748
init E= -238.052756685083
  HOMO = -0.397717064340286  LUMO = 0.0108700121910152
cycle= 1 E= -236.900781621674  delta_E= 1.15  |g|= 0.729  |ddm|= 3.08
  HOMO = -0.236463616088723  LUMO = 0.0921506006389554
cycle= 2 E= -236.930978259839  delta_E= -0.0302  |g|= 0.617  |ddm|= 0.839
  HOMO = -0.355537963460861  LUMO = 0.0675874021297332
cycle= 3 E= -237.026697625944  delta_E= -0.0957  |g|= 0.0394  |ddm|= 0.495
  HOMO = -0.350424695501387  LUMO = 0.0700325749720647
cycle= 4 E= -237.026989244643  delta_E= -0.000292  |g|= 0.0229  |ddm|= 0.0332
  HOMO = -0.351505446361474  LUMO = 0.0701130719636312
cycle= 5 E= -237.027111205223  delta_E= -0.000122  |g|= 0.00381  |ddm|= 0.0174
  HOMO = -0.351346022918605  LUMO = 0.0701202793837689
cycle= 6 E= -237.027114530446  delta_E= -3.33e-06  |g|= 0.000649  |ddm|= 0.00265
  HOMO = -0.351381338053882  LUMO = 0.0701089330968113
cycle= 7 E= -237.027114642138  delta_E= -1.12e-07  |g|= 0.000163  |ddm|= 0.000804
  HOMO = -0.351383559493312  LUMO = 0.0701114198016027
cycle= 8 E= -237.027114648726  delta_E= -6.59e-09  |g|= 5.37e-05  |ddm|= 0.000177
  HOMO = -0.351383191607618  LUMO = 0.0701124421132845
cycle= 9 E= -237.027114649409  delta_E= -6.83e-10  |g|= 1.43e-05  |ddm|= 4.56e-05
  HOMO = -0.351384142984245  LUMO = 0.0701123030959303
Extra cycle  E= -237.027114649422  delta_E= -1.31e-11  |g|= 1.33e-05  |ddm|= 1.85e-05
converged SCF energy = -237.027114649422
tot grids = 223748
