#INFO: **** input file is /home/wsr/dftpart/test_hfeda/alkane/test_alk.py ****
from dftpart import scfeda

mollist = [
#'c12h26'
#'c2h6',
'c4h10-i','c6h14-ia','c6h14-ib','c6h14-ic','c6h14-t'
#'c8h18','c12h26'
]
basislist = [
#'6-31g',
'6-31gss','6-311gss'#,'6-311+gss',
#'cc-pvdz'
,'cc-pvtz',
#'def2-svp','def2-tzvp'
]
for mol in mollist:
    for basis in basislist:
        test1 = scfeda.EDA()
        test1.gjf = './'+mol+'.gjf'
        test1.method = ['m062x',basis]
        test1.output = mol.upper()+'_'+basis
        #test1.build()
        test1.kernel()
        

#INFO: ******************** input file end ********************


System: uname_result(system='Linux', node='lw06', release='3.10.0-957.el7.x86_64', version='#1 SMP Thu Nov 8 23:39:32 UTC 2018', machine='x86_64', processor='x86_64')  Threads 48
Python 3.7.3 (default, Mar 27 2019, 22:11:17) 
[GCC 7.3.0]
numpy 1.16.2  scipy 1.2.1
Date: Fri Jul 12 15:12:09 2019
PySCF version 1.6.2
PySCF path  /home/wsr/pyscf

[CONFIG] conf_file None
[INPUT] verbose = 4
[INPUT] num. atoms = 20
[INPUT] num. electrons = 50
[INPUT] charge = 0
[INPUT] spin (= nelec alpha-beta = 2S) = 0
[INPUT] symmetry False subgroup None
[INPUT] Mole.unit = angstrom
[INPUT]  1 C     -6.448111350000   0.175808720000  -0.084410400000 AA  -12.185164472199   0.332230331110  -0.159512538065 Bohr
[INPUT]  2 H     -6.091456930000  -0.833001280000  -0.084410400000 AA  -11.511185297284  -1.574144280612  -0.159512538065 Bohr
[INPUT]  3 H     -6.091438510000   0.680206910000   0.789241100000 AA  -11.511150488529   1.285404767937   1.491449525250 Bohr
[INPUT]  4 H     -7.518111350000   0.175821900000  -0.084410400000 AA  -14.207171425484   0.332255237701  -0.159512538065 Bohr
[INPUT]  5 C     -5.934769130000   0.901764990000  -1.341815370000 AA  -11.215088268223   1.704088859821  -2.535663559032 Bohr
[INPUT]  6 C     -4.394771680000   0.904184460000  -1.340408100000 AA   -8.304914855195   1.708660995488  -2.533004204149 Bohr
[INPUT]  7 H     -4.036521940000  -0.104059210000  -1.339052400000 AA   -7.627920962398  -0.196643407639  -2.530442302442 Bohr
[INPUT]  8 H     -4.039697150000   1.410037170000  -0.466946530000 AA   -7.633921239686   2.664584076757  -0.882401056516 Bohr
[INPUT]  9 C     -3.881428470000   1.629671300000  -2.598083570000 AA   -7.334836780390   3.079632430064  -4.909666396032 Bohr
[INPUT] 10 H     -4.239746200000   2.637890750000  -2.599479960000 AA   -8.011959155665   4.984891064024  -4.912305190695 Bohr
[INPUT] 11 H     -2.811430390000   1.631423700000  -2.597064700000 AA   -5.312833455379   3.082943986125  -4.907741010776 Bohr
[INPUT] 12 H     -4.236435470000   1.123771240000  -3.471545170000 AA   -8.005702782693   2.123619870263  -6.560269600357 Bohr
[INPUT] 13 C     -6.445811130000   0.174184380000  -2.599218460000 AA  -12.180817686373   0.329160773377  -4.911811027314 Bohr
[INPUT] 14 H     -6.404557080000   0.838349760000  -3.437122060000 AA  -12.102858830344   1.584251442995  -6.495219350101 Bohr
[INPUT] 15 H     -5.831505300000  -0.680634870000  -2.791084020000 AA  -11.019947910950  -1.286213495129  -5.274384388450 Bohr
[INPUT] 16 H     -7.456445550000  -0.140688330000  -2.443099100000 AA  -14.090639952232  -0.265862412622  -4.616788194171 Bohr
[INPUT] 17 C     -6.450382620000   2.352882060000  -1.343224040000 AA  -12.189456550454   4.446302696802  -2.538325559532 Bohr
[INPUT] 18 H     -7.484491200000   2.364219970000  -1.068650010000 AA  -14.143638549717   4.467728241527  -2.019455841914 Bohr
[INPUT] 19 H     -5.888380620000   2.931768510000  -0.640412380000 AA  -11.127426688997   5.540239544524  -1.210204004981 Bohr
[INPUT] 20 H     -6.336526810000   2.770900960000  -2.321588520000 AA  -11.974300251864   5.236243932694  -4.387166476734 Bohr

nuclear repulsion = 269.638864122042
number of shells = 78
number of NR pGTOs = 260
number of NR cGTOs = 154
basis = 6-31gss
ecp = {}
CPU time:     28771.17


******** <class 'pyscf.dft.rks.RKS'> ********
method = RKS-RHF
initial guess = minao
damping factor = 0
level shift factor = 0
DIIS = <class 'pyscf.scf.diis.CDIIS'>
DIIS start cycle = 1
DIIS space = 8
SCF tol = 1e-09
SCF gradient tol = None
max. SCF cycles = 50
direct_scf = True
direct_scf_tol = 1e-13
chkfile to save SCF result = /home/wsr/dftpart/test_hfeda/alkane/tmpm7c0bubp
max_memory 4000 MB (current use 886 MB)
XC functionals = m062x
small_rho_cutoff = 1e-07
radial grids: 
    Treutler-Ahlrichs (JCP 102, 346 (M4)) radial grids
    
becke partition: Becke, JCP, 88, 2547 (1988)
pruning grids: <function nwchem_prune at 0x2b1fbb370378>
grids dens level: 3
symmetrized grids: False
atomic radii adjust function: <function treutler_atomic_radii_adjust at 0x2b1fbb3702f0>
Set gradient conv threshold to 3.16228e-05
tot grids = 223748
init E= -238.054196627302
  HOMO = -0.399754735655165  LUMO = 0.0322135624102158
cycle= 1 E= -236.837254204159  delta_E= 1.22  |g|= 0.645  |ddm|= 3.61
  HOMO = -0.248517822130647  LUMO = 0.155320980039437
cycle= 2 E= -236.871850204898  delta_E= -0.0346  |g|= 0.543  |ddm|= 1.11
  HOMO = -0.357490633935499  LUMO = 0.118307669060388
cycle= 3 E= -236.948514689393  delta_E= -0.0767  |g|= 0.0399  |ddm|= 0.576
  HOMO = -0.352872120562651  LUMO = 0.119645950663743
cycle= 4 E= -236.948768965025  delta_E= -0.000254  |g|= 0.0246  |ddm|= 0.0512
  HOMO = -0.354932898924104  LUMO = 0.119873851045273
cycle= 5 E= -236.948914095032  delta_E= -0.000145  |g|= 0.00224  |ddm|= 0.0228
  HOMO = -0.354694873244237  LUMO = 0.119896904827805
cycle= 6 E= -236.948915308499  delta_E= -1.21e-06  |g|= 0.000431  |ddm|= 0.00254
  HOMO = -0.35471370227586  LUMO = 0.119894890965372
cycle= 7 E= -236.948915352398  delta_E= -4.39e-08  |g|= 0.000153  |ddm|= 0.000694
  HOMO = -0.354711639147175  LUMO = 0.119896845577215
cycle= 8 E= -236.948915358206  delta_E= -5.81e-09  |g|= 3.09e-05  |ddm|= 0.000164
  HOMO = -0.35471241585382  LUMO = 0.119897289786031
cycle= 9 E= -236.948915358461  delta_E= -2.55e-10  |g|= 3.73e-06  |ddm|= 4.04e-05
  HOMO = -0.35471231385054  LUMO = 0.119897341240525
Extra cycle  E= -236.948915358463  delta_E= -1.59e-12  |g|= 2.45e-06  |ddm|= 7.5e-06
converged SCF energy = -236.948915358463
tot grids = 223748
