 Entering Gaussian System, Link 0=g16
 Input=beta_1.gjf
 Output=beta_1.log
 Initial command:
 /home/soft/g16/l1.exe "/tmp/liwei01/gaussian/liaokang/Gau-197401.inp" -scrdir="/tmp/liwei01/gaussian/liaokang/"
 Entering Link 1 = /home/soft/g16/l1.exe PID=    197403.
  
 Copyright (c) 1988,1990,1992,1993,1995,1998,2003,2009,2016,
            Gaussian, Inc.  All Rights Reserved.
  
 This is part of the Gaussian(R) 16 program.  It is based on
 the Gaussian(R) 09 system (copyright 2009, Gaussian, Inc.),
 the Gaussian(R) 03 system (copyright 2003, Gaussian, Inc.),
 the Gaussian(R) 98 system (copyright 1998, Gaussian, Inc.),
 the Gaussian(R) 94 system (copyright 1995, Gaussian, Inc.),
 the Gaussian 92(TM) system (copyright 1992, Gaussian, Inc.),
 the Gaussian 90(TM) system (copyright 1990, Gaussian, Inc.),
 the Gaussian 88(TM) system (copyright 1988, Gaussian, Inc.),
 the Gaussian 86(TM) system (copyright 1986, Carnegie Mellon
 University), and the Gaussian 82(TM) system (copyright 1983,
 Carnegie Mellon University). Gaussian is a federally registered
 trademark of Gaussian, Inc.
  
 This software contains proprietary and confidential information,
 including trade secrets, belonging to Gaussian, Inc.
  
 This software is provided under written license and may be
 used, copied, transmitted, or stored only in accord with that
 written license.
  
 The following legend is applicable only to US Government
 contracts under FAR:
  
                    RESTRICTED RIGHTS LEGEND
  
 Use, reproduction and disclosure by the US Government is
 subject to restrictions as set forth in subparagraphs (a)
 and (c) of the Commercial Computer Software - Restricted
 Rights clause in FAR 52.227-19.
  
 Gaussian, Inc.
 340 Quinnipiac St., Bldg. 40, Wallingford CT 06492
  
  
 ---------------------------------------------------------------
 Warning -- This program may not be used in any manner that
 competes with the business of Gaussian, Inc. or will provide
 assistance to any competitor of Gaussian, Inc.  The licensee
 of this program is prohibited from giving any competitor of
 Gaussian, Inc. access to this program.  By using this program,
 the user acknowledges that Gaussian, Inc. is engaged in the
 business of creating and licensing software in the field of
 computational chemistry and represents and warrants to the
 licensee that it is not a competitor of Gaussian, Inc. and that
 it will not use this program in any manner prohibited above.
 ---------------------------------------------------------------
  

 Cite this work as:
 Gaussian 16, Revision A.03,
 M. J. Frisch, G. W. Trucks, H. B. Schlegel, G. E. Scuseria, 
 M. A. Robb, J. R. Cheeseman, G. Scalmani, V. Barone, 
 G. A. Petersson, H. Nakatsuji, X. Li, M. Caricato, A. V. Marenich, 
 J. Bloino, B. G. Janesko, R. Gomperts, B. Mennucci, H. P. Hratchian, 
 J. V. Ortiz, A. F. Izmaylov, J. L. Sonnenberg, D. Williams-Young, 
 F. Ding, F. Lipparini, F. Egidi, J. Goings, B. Peng, A. Petrone, 
 T. Henderson, D. Ranasinghe, V. G. Zakrzewski, J. Gao, N. Rega, 
 G. Zheng, W. Liang, M. Hada, M. Ehara, K. Toyota, R. Fukuda, 
 J. Hasegawa, M. Ishida, T. Nakajima, Y. Honda, O. Kitao, H. Nakai, 
 T. Vreven, K. Throssell, J. A. Montgomery, Jr., J. E. Peralta, 
 F. Ogliaro, M. J. Bearpark, J. J. Heyd, E. N. Brothers, K. N. Kudin, 
 V. N. Staroverov, T. A. Keith, R. Kobayashi, J. Normand, 
 K. Raghavachari, A. P. Rendell, J. C. Burant, S. S. Iyengar, 
 J. Tomasi, M. Cossi, J. M. Millam, M. Klene, C. Adamo, R. Cammi, 
 J. W. Ochterski, R. L. Martin, K. Morokuma, O. Farkas, 
 J. B. Foresman, and D. J. Fox, Gaussian, Inc., Wallingford CT, 2016.
 
 ******************************************
 Gaussian 16:  ES64L-G16RevA.03 25-Dec-2016
                 9-Feb-2020 
 ******************************************
 %chk=beta_1.chk
 %nproc=6
 Will use up to    6 processors via shared memory.
 %mem=1gb
 --------------------------------------------
 #p hf/6-31g(d,p) 5d 7f pop=npa charge nosymm
 --------------------------------------------
 1/18=10,28=-2,38=1,125=101,172=1/1;
 2/12=2,15=1,17=6,18=5,40=1/2;
 3/5=1,6=6,7=101,8=11,11=9,25=1,30=1/1,2,3;
 4//1;
 5/5=2,38=5/2;
 6/7=2,8=2,9=2,10=2,28=1,40=-1/1,7;
 99/5=1,9=1/99;
 Leave Link    1 at Sun Feb  9 22:26:24 2020, MaxMem=   134217728 cpu:               0.5 elap:               0.1
 (Enter /home/soft/g16/l101.exe)
 --------------
 Atom number=58
 --------------
 Symbolic Z-matrix:
 Charge =  1 Multiplicity = 1
 c                    -28.92011  -0.10957   0.40843 
 o                    -28.95071  -0.89273   1.39294 
 n                    -27.79756   0.02248  -0.30676 
 c                    -26.59861  -0.74575   0.05777 
 c                    -25.34085   0.0508   -0.33544 
 o                    -25.37454   0.83348  -1.32025 
 n                    -24.21266  -0.08852   0.36951 
 c                    -23.014    0.67529  -0.00513 
 c                    -23.01089   2.02279   0.74037 
 c                    -26.6064  -2.09405  -0.68625 
 c                    -21.75465  -0.12467   0.3759 
 o                    -21.78078  -0.90889   1.35973 
 n                    -20.63281   0.01471  -0.33915 
 c                    -19.42917  -0.74612   0.02558 
 c                    -18.17588   0.05842  -0.36634 
 o                    -18.21307   0.8408   -1.35123 
 n                    -17.04789  -0.07397   0.34037 
 c                    -15.85266   0.6966   -0.03174 
 c                    -15.85891   2.04442   0.71319 
 c                    -19.4282  -2.09414  -0.71902 
 n                    -31.37754  -0.06005   0.40219 
 c                    -30.175    0.69726   0.02673 
 c                    -32.50544   0.08362  -0.30247 
 o                    -32.53684   0.86697  -1.2868 
 c                    -30.16432   2.04548   0.77087 
 c                    -33.76534  -0.70963   0.091 
 n                    -34.57269  -0.97365  -1.10871 
 h                    -27.77391   0.64422  -1.08962 
 h                    -24.18479  -0.71167   1.15111 
 h                    -20.61294   0.63684  -1.12181 
 h                    -17.01783  -0.69687   1.12205 
 h                    -14.9753   0.14554   0.23559 
 h                    -26.59441  -0.921     1.11335 
 h                    -23.01877   0.85141  -1.06052 
 h                    -19.42453  -0.92175   1.08104 
 h                    -15.85574   0.8724   -1.08721 
 h                    -30.17893   0.87252  -1.02883 
 h                    -31.35244  -0.68259   1.18438 
 h                    -16.73625   2.59556   0.4459 
 h                    -14.98898   2.60555   0.44261 
 h                    -15.85592   1.86861   1.76864 
 h                    -20.2992  -2.65273  -0.44654 
 h                    -18.55192  -2.64775  -0.45338 
 h                    -19.43282  -1.91859  -1.77451 
 h                    -23.88588   2.57884   0.47562 
 h                    -22.13861   2.57926   0.46774 
 h                    -23.00608   1.84653   1.79575 
 h                    -27.48062  -2.64718  -0.41295 
 h                    -25.73335  -2.65287  -0.42095 
 h                    -26.61066  -1.91888  -1.7418 
 h                    -29.28888   2.59675   0.49767 
 h                    -30.1605   1.87026   1.82641 
 h                    -31.03614   2.60623   0.50556 
 h                    -34.34129  -0.14033   0.79034 
 h                    -33.47709  -1.63791   0.53836 
 h                    -34.03433  -1.50561  -1.76233 
 h                    -35.39076  -1.48885  -0.85321 
 h                    -34.84216  -0.10611  -1.52673 
 
 ITRead=  0  0  0  0  0  0  0  0  0  0  0  0  0  0  0  0  0  0  0  0
 ITRead=  0  0  0  0  0  0  0  0  0  0  0  0  0  0  0  0  0  0  0  0
 ITRead=  0  0  0  0  0  0  0  0  0  0  0  0  0  0  0  0  0  0
 MicOpt= -1 -1 -1 -1 -1 -1 -1 -1 -1 -1 -1 -1 -1 -1 -1 -1 -1 -1 -1 -1
 MicOpt= -1 -1 -1 -1 -1 -1 -1 -1 -1 -1 -1 -1 -1 -1 -1 -1 -1 -1 -1 -1
 MicOpt= -1 -1 -1 -1 -1 -1 -1 -1 -1 -1 -1 -1 -1 -1 -1 -1 -1 -1
 NAtoms=     58 NQM=       58 NQMF=       0 NMMI=      0 NMMIF=      0
                NMic=       0 NMicF=      0.
                    Isotopes and Nuclear Properties:
 (Nuclear quadrupole moments (NQMom) in fm**2, nuclear magnetic moments (NMagM)
  in nuclear magnetons)

  Atom         1           2           3           4           5           6           7           8           9          10
 IAtWgt=          12          16          14          12          12          16          14          12          12          12
 AtmWgt=  12.0000000  15.9949146  14.0030740  12.0000000  12.0000000  15.9949146  14.0030740  12.0000000  12.0000000  12.0000000
 NucSpn=           0           0           2           0           0           0           2           0           0           0
 AtZEff=  -0.0000000  -0.0000000  -0.0000000  -0.0000000  -0.0000000  -0.0000000  -0.0000000  -0.0000000  -0.0000000  -0.0000000
 NQMom=    0.0000000   0.0000000   2.0440000   0.0000000   0.0000000   0.0000000   2.0440000   0.0000000   0.0000000   0.0000000
 NMagM=    0.0000000   0.0000000   0.4037610   0.0000000   0.0000000   0.0000000   0.4037610   0.0000000   0.0000000   0.0000000
 AtZNuc=   6.0000000   8.0000000   7.0000000   6.0000000   6.0000000   8.0000000   7.0000000   6.0000000   6.0000000   6.0000000

  Atom        11          12          13          14          15          16          17          18          19          20
 IAtWgt=          12          16          14          12          12          16          14          12          12          12
 AtmWgt=  12.0000000  15.9949146  14.0030740  12.0000000  12.0000000  15.9949146  14.0030740  12.0000000  12.0000000  12.0000000
 NucSpn=           0           0           2           0           0           0           2           0           0           0
 AtZEff=  -0.0000000  -0.0000000  -0.0000000  -0.0000000  -0.0000000  -0.0000000  -0.0000000  -0.0000000  -0.0000000  -0.0000000
 NQMom=    0.0000000   0.0000000   2.0440000   0.0000000   0.0000000   0.0000000   2.0440000   0.0000000   0.0000000   0.0000000
 NMagM=    0.0000000   0.0000000   0.4037610   0.0000000   0.0000000   0.0000000   0.4037610   0.0000000   0.0000000   0.0000000
 AtZNuc=   6.0000000   8.0000000   7.0000000   6.0000000   6.0000000   8.0000000   7.0000000   6.0000000   6.0000000   6.0000000

  Atom        21          22          23          24          25          26          27          28          29          30
 IAtWgt=          14          12          12          16          12          12          14           1           1           1
 AtmWgt=  14.0030740  12.0000000  12.0000000  15.9949146  12.0000000  12.0000000  14.0030740   1.0078250   1.0078250   1.0078250
 NucSpn=           2           0           0           0           0           0           2           1           1           1
 AtZEff=  -0.0000000  -0.0000000  -0.0000000  -0.0000000  -0.0000000  -0.0000000  -0.0000000  -0.0000000  -0.0000000  -0.0000000
 NQMom=    2.0440000   0.0000000   0.0000000   0.0000000   0.0000000   0.0000000   2.0440000   0.0000000   0.0000000   0.0000000
 NMagM=    0.4037610   0.0000000   0.0000000   0.0000000   0.0000000   0.0000000   0.4037610   2.7928460   2.7928460   2.7928460
 AtZNuc=   7.0000000   6.0000000   6.0000000   8.0000000   6.0000000   6.0000000   7.0000000   1.0000000   1.0000000   1.0000000

  Atom        31          32          33          34          35          36          37          38          39          40
 IAtWgt=           1           1           1           1           1           1           1           1           1           1
 AtmWgt=   1.0078250   1.0078250   1.0078250   1.0078250   1.0078250   1.0078250   1.0078250   1.0078250   1.0078250   1.0078250
 NucSpn=           1           1           1           1           1           1           1           1           1           1
 AtZEff=  -0.0000000  -0.0000000  -0.0000000  -0.0000000  -0.0000000  -0.0000000  -0.0000000  -0.0000000  -0.0000000  -0.0000000
 NQMom=    0.0000000   0.0000000   0.0000000   0.0000000   0.0000000   0.0000000   0.0000000   0.0000000   0.0000000   0.0000000
 NMagM=    2.7928460   2.7928460   2.7928460   2.7928460   2.7928460   2.7928460   2.7928460   2.7928460   2.7928460   2.7928460
 AtZNuc=   1.0000000   1.0000000   1.0000000   1.0000000   1.0000000   1.0000000   1.0000000   1.0000000   1.0000000   1.0000000

  Atom        41          42          43          44          45          46          47          48          49          50
 IAtWgt=           1           1           1           1           1           1           1           1           1           1
 AtmWgt=   1.0078250   1.0078250   1.0078250   1.0078250   1.0078250   1.0078250   1.0078250   1.0078250   1.0078250   1.0078250
 NucSpn=           1           1           1           1           1           1           1           1           1           1
 AtZEff=  -0.0000000  -0.0000000  -0.0000000  -0.0000000  -0.0000000  -0.0000000  -0.0000000  -0.0000000  -0.0000000  -0.0000000
 NQMom=    0.0000000   0.0000000   0.0000000   0.0000000   0.0000000   0.0000000   0.0000000   0.0000000   0.0000000   0.0000000
 NMagM=    2.7928460   2.7928460   2.7928460   2.7928460   2.7928460   2.7928460   2.7928460   2.7928460   2.7928460   2.7928460
 AtZNuc=   1.0000000   1.0000000   1.0000000   1.0000000   1.0000000   1.0000000   1.0000000   1.0000000   1.0000000   1.0000000

  Atom        51          52          53          54          55          56          57          58
 IAtWgt=           1           1           1           1           1           1           1           1
 AtmWgt=   1.0078250   1.0078250   1.0078250   1.0078250   1.0078250   1.0078250   1.0078250   1.0078250
 NucSpn=           1           1           1           1           1           1           1           1
 AtZEff=  -0.0000000  -0.0000000  -0.0000000  -0.0000000  -0.0000000  -0.0000000  -0.0000000  -0.0000000
 NQMom=    0.0000000   0.0000000   0.0000000   0.0000000   0.0000000   0.0000000   0.0000000   0.0000000
 NMagM=    2.7928460   2.7928460   2.7928460   2.7928460   2.7928460   2.7928460   2.7928460   2.7928460
 AtZNuc=   1.0000000   1.0000000   1.0000000   1.0000000   1.0000000   1.0000000   1.0000000   1.0000000
 Background charge distribution read from input stream:
 Point Charges:
 XYZ=  -14.5899   -0.0965    0.3530 Q=    0.8441 A=    0.0000 R=    0.0000 C=    0.0000
 XYZ=  -14.6152   -0.8811    1.3365 Q=   -0.7835 A=    0.0000 R=    0.0000 C=    0.0000
 XYZ=  -13.4663    0.0488   -0.3581 Q=   -0.7347 A=    0.0000 R=    0.0000 C=    0.0000
 XYZ=  -13.4464    0.6723   -1.1397 Q=    0.4533 A=    0.0000 R=    0.0000 C=    0.0000
 XYZ=  -12.2606   -0.7077    0.0093 Q=   -0.1111 A=    0.0000 R=    0.0000 C=    0.0000
 XYZ=  -11.0090    0.1019   -0.3772 Q=    0.9972 A=    0.0000 R=    0.0000 C=    0.0000
 XYZ=  -11.0461    0.8869   -1.3601 Q=   -0.7540 A=    0.0000 R=    0.0000 C=    0.0000
 XYZ=  -12.2587   -0.8852    1.0645 Q=    0.2780 A=    0.0000 R=    0.0000 C=    0.0000
 XYZ=  -12.2519   -2.0543   -0.7377 Q=   -0.6414 A=    0.0000 R=    0.0000 C=    0.0000
 XYZ=  -13.1216   -2.6169   -0.4691 Q=    0.2461 A=    0.0000 R=    0.0000 C=    0.0000
 XYZ=  -11.3743   -2.6049   -0.4703 Q=    0.2262 A=    0.0000 R=    0.0000 C=    0.0000
 XYZ=  -12.2538   -1.8769   -1.7929 Q=    0.2280 A=    0.0000 R=    0.0000 C=    0.0000
 XYZ=   -9.9130   -0.0257    0.3125 Q=   -0.7829 A=    0.0000 R=    0.0000 C=    0.0000
 XYZ=   -9.1327    0.4791    0.0717 Q=    0.5477 A=    0.0000 R=    0.0000 C=    0.0000
 Pt Chg Charge=              0.0131 electrons
 Pt Chg Dipole moment (Debye):
    X=              1.2456    Y=              0.3955    Z=             -2.0238  Tot=              2.4090
 Pt Chg Quadrupole moment (Debye-Ang):
   XX=            -32.0163   YY=              2.9958   ZZ=             -6.3557
   XY=            -12.1999   XZ=             36.3254   YZ=              7.5349
 Pt Chg Traceless Quadrupole moment (Debye-Ang):
   XX=            -20.2242   YY=             14.7879   ZZ=              5.4363
   XY=            -12.1999   XZ=             36.3254   YZ=              7.5349
 Pt Chg Octapole moment (Debye-Ang**2):
  XXX=            535.2975  YYY=            -20.6521  ZZZ=             -6.8259  XYY=            -33.1303
  XXY=            262.1478  XXZ=           -609.3073  XZZ=             81.6662  YZZ=             -3.9112
  YYZ=             -4.5896  XYZ=            -95.2498
 Pt Chg Hexadecapole moment (Debye-Ang**3):
 XXXX=          -7834.7897 YYYY=             60.9328 ZZZZ=             -8.4329 XXXY=          -4874.8805
 XXXZ=           9805.0581 YYYX=            245.6104 YYYZ=             17.3994 ZZZX=            118.5102
 ZZZY=             22.2913 XXYY=            360.9927 XXZZ=          -1088.6809 YYZZ=              0.7262
 XXYZ=           1233.8725 YYXZ=             71.8101 ZZXY=             24.8201
 Leave Link  101 at Sun Feb  9 22:26:24 2020, MaxMem=   134217728 cpu:               0.9 elap:               0.2
 (Enter /home/soft/g16/l202.exe)
 Symmetry turned off by external request.
 Stoichiometry    C16H31N6O5(1+)
 Framework group  C1[X(C16H31N6O5)]
 Deg. of freedom   168
 Full point group                 C1      NOp   1
                          Input orientation:                          
 ---------------------------------------------------------------------
 Center     Atomic      Atomic             Coordinates (Angstroms)
 Number     Number       Type             X           Y           Z
 ---------------------------------------------------------------------
      1          6           0      -28.920111   -0.109571    0.408427
      2          8           0      -28.950711   -0.892729    1.392942
      3          7           0      -27.797562    0.022481   -0.306761
      4          6           0      -26.598606   -0.745746    0.057771
      5          6           0      -25.340849    0.050797   -0.335441
      6          8           0      -25.374538    0.833478   -1.320247
      7          7           0      -24.212660   -0.088516    0.369510
      8          6           0      -23.014004    0.675291   -0.005132
      9          6           0      -23.010894    2.022792    0.740371
     10          6           0      -26.606405   -2.094048   -0.686252
     11          6           0      -21.754647   -0.124672    0.375897
     12          8           0      -21.780779   -0.908887    1.359731
     13          7           0      -20.632814    0.014708   -0.339146
     14          6           0      -19.429168   -0.746118    0.025580
     15          6           0      -18.175880    0.058417   -0.366339
     16          8           0      -18.213071    0.840796   -1.351228
     17          7           0      -17.047892   -0.073973    0.340369
     18          6           0      -15.852661    0.696599   -0.031743
     19          6           0      -15.858913    2.044421    0.713195
     20          6           0      -19.428199   -2.094143   -0.719021
     21          7           0      -31.377540   -0.060045    0.402188
     22          6           0      -30.174996    0.697265    0.026728
     23          6           0      -32.505438    0.083621   -0.302468
     24          8           0      -32.536842    0.866968   -1.286801
     25          6           0      -30.164320    2.045480    0.770871
     26          6           0      -33.765341   -0.709626    0.090999
     27          7           0      -34.572687   -0.973648   -1.108712
     28          1           0      -27.773911    0.644221   -1.089624
     29          1           0      -24.184793   -0.711670    1.151110
     30          1           0      -20.612936    0.636845   -1.121814
     31          1           0      -17.017825   -0.696875    1.122051
     32          1           0      -14.975297    0.145539    0.235588
     33          1           0      -26.594407   -0.920996    1.113347
     34          1           0      -23.018768    0.851410   -1.060517
     35          1           0      -19.424531   -0.921751    1.081037
     36          1           0      -15.855739    0.872403   -1.087206
     37          1           0      -30.178932    0.872518   -1.028828
     38          1           0      -31.352435   -0.682591    1.184381
     39          1           0      -16.736251    2.595556    0.445902
     40          1           0      -14.988985    2.605552    0.442609
     41          1           0      -15.855922    1.868614    1.768640
     42          1           0      -20.299205   -2.652730   -0.446539
     43          1           0      -18.551924   -2.647751   -0.453376
     44          1           0      -19.432823   -1.918590   -1.774505
     45          1           0      -23.885884    2.578842    0.475623
     46          1           0      -22.138606    2.579260    0.467736
     47          1           0      -23.006085    1.846526    1.795752
     48          1           0      -27.480622   -2.647180   -0.412949
     49          1           0      -25.733348   -2.652872   -0.420945
     50          1           0      -26.610665   -1.918885   -1.741796
     51          1           0      -29.288882    2.596750    0.497673
     52          1           0      -30.160500    1.870257    1.826413
     53          1           0      -31.036141    2.606228    0.505558
     54          1           0      -34.341294   -0.140329    0.790339
     55          1           0      -33.477087   -1.637915    0.538357
     56          1           0      -34.034331   -1.505609   -1.762326
     57          1           0      -35.390760   -1.488848   -0.853210
     58          1           0      -34.842158   -0.106113   -1.526730
 ---------------------------------------------------------------------
 Rotational constants (GHZ):           0.7207269           0.0396604           0.0389881
 Leave Link  202 at Sun Feb  9 22:26:24 2020, MaxMem=   134217728 cpu:               0.1 elap:               0.0
 (Enter /home/soft/g16/l301.exe)
 Standard basis: 6-31G(d,p) (5D, 7F)
 Ernie: Thresh=  0.10000D-02 Tol=  0.10000D-05 Strict=F.
   533 basis functions,   973 primitive gaussians,   560 cartesian basis functions
   104 alpha electrons      104 beta electrons
       nuclear repulsion energy      2434.7121236320 Hartrees.
 IExCor=    0 DFT=F Ex=HF Corr=None ExCW=0 ScaHFX=  1.000000
 ScaDFX=  1.000000  1.000000  1.000000  1.000000 ScalE2=  1.000000  1.000000
 IRadAn=      5 IRanWt=     -1 IRanGd=            0 ICorTp=0 IEmpDi=  4
 NAtoms=   58 NActive=   58 NUniq=   58 SFac= 1.00D+00 NAtFMM=   60 NAOKFM=F Big=F
 Integral buffers will be    131072 words long.
 Raffenetti 1 integral format.
 Two-electron integral symmetry is turned off.
 Background charge distribution read from rwf.
 PtFMM for NChg=        72 BoxLen=    40.00 Levels= 1 LMax=20 SMax=    49.6 ICnFMM=     1:
 Self energy of the charges =        -1.4186038777 a.u.
 MM   energy of the charges =         0.0000000000 a.u.
 Nuclei-charges interaction =         1.4090646002 a.u.
 Nuclear repulsion after external point charges =     2434.7025843545 Hartrees.
 Leave Link  301 at Sun Feb  9 22:26:25 2020, MaxMem=   134217728 cpu:               0.5 elap:               0.1
 (Enter /home/soft/g16/l302.exe)
 NPDir=0 NMtPBC=     1 NCelOv=     1 NCel=       1 NClECP=     1 NCelD=      1
         NCelK=      1 NCelE2=     1 NClLst=     1 CellRange=     0.0.
 One-electron integrals computed using PRISM.
 NBasis=   533 RedAO= T EigKep=  2.26D-03  NBF=   533
 NBsUse=   533 1.00D-06 EigRej= -1.00D+00 NBFU=   533
 Leave Link  302 at Sun Feb  9 22:26:25 2020, MaxMem=   134217728 cpu:               3.3 elap:               0.6
 (Enter /home/soft/g16/l303.exe)
 DipDrv:  MaxL=1.
 Leave Link  303 at Sun Feb  9 22:26:25 2020, MaxMem=   134217728 cpu:               0.4 elap:               0.1
 (Enter /home/soft/g16/l401.exe)
 ExpMin= 1.61D-01 ExpMax= 5.48D+03 ExpMxC= 8.25D+02 IAcc=3 IRadAn=         5 AccDes= 0.00D+00
 Harris functional with IExCor=  205 and IRadAn=       5 diagonalized for initial guess.
 HarFok:  IExCor=  205 AccDes= 0.00D+00 IRadAn=         5 IDoV= 1 UseB2=F ITyADJ=14
 ICtDFT=  3500011 ScaDFX=  1.000000  1.000000  1.000000  1.000000
 FoFCou: FMM=F IPFlag=           0 FMFlag=      100000 FMFlg1=           0
         NFxFlg=           0 DoJE=T BraDBF=F KetDBF=T FulRan=T
         wScrn=  0.000000 ICntrl=       500 IOpCl=  0 I1Cent=   200000004 NGrid=           0
         NMat0=    1 NMatS0=      1 NMatT0=    0 NMatD0=    1 NMtDS0=    0 NMtDT0=    0
 Symmetry not used in FoFCou.
 Harris En= -1327.79097553148    
 JPrj=0 DoOrth=F DoCkMO=F.
 Leave Link  401 at Sun Feb  9 22:26:28 2020, MaxMem=   134217728 cpu:              19.2 elap:               3.2
 (Enter /home/soft/g16/l502.exe)
 Two-electron integral symmetry not used.
 Closed shell SCF:
 Using DIIS extrapolation, IDIIS=  1040.
 NGot=   134217728 LenX=   133582398 LenY=   133268238
 Requested convergence on RMS density matrix=1.00D-08 within 128 cycles.
 Requested convergence on MAX density matrix=1.00D-06.
 Requested convergence on             energy=1.00D-06.
 No special actions if energy rises.
 Fock matrices will be formed incrementally for  20 cycles.
 Integral accuracy reduced to 1.0D-05 until final iterations.

 Cycle   1  Pass 0  IDiag  1:
 FoFJK:  IHMeth= 1 ICntrl=       0 DoSepK=F KAlg= 0 I1Cent=           0 FoldK=F
 IRaf= 500000000 NMat=       1 IRICut=       1 DoRegI=T DoRafI=F ISym2E= 0 IDoP0=0 IntGTp=1.
 FoFCou: FMM=F IPFlag=           0 FMFlag=      100000 FMFlg1=           0
         NFxFlg=           0 DoJE=F BraDBF=F KetDBF=F FulRan=T
         wScrn=  0.000000 ICntrl=         0 IOpCl=  0 I1Cent=           0 NGrid=           0
         NMat0=    1 NMatS0=      1 NMatT0=    0 NMatD0=    1 NMtDS0=    0 NMtDT0=    0
 Symmetry not used in FoFCou.
 E= -1325.09741259941    
 DIIS: error= 2.64D-02 at cycle   1 NSaved=   1.
 NSaved= 1 IEnMin= 1 EnMin= -1325.09741259941     IErMin= 1 ErrMin= 2.64D-02
 ErrMax= 2.64D-02  0.00D+00 EMaxC= 1.00D-01 BMatC= 1.39D+00 BMatP= 1.39D+00
 IDIUse=3 WtCom= 7.36D-01 WtEn= 2.64D-01
 Coeff-Com:  0.100D+01
 Coeff-En:   0.100D+01
 Coeff:      0.100D+01
 Gap=     0.651 Goal=   None    Shift=    0.000
 GapD=    0.651 DampG=2.000 DampE=0.500 DampFc=1.0000 IDamp=-1.
 RMSDP=2.46D-03 MaxDP=1.14D-01              OVMax= 1.26D-01

 Cycle   2  Pass 0  IDiag  1:
 RMSU=  2.44D-03    CP:  9.76D-01
 E= -1325.92529664296     Delta-E=       -0.827884043550 Rises=F Damp=F
 DIIS: error= 1.49D-02 at cycle   2 NSaved=   2.
 NSaved= 2 IEnMin= 2 EnMin= -1325.92529664296     IErMin= 2 ErrMin= 1.49D-02
 ErrMax= 1.49D-02  0.00D+00 EMaxC= 1.00D-01 BMatC= 2.54D-01 BMatP= 1.39D+00
 IDIUse=3 WtCom= 8.51D-01 WtEn= 1.49D-01
 Coeff-Com:  0.254D+00 0.746D+00
 Coeff-En:   0.000D+00 0.100D+01
 Coeff:      0.216D+00 0.784D+00
 Gap=     0.471 Goal=   None    Shift=    0.000
 RMSDP=9.74D-04 MaxDP=5.55D-02 DE=-8.28D-01 OVMax= 4.96D-02

 Cycle   3  Pass 0  IDiag  1:
 RMSU=  7.83D-04    CP:  9.77D-01  7.63D-01
 E= -1326.10664947752     Delta-E=       -0.181352834558 Rises=F Damp=F
 DIIS: error= 5.98D-03 at cycle   3 NSaved=   3.
 NSaved= 3 IEnMin= 3 EnMin= -1326.10664947752     IErMin= 3 ErrMin= 5.98D-03
 ErrMax= 5.98D-03  0.00D+00 EMaxC= 1.00D-01 BMatC= 2.92D-02 BMatP= 2.54D-01
 IDIUse=3 WtCom= 9.40D-01 WtEn= 5.98D-02
 Coeff-Com: -0.579D-02 0.227D+00 0.779D+00
 Coeff-En:   0.000D+00 0.000D+00 0.100D+01
 Coeff:     -0.545D-02 0.213D+00 0.792D+00
 Gap=     0.431 Goal=   None    Shift=    0.000
 RMSDP=2.75D-04 MaxDP=1.98D-02 DE=-1.81D-01 OVMax= 2.66D-02

 Cycle   4  Pass 0  IDiag  1:
 RMSU=  2.01D-04    CP:  9.77D-01  8.29D-01  8.78D-01
 E= -1326.12826938487     Delta-E=       -0.021619907347 Rises=F Damp=F
 DIIS: error= 1.30D-03 at cycle   4 NSaved=   4.
 NSaved= 4 IEnMin= 4 EnMin= -1326.12826938487     IErMin= 4 ErrMin= 1.30D-03
 ErrMax= 1.30D-03  0.00D+00 EMaxC= 1.00D-01 BMatC= 1.90D-03 BMatP= 2.92D-02
 IDIUse=3 WtCom= 9.87D-01 WtEn= 1.30D-02
 Coeff-Com: -0.152D-01 0.157D-01 0.235D+00 0.764D+00
 Coeff-En:   0.000D+00 0.000D+00 0.000D+00 0.100D+01
 Coeff:     -0.150D-01 0.155D-01 0.232D+00 0.767D+00
 Gap=     0.426 Goal=   None    Shift=    0.000
 RMSDP=8.90D-05 MaxDP=4.41D-03 DE=-2.16D-02 OVMax= 5.07D-03

 Cycle   5  Pass 0  IDiag  1:
 RMSU=  5.65D-05    CP:  9.76D-01  8.30D-01  9.61D-01  9.08D-01
 E= -1326.13015704073     Delta-E=       -0.001887655862 Rises=F Damp=F
 DIIS: error= 3.52D-04 at cycle   5 NSaved=   5.
 NSaved= 5 IEnMin= 5 EnMin= -1326.13015704073     IErMin= 5 ErrMin= 3.52D-04
 ErrMax= 3.52D-04  0.00D+00 EMaxC= 1.00D-01 BMatC= 7.38D-05 BMatP= 1.90D-03
 IDIUse=3 WtCom= 9.96D-01 WtEn= 3.52D-03
 Coeff-Com:  0.231D-02-0.161D-01-0.839D-01-0.939D-01 0.119D+01
 Coeff-En:   0.000D+00 0.000D+00 0.000D+00 0.000D+00 0.100D+01
 Coeff:      0.230D-02-0.161D-01-0.836D-01-0.936D-01 0.119D+01
 Gap=     0.426 Goal=   None    Shift=    0.000
 RMSDP=3.98D-05 MaxDP=1.16D-03 DE=-1.89D-03 OVMax= 3.95D-03

 Cycle   6  Pass 0  IDiag  1:
 RMSU=  1.65D-05    CP:  9.76D-01  8.31D-01  9.85D-01  1.02D+00  1.38D+00
 E= -1326.13037193358     Delta-E=       -0.000214892848 Rises=F Damp=F
 DIIS: error= 1.14D-04 at cycle   6 NSaved=   6.
 NSaved= 6 IEnMin= 6 EnMin= -1326.13037193358     IErMin= 6 ErrMin= 1.14D-04
 ErrMax= 1.14D-04  0.00D+00 EMaxC= 1.00D-01 BMatC= 1.30D-05 BMatP= 7.38D-05
 IDIUse=3 WtCom= 9.99D-01 WtEn= 1.14D-03
 Coeff-Com:  0.170D-02-0.442D-02-0.348D-01-0.960D-01 0.199D+00 0.934D+00
 Coeff-En:   0.000D+00 0.000D+00 0.000D+00 0.000D+00 0.000D+00 0.100D+01
 Coeff:      0.169D-02-0.442D-02-0.347D-01-0.959D-01 0.199D+00 0.934D+00
 Gap=     0.426 Goal=   None    Shift=    0.000
 RMSDP=1.36D-05 MaxDP=5.67D-04 DE=-2.15D-04 OVMax= 1.35D-03

 Cycle   7  Pass 0  IDiag  1:
 RMSU=  5.41D-06    CP:  9.76D-01  8.30D-01  9.92D-01  1.04D+00  1.55D+00
                    CP:  1.20D+00
 E= -1326.13039939867     Delta-E=       -0.000027465095 Rises=F Damp=F
 DIIS: error= 5.05D-05 at cycle   7 NSaved=   7.
 NSaved= 7 IEnMin= 7 EnMin= -1326.13039939867     IErMin= 7 ErrMin= 5.05D-05
 ErrMax= 5.05D-05  0.00D+00 EMaxC= 1.00D-01 BMatC= 1.76D-06 BMatP= 1.30D-05
 IDIUse=1 WtCom= 1.00D+00 WtEn= 0.00D+00
 Coeff-Com: -0.202D-03 0.211D-02 0.121D-01 0.289D-02-0.140D+00-0.213D-02
 Coeff-Com:  0.113D+01
 Coeff:     -0.202D-03 0.211D-02 0.121D-01 0.289D-02-0.140D+00-0.213D-02
 Coeff:      0.113D+01
 Gap=     0.426 Goal=   None    Shift=    0.000
 RMSDP=6.52D-06 MaxDP=2.73D-04 DE=-2.75D-05 OVMax= 7.18D-04

 Initial convergence to 1.0D-05 achieved.  Increase integral accuracy.
 Cycle   8  Pass 1  IDiag  1:
 E= -1326.13042050406     Delta-E=       -0.000021105384 Rises=F Damp=F
 DIIS: error= 2.27D-05 at cycle   1 NSaved=   1.
 NSaved= 1 IEnMin= 1 EnMin= -1326.13042050406     IErMin= 1 ErrMin= 2.27D-05
 ErrMax= 2.27D-05  0.00D+00 EMaxC= 1.00D-01 BMatC= 6.98D-07 BMatP= 6.98D-07
 IDIUse=1 WtCom= 1.00D+00 WtEn= 0.00D+00
 Coeff-Com:  0.100D+01
 Coeff:      0.100D+01
 Gap=     0.426 Goal=   None    Shift=    0.000
 RMSDP=6.52D-06 MaxDP=2.73D-04 DE=-2.11D-05 OVMax= 2.07D-04

 Cycle   9  Pass 1  IDiag  1:
 RMSU=  6.70D-06    CP:  1.00D+00
 E= -1326.13042142932     Delta-E=       -0.000000925267 Rises=F Damp=F
 DIIS: error= 1.68D-05 at cycle   2 NSaved=   2.
 NSaved= 2 IEnMin= 2 EnMin= -1326.13042142932     IErMin= 2 ErrMin= 1.68D-05
 ErrMax= 1.68D-05  0.00D+00 EMaxC= 1.00D-01 BMatC= 1.43D-07 BMatP= 6.98D-07
 IDIUse=1 WtCom= 1.00D+00 WtEn= 0.00D+00
 Coeff-Com:  0.177D+00 0.823D+00
 Coeff:      0.177D+00 0.823D+00
 Gap=     0.426 Goal=   None    Shift=    0.000
 RMSDP=1.00D-06 MaxDP=8.50D-05 DE=-9.25D-07 OVMax= 1.66D-04

 Cycle  10  Pass 1  IDiag  1:
 RMSU=  9.42D-07    CP:  1.00D+00  1.05D+00
 E= -1326.13042164884     Delta-E=       -0.000000219520 Rises=F Damp=F
 DIIS: error= 9.55D-06 at cycle   3 NSaved=   3.
 NSaved= 3 IEnMin= 3 EnMin= -1326.13042164884     IErMin= 3 ErrMin= 9.55D-06
 ErrMax= 9.55D-06  0.00D+00 EMaxC= 1.00D-01 BMatC= 5.40D-08 BMatP= 1.43D-07
 IDIUse=1 WtCom= 1.00D+00 WtEn= 0.00D+00
 Coeff-Com: -0.133D+00 0.253D+00 0.880D+00
 Coeff:     -0.133D+00 0.253D+00 0.880D+00
 Gap=     0.426 Goal=   None    Shift=    0.000
 RMSDP=7.23D-07 MaxDP=4.04D-05 DE=-2.20D-07 OVMax= 8.32D-05

 Cycle  11  Pass 1  IDiag  1:
 RMSU=  6.01D-07    CP:  1.00D+00  1.10D+00  1.26D+00
 E= -1326.13042175620     Delta-E=       -0.000000107359 Rises=F Damp=F
 DIIS: error= 3.37D-06 at cycle   4 NSaved=   4.
 NSaved= 4 IEnMin= 4 EnMin= -1326.13042175620     IErMin= 4 ErrMin= 3.37D-06
 ErrMax= 3.37D-06  0.00D+00 EMaxC= 1.00D-01 BMatC= 7.26D-09 BMatP= 5.40D-08
 IDIUse=1 WtCom= 1.00D+00 WtEn= 0.00D+00
 Coeff-Com:  0.994D-02-0.276D+00-0.464D+00 0.173D+01
 Coeff:      0.994D-02-0.276D+00-0.464D+00 0.173D+01
 Gap=     0.426 Goal=   None    Shift=    0.000
 RMSDP=6.94D-07 MaxDP=2.65D-05 DE=-1.07D-07 OVMax= 8.26D-05

 Cycle  12  Pass 1  IDiag  1:
 RMSU=  1.10D-07    CP:  1.00D+00  1.12D+00  1.74D+00  1.82D+00
 E= -1326.13042179241     Delta-E=       -0.000000036211 Rises=F Damp=F
 DIIS: error= 6.57D-07 at cycle   5 NSaved=   5.
 NSaved= 5 IEnMin= 5 EnMin= -1326.13042179241     IErMin= 5 ErrMin= 6.57D-07
 ErrMax= 6.57D-07  0.00D+00 EMaxC= 1.00D-01 BMatC= 3.85D-10 BMatP= 7.26D-09
 IDIUse=1 WtCom= 1.00D+00 WtEn= 0.00D+00
 Coeff-Com:  0.101D-01-0.910D-01-0.186D+00 0.505D+00 0.761D+00
 Coeff:      0.101D-01-0.910D-01-0.186D+00 0.505D+00 0.761D+00
 Gap=     0.426 Goal=   None    Shift=    0.000
 RMSDP=6.85D-08 MaxDP=3.25D-06 DE=-3.62D-08 OVMax= 7.28D-06

 Cycle  13  Pass 1  IDiag  1:
 RMSU=  3.48D-08    CP:  1.00D+00  1.12D+00  1.78D+00  1.90D+00  1.04D+00
 E= -1326.13042179305     Delta-E=       -0.000000000640 Rises=F Damp=F
 DIIS: error= 1.38D-07 at cycle   6 NSaved=   6.
 NSaved= 6 IEnMin= 6 EnMin= -1326.13042179305     IErMin= 6 ErrMin= 1.38D-07
 ErrMax= 1.38D-07  0.00D+00 EMaxC= 1.00D-01 BMatC= 2.46D-11 BMatP= 3.85D-10
 IDIUse=1 WtCom= 1.00D+00 WtEn= 0.00D+00
 Coeff-Com: -0.190D-02 0.331D-01 0.544D-01-0.195D+00-0.856D-01 0.120D+01
 Coeff:     -0.190D-02 0.331D-01 0.544D-01-0.195D+00-0.856D-01 0.120D+01
 Gap=     0.426 Goal=   None    Shift=    0.000
 RMSDP=2.40D-08 MaxDP=1.07D-06 DE=-6.40D-10 OVMax= 1.82D-06

 Cycle  14  Pass 1  IDiag  1:
 RMSU=  1.18D-08    CP:  1.00D+00  1.12D+00  1.78D+00  1.92D+00  1.17D+00
                    CP:  1.33D+00
 E= -1326.13042179307     Delta-E=       -0.000000000012 Rises=F Damp=F
 DIIS: error= 5.50D-08 at cycle   7 NSaved=   7.
 NSaved= 7 IEnMin= 7 EnMin= -1326.13042179307     IErMin= 7 ErrMin= 5.50D-08
 ErrMax= 5.50D-08  0.00D+00 EMaxC= 1.00D-01 BMatC= 4.27D-12 BMatP= 2.46D-11
 IDIUse=1 WtCom= 1.00D+00 WtEn= 0.00D+00
 Coeff-Com: -0.167D-02 0.191D-01 0.347D-01-0.105D+00-0.115D+00 0.283D+00
 Coeff-Com:  0.884D+00
 Coeff:     -0.167D-02 0.191D-01 0.347D-01-0.105D+00-0.115D+00 0.283D+00
 Coeff:      0.884D+00
 Gap=     0.426 Goal=   None    Shift=    0.000
 RMSDP=6.92D-09 MaxDP=3.43D-07 DE=-1.23D-11 OVMax= 6.04D-07

 SCF Done:  E(RHF) =  -1326.13042179     A.U. after   14 cycles
            NFock= 14  Conv=0.69D-08     -V/T= 2.0020
 KE= 1.323499486000D+03 PE=-7.957250495239D+03 EE= 2.872918003092D+03
 Leave Link  502 at Sun Feb  9 22:27:14 2020, MaxMem=   134217728 cpu:             273.9 elap:              45.7
 (Enter /home/soft/g16/l601.exe)
 Copying SCF densities to generalized density rwf, IOpCl= 0 IROHF=0.

 **********************************************************************

            Population analysis using the SCF density.

 **********************************************************************

 Alpha  occ. eigenvalues --  -20.68239 -20.61802 -20.59209 -20.58444 -20.58080
 Alpha  occ. eigenvalues --  -15.90483 -15.74187 -15.68805 -15.66541 -15.66529
 Alpha  occ. eigenvalues --  -15.65666 -11.52686 -11.49424 -11.45744 -11.43039
 Alpha  occ. eigenvalues --  -11.42224 -11.41865 -11.40268 -11.40110 -11.36798
 Alpha  occ. eigenvalues --  -11.35143 -11.34777 -11.32342 -11.29745 -11.28187
 Alpha  occ. eigenvalues --  -11.28096 -11.27522  -1.55169  -1.51507  -1.46567
 Alpha  occ. eigenvalues --   -1.44053  -1.43444  -1.42378  -1.37881  -1.32606
 Alpha  occ. eigenvalues --   -1.30607  -1.30365  -1.29446  -1.21129  -1.15965
 Alpha  occ. eigenvalues --   -1.13977  -1.12855  -1.10678  -1.08351  -1.01795
 Alpha  occ. eigenvalues --   -1.00209  -0.99860  -0.98395  -0.97952  -0.96549
 Alpha  occ. eigenvalues --   -0.94539  -0.93295  -0.90177  -0.88041  -0.87264
 Alpha  occ. eigenvalues --   -0.86158  -0.85443  -0.85213  -0.83275  -0.82071
 Alpha  occ. eigenvalues --   -0.80350  -0.78018  -0.77032  -0.75006  -0.73827
 Alpha  occ. eigenvalues --   -0.73740  -0.73424  -0.72646  -0.71613  -0.70949
 Alpha  occ. eigenvalues --   -0.70038  -0.69635  -0.69018  -0.67900  -0.67501
 Alpha  occ. eigenvalues --   -0.66519  -0.65859  -0.65319  -0.64875  -0.64660
 Alpha  occ. eigenvalues --   -0.63727  -0.63193  -0.62338  -0.62022  -0.61120
 Alpha  occ. eigenvalues --   -0.60710  -0.60174  -0.59959  -0.59633  -0.59150
 Alpha  occ. eigenvalues --   -0.58699  -0.58574  -0.57818  -0.56462  -0.55071
 Alpha  occ. eigenvalues --   -0.53648  -0.51526  -0.49787  -0.48890  -0.48044
 Alpha  occ. eigenvalues --   -0.47546  -0.46068  -0.45779  -0.44713
 Alpha virt. eigenvalues --   -0.02128   0.02404   0.05914   0.07009   0.07805
 Alpha virt. eigenvalues --    0.08392   0.10989   0.11770   0.12869   0.13160
 Alpha virt. eigenvalues --    0.13577   0.14358   0.16263   0.17187   0.17441
 Alpha virt. eigenvalues --    0.17958   0.19109   0.19653   0.20609   0.21274
 Alpha virt. eigenvalues --    0.21443   0.22229   0.22770   0.22899   0.23472
 Alpha virt. eigenvalues --    0.23932   0.24549   0.24642   0.24994   0.25200
 Alpha virt. eigenvalues --    0.25396   0.26037   0.26697   0.26830   0.27407
 Alpha virt. eigenvalues --    0.27664   0.27974   0.28435   0.28532   0.29436
 Alpha virt. eigenvalues --    0.30122   0.30712   0.31822   0.32126   0.32420
 Alpha virt. eigenvalues --    0.33599   0.33735   0.34121   0.35145   0.35803
 Alpha virt. eigenvalues --    0.37430   0.39717   0.41249   0.42375   0.45627
 Alpha virt. eigenvalues --    0.46684   0.47445   0.48335   0.50173   0.52491
 Alpha virt. eigenvalues --    0.53202   0.54002   0.54697   0.55710   0.58734
 Alpha virt. eigenvalues --    0.60229   0.62821   0.63188   0.63360   0.63487
 Alpha virt. eigenvalues --    0.64341   0.65040   0.65612   0.66047   0.66820
 Alpha virt. eigenvalues --    0.67388   0.67685   0.68159   0.69130   0.69688
 Alpha virt. eigenvalues --    0.70423   0.70918   0.72671   0.72862   0.73664
 Alpha virt. eigenvalues --    0.73985   0.75229   0.76945   0.77228   0.78425
 Alpha virt. eigenvalues --    0.78871   0.79710   0.79847   0.80571   0.80610
 Alpha virt. eigenvalues --    0.81408   0.82409   0.83069   0.83783   0.84422
 Alpha virt. eigenvalues --    0.84805   0.85121   0.85622   0.86123   0.86400
 Alpha virt. eigenvalues --    0.86742   0.87843   0.88474   0.89780   0.90590
 Alpha virt. eigenvalues --    0.91679   0.92409   0.93507   0.94206   0.95019
 Alpha virt. eigenvalues --    0.95735   0.96493   0.97602   0.97947   0.98559
 Alpha virt. eigenvalues --    0.98853   0.99781   1.00240   1.00709   1.01942
 Alpha virt. eigenvalues --    1.02127   1.02711   1.03396   1.03515   1.03737
 Alpha virt. eigenvalues --    1.04699   1.04773   1.05561   1.06196   1.06301
 Alpha virt. eigenvalues --    1.06938   1.07230   1.07777   1.08100   1.08408
 Alpha virt. eigenvalues --    1.08823   1.09005   1.09310   1.09883   1.10273
 Alpha virt. eigenvalues --    1.10402   1.10943   1.11436   1.11826   1.12684
 Alpha virt. eigenvalues --    1.12987   1.13970   1.14702   1.15045   1.15436
 Alpha virt. eigenvalues --    1.16375   1.16427   1.16815   1.16906   1.17331
 Alpha virt. eigenvalues --    1.19016   1.20295   1.21252   1.22494   1.22820
 Alpha virt. eigenvalues --    1.26157   1.27620   1.28423   1.29006   1.29908
 Alpha virt. eigenvalues --    1.30546   1.31055   1.31482   1.34413   1.35907
 Alpha virt. eigenvalues --    1.36141   1.38019   1.38883   1.39828   1.40666
 Alpha virt. eigenvalues --    1.42544   1.43987   1.45526   1.47558   1.48830
 Alpha virt. eigenvalues --    1.49992   1.52321   1.52997   1.54108   1.55046
 Alpha virt. eigenvalues --    1.56843   1.58649   1.59408   1.60173   1.61034
 Alpha virt. eigenvalues --    1.63269   1.64655   1.65256   1.67301   1.67651
 Alpha virt. eigenvalues --    1.68740   1.69277   1.69791   1.71347   1.72488
 Alpha virt. eigenvalues --    1.74428   1.75332   1.76139   1.77247   1.78573
 Alpha virt. eigenvalues --    1.79247   1.79567   1.81265   1.82062   1.83374
 Alpha virt. eigenvalues --    1.83696   1.84681   1.85581   1.86835   1.87515
 Alpha virt. eigenvalues --    1.88362   1.90405   1.90600   1.91212   1.92529
 Alpha virt. eigenvalues --    1.93635   1.94328   1.95754   1.98530   1.98602
 Alpha virt. eigenvalues --    1.99945   2.00007   2.01963   2.02320   2.03206
 Alpha virt. eigenvalues --    2.03935   2.04087   2.04525   2.05791   2.07256
 Alpha virt. eigenvalues --    2.07756   2.08233   2.09079   2.09344   2.09481
 Alpha virt. eigenvalues --    2.10389   2.10927   2.11700   2.12192   2.13094
 Alpha virt. eigenvalues --    2.13476   2.14689   2.15167   2.16422   2.16751
 Alpha virt. eigenvalues --    2.17833   2.18753   2.18968   2.19828   2.20212
 Alpha virt. eigenvalues --    2.21817   2.22921   2.23588   2.25095   2.25622
 Alpha virt. eigenvalues --    2.26814   2.27203   2.28142   2.28643   2.29142
 Alpha virt. eigenvalues --    2.29525   2.29922   2.30142   2.30543   2.31268
 Alpha virt. eigenvalues --    2.31684   2.32899   2.33291   2.33472   2.33770
 Alpha virt. eigenvalues --    2.34092   2.34658   2.35511   2.35854   2.36647
 Alpha virt. eigenvalues --    2.37022   2.37649   2.37854   2.38153   2.38515
 Alpha virt. eigenvalues --    2.38780   2.39894   2.41005   2.41155   2.41877
 Alpha virt. eigenvalues --    2.42678   2.43909   2.44527   2.46170   2.47469
 Alpha virt. eigenvalues --    2.47983   2.49351   2.49865   2.52051   2.52209
 Alpha virt. eigenvalues --    2.52386   2.53455   2.53650   2.54097   2.54677
 Alpha virt. eigenvalues --    2.55232   2.56398   2.56951   2.57995   2.60089
 Alpha virt. eigenvalues --    2.61764   2.62207   2.63225   2.64342   2.65139
 Alpha virt. eigenvalues --    2.65969   2.67388   2.68563   2.70371   2.70975
 Alpha virt. eigenvalues --    2.71331   2.72426   2.73938   2.76778   2.77438
 Alpha virt. eigenvalues --    2.78053   2.79061   2.80497   2.81832   2.82308
 Alpha virt. eigenvalues --    2.83288   2.83528   2.84385   2.84731   2.86296
 Alpha virt. eigenvalues --    2.87185   2.87840   2.88610   2.89078   2.89659
 Alpha virt. eigenvalues --    2.90489   2.91083   2.92863   2.92945   2.93857
 Alpha virt. eigenvalues --    2.94683   2.95926   2.96747   2.96924   2.97761
 Alpha virt. eigenvalues --    2.97971   2.98908   2.99151   3.00077   3.01109
 Alpha virt. eigenvalues --    3.01260   3.02444   3.03582   3.04578   3.05606
 Alpha virt. eigenvalues --    3.05707   3.07690   3.08956   3.09853   3.10030
 Alpha virt. eigenvalues --    3.10462   3.11571   3.13529   3.14984   3.16432
 Alpha virt. eigenvalues --    3.16806   3.17511   3.18472   3.19383   3.19726
 Alpha virt. eigenvalues --    3.20166   3.21484   3.22047   3.22349   3.23057
 Alpha virt. eigenvalues --    3.23970   3.24550   3.25641   3.26704   3.30472
 Alpha virt. eigenvalues --    3.33116   3.33785   3.35231   3.35541   3.39813
 Alpha virt. eigenvalues --    3.40603   3.42587   3.45736   3.47960   3.48377
 Alpha virt. eigenvalues --    3.50612   3.50740   3.54097   3.56651   3.58263
 Alpha virt. eigenvalues --    3.58299   3.58923   3.60194   3.66336   3.68683
 Alpha virt. eigenvalues --    3.69285   3.70862   3.70885   3.71507   3.75569
 Alpha virt. eigenvalues --    3.78026   3.79594   3.79874   3.80666   3.81074
 Alpha virt. eigenvalues --    3.82774   3.84023   3.84524   3.85575   3.86299
 Alpha virt. eigenvalues --    3.88229   3.90274   3.92145   3.94356
          Condensed to atoms (all electrons):
 Mulliken charges:
               1
     1  C    0.790845
     2  O   -0.691805
     3  N   -0.721869
     4  C    0.004170
     5  C    0.790104
     6  O   -0.694868
     7  N   -0.723792
     8  C    0.006407
     9  C   -0.321735
    10  C   -0.322073
    11  C    0.789407
    12  O   -0.694026
    13  N   -0.725299
    14  C    0.006480
    15  C    0.787228
    16  O   -0.691950
    17  N   -0.720599
    18  C    0.141113
    19  C   -0.358546
    20  C   -0.322695
    21  N   -0.707058
    22  C   -0.006491
    23  C    0.762999
    24  O   -0.655215
    25  C   -0.324458
    26  C   -0.202041
    27  N   -0.591544
    28  H    0.343893
    29  H    0.342284
    30  H    0.342220
    31  H    0.368678
    32  H   -0.220309
    33  H    0.195269
    34  H    0.192087
    35  H    0.194585
    36  H    0.207614
    37  H    0.199383
    38  H    0.350418
    39  H    0.164204
    40  H    0.142359
    41  H    0.164373
    42  H    0.155565
    43  H    0.132657
    44  H    0.139975
    45  H    0.151593
    46  H    0.130197
    47  H    0.140572
    48  H    0.144457
    49  H    0.138440
    50  H    0.140734
    51  H    0.151999
    52  H    0.149464
    53  H    0.152419
    54  H    0.249110
    55  H    0.223410
    56  H    0.401622
    57  H    0.396460
    58  H    0.411582
 Sum of Mulliken charges =   1.00000
 Mulliken charges with hydrogens summed into heavy atoms:
               1
     1  C    0.790845
     2  O   -0.691805
     3  N   -0.377977
     4  C    0.199439
     5  C    0.790104
     6  O   -0.694868
     7  N   -0.381508
     8  C    0.198494
     9  C    0.100627
    10  C    0.101558
    11  C    0.789407
    12  O   -0.694026
    13  N   -0.383078
    14  C    0.201065
    15  C    0.787228
    16  O   -0.691950
    17  N   -0.351921
    18  C    0.128419
    19  C    0.112391
    20  C    0.105502
    21  N   -0.356640
    22  C    0.192892
    23  C    0.762999
    24  O   -0.655215
    25  C    0.129424
    26  C    0.270478
    27  N    0.618120
 Electronic spatial extent (au):  <R**2>=         487377.6309
 Charge=              1.0000 electrons
 Dipole moment (field-independent basis, Debye):
    X=           -158.6081    Y=             -5.1691    Z=             -0.5331  Tot=            158.6932
 Quadrupole moment (field-independent basis, Debye-Ang):
   XX=           5165.5562   YY=           -149.2446   ZZ=           -163.9413
   XY=            176.5734   XZ=             53.0324   YZ=             15.3081
 Traceless Quadrupole moment (field-independent basis, Debye-Ang):
   XX=           3548.0994   YY=          -1766.7014   ZZ=          -1781.3981
   XY=            176.5734   XZ=             53.0324   YZ=             15.3081
 Octapole moment (field-independent basis, Debye-Ang**2):
  XXX=        -169066.3641  YYY=            -35.3741  ZZZ=             10.2737  XYY=           3668.1590
  XXY=          -6073.3180  XXZ=          -2441.9628  XZZ=           4021.0618  YZZ=            -20.7395
  YYZ=              1.9515  XYZ=           -434.8592
 Hexadecapole moment (field-independent basis, Debye-Ang**3):
 XXXX=        5576737.9758 YYYY=          -1413.4373 ZZZZ=           -744.0986 XXXY=         209673.3020
 XXXZ=          95470.7463 YYYX=            617.8558 YYYZ=            -53.6274 ZZZX=           -314.6790
 ZZZY=            -40.7019 XXYY=         -94724.8731 XXZZ=        -103439.7527 YYZZ=           -367.9137
 XXYZ=          12817.8863 YYXZ=            -36.3378 ZZXY=            457.5663
 N-N= 2.434702584355D+03 E-N=-7.957250491237D+03  KE= 1.323499486000D+03
 No NMR shielding tensors so no spin-rotation constants.
 Leave Link  601 at Sun Feb  9 22:27:14 2020, MaxMem=   134217728 cpu:               1.4 elap:               0.3
 (Enter /home/soft/g16/l607.exe)
 ******************************Gaussian NBO Version 3.1******************************
             N A T U R A L   A T O M I C   O R B I T A L   A N D
          N A T U R A L   B O N D   O R B I T A L   A N A L Y S I S
 ******************************Gaussian NBO Version 3.1******************************
       /RESON  / : Allow strongly delocalized NBO set

 Analyzing the SCF density

 Job title: Atom number=58                                                  

 Storage needed:    862950 in NPA ( 134200328 available)


 NATURAL POPULATIONS:  Natural atomic orbital occupancies 
                                                          
   NAO  Atom  No  lang   Type(AO)    Occupancy      Energy
 ----------------------------------------------------------
     1    C    1  S      Cor( 1S)     1.99926     -11.32348
     2    C    1  S      Val( 2S)     0.76365      -0.16377
     3    C    1  S      Ryd( 3S)     0.00562       0.94893
     4    C    1  px     Val( 2p)     0.88056      -0.05460
     5    C    1  px     Ryd( 3p)     0.00765       0.97297
     6    C    1  py     Val( 2p)     0.73637      -0.07106
     7    C    1  py     Ryd( 3p)     0.01088       0.88826
     8    C    1  pz     Val( 2p)     0.72466      -0.03972
     9    C    1  pz     Ryd( 3p)     0.01336       0.81356
    10    C    1  dxy    Ryd( 3d)     0.00289       2.46671
    11    C    1  dxz    Ryd( 3d)     0.00312       2.58385
    12    C    1  dyz    Ryd( 3d)     0.00148       2.60086
    13    C    1  dx2y2  Ryd( 3d)     0.00151       2.47072
    14    C    1  dz2    Ryd( 3d)     0.00319       2.52904

    15    O    2  S      Cor( 1S)     1.99976     -20.35342
    16    O    2  S      Val( 2S)     1.71112      -1.21340
    17    O    2  S      Ryd( 3S)     0.00008       2.07084
    18    O    2  px     Val( 2p)     1.88081      -0.49952
    19    O    2  px     Ryd( 3p)     0.00231       1.41881
    20    O    2  py     Val( 2p)     1.59441      -0.43580
    21    O    2  py     Ryd( 3p)     0.00085       1.28918
    22    O    2  pz     Val( 2p)     1.58204      -0.44675
    23    O    2  pz     Ryd( 3p)     0.00064       1.26062
    24    O    2  dxy    Ryd( 3d)     0.00182       2.14254
    25    O    2  dxz    Ryd( 3d)     0.00298       2.17922
    26    O    2  dyz    Ryd( 3d)     0.00533       2.55684
    27    O    2  dx2y2  Ryd( 3d)     0.00235       2.15807
    28    O    2  dz2    Ryd( 3d)     0.00559       2.22042

    29    N    3  S      Cor( 1S)     1.99917     -15.50526
    30    N    3  S      Val( 2S)     1.25365      -0.71720
    31    N    3  S      Ryd( 3S)     0.00141       1.65902
    32    N    3  px     Val( 2p)     1.34083      -0.37239
    33    N    3  px     Ryd( 3p)     0.00360       1.19943
    34    N    3  py     Val( 2p)     1.58654      -0.41839
    35    N    3  py     Ryd( 3p)     0.00494       1.23100
    36    N    3  pz     Val( 2p)     1.52671      -0.40689
    37    N    3  pz     Ryd( 3p)     0.00426       1.27340
    38    N    3  dxy    Ryd( 3d)     0.00090       2.47731
    39    N    3  dxz    Ryd( 3d)     0.00090       2.63907
    40    N    3  dyz    Ryd( 3d)     0.00072       2.64318
    41    N    3  dx2y2  Ryd( 3d)     0.00075       2.53812
    42    N    3  dz2    Ryd( 3d)     0.00053       2.38220

    43    C    4  S      Cor( 1S)     1.99907     -11.22754
    44    C    4  S      Val( 2S)     0.96695      -0.29893
    45    C    4  S      Ryd( 3S)     0.00168       1.63167
    46    C    4  px     Val( 2p)     0.89552      -0.10153
    47    C    4  px     Ryd( 3p)     0.00563       0.90878
    48    C    4  py     Val( 2p)     1.00125      -0.13683
    49    C    4  py     Ryd( 3p)     0.00214       0.78675
    50    C    4  pz     Val( 2p)     1.20678      -0.17266
    51    C    4  pz     Ryd( 3p)     0.00618       1.04968
    52    C    4  dxy    Ryd( 3d)     0.00241       2.48568
    53    C    4  dxz    Ryd( 3d)     0.00080       2.31272
    54    C    4  dyz    Ryd( 3d)     0.00110       2.44288
    55    C    4  dx2y2  Ryd( 3d)     0.00130       2.41627
    56    C    4  dz2    Ryd( 3d)     0.00207       2.76941

    57    C    5  S      Cor( 1S)     1.99925     -11.29622
    58    C    5  S      Val( 2S)     0.76592      -0.13794
    59    C    5  S      Ryd( 3S)     0.00583       0.97749
    60    C    5  px     Val( 2p)     0.88139      -0.02645
    61    C    5  px     Ryd( 3p)     0.00756       1.00250
    62    C    5  py     Val( 2p)     0.73328      -0.04368
    63    C    5  py     Ryd( 3p)     0.01087       0.91311
    64    C    5  pz     Val( 2p)     0.72146      -0.01217
    65    C    5  pz     Ryd( 3p)     0.01331       0.84075
    66    C    5  dxy    Ryd( 3d)     0.00287       2.49171
    67    C    5  dxz    Ryd( 3d)     0.00314       2.61041
    68    C    5  dyz    Ryd( 3d)     0.00146       2.62782
    69    C    5  dx2y2  Ryd( 3d)     0.00154       2.50337
    70    C    5  dz2    Ryd( 3d)     0.00313       2.55453

    71    O    6  S      Cor( 1S)     1.99976     -20.32759
    72    O    6  S      Val( 2S)     1.71105      -1.18781
    73    O    6  S      Ryd( 3S)     0.00009       2.09692
    74    O    6  px     Val( 2p)     1.88359      -0.47460
    75    O    6  px     Ryd( 3p)     0.00231       1.44788
    76    O    6  py     Val( 2p)     1.59369      -0.41005
    77    O    6  py     Ryd( 3p)     0.00082       1.31405
    78    O    6  pz     Val( 2p)     1.58212      -0.42150
    79    O    6  pz     Ryd( 3p)     0.00061       1.28536
    80    O    6  dxy    Ryd( 3d)     0.00182       2.16829
    81    O    6  dxz    Ryd( 3d)     0.00294       2.20593
    82    O    6  dyz    Ryd( 3d)     0.00530       2.58263
    83    O    6  dx2y2  Ryd( 3d)     0.00234       2.18430
    84    O    6  dz2    Ryd( 3d)     0.00556       2.24545

    85    N    7  S      Cor( 1S)     1.99917     -15.48271
    86    N    7  S      Val( 2S)     1.25321      -0.69494
    87    N    7  S      Ryd( 3S)     0.00137       1.68143
    88    N    7  px     Val( 2p)     1.33786      -0.34969
    89    N    7  px     Ryd( 3p)     0.00351       1.22120
    90    N    7  py     Val( 2p)     1.58943      -0.39712
    91    N    7  py     Ryd( 3p)     0.00493       1.25249
    92    N    7  pz     Val( 2p)     1.53113      -0.38586
    93    N    7  pz     Ryd( 3p)     0.00426       1.29475
    94    N    7  dxy    Ryd( 3d)     0.00088       2.49836
    95    N    7  dxz    Ryd( 3d)     0.00089       2.65782
    96    N    7  dyz    Ryd( 3d)     0.00071       2.66618
    97    N    7  dx2y2  Ryd( 3d)     0.00075       2.56515
    98    N    7  dz2    Ryd( 3d)     0.00052       2.40174

    99    C    8  S      Cor( 1S)     1.99907     -11.21098
   100    C    8  S      Val( 2S)     0.96613      -0.28197
   101    C    8  S      Ryd( 3S)     0.00168       1.64779
   102    C    8  px     Val( 2p)     0.89679      -0.08521
   103    C    8  px     Ryd( 3p)     0.00574       0.92630
   104    C    8  py     Val( 2p)     1.00221      -0.12066
   105    C    8  py     Ryd( 3p)     0.00213       0.80327
   106    C    8  pz     Val( 2p)     1.20523      -0.15560
   107    C    8  pz     Ryd( 3p)     0.00610       1.06564
   108    C    8  dxy    Ryd( 3d)     0.00242       2.50278
   109    C    8  dxz    Ryd( 3d)     0.00081       2.32955
   110    C    8  dyz    Ryd( 3d)     0.00110       2.45965
   111    C    8  dx2y2  Ryd( 3d)     0.00130       2.43309
   112    C    8  dz2    Ryd( 3d)     0.00208       2.78561

   113    C    9  S      Cor( 1S)     1.99936     -11.13832
   114    C    9  S      Val( 2S)     1.09261      -0.32407
   115    C    9  S      Ryd( 3S)     0.00058       1.44672
   116    C    9  px     Val( 2p)     1.24824      -0.13431
   117    C    9  px     Ryd( 3p)     0.00199       0.84363
   118    C    9  py     Val( 2p)     1.08681      -0.10997
   119    C    9  py     Ryd( 3p)     0.00206       0.73949
   120    C    9  pz     Val( 2p)     1.19836      -0.12542
   121    C    9  pz     Ryd( 3p)     0.00164       0.77330
   122    C    9  dxy    Ryd( 3d)     0.00126       2.74754
   123    C    9  dxz    Ryd( 3d)     0.00037       2.44424
   124    C    9  dyz    Ryd( 3d)     0.00097       2.48259
   125    C    9  dx2y2  Ryd( 3d)     0.00089       2.50738
   126    C    9  dz2    Ryd( 3d)     0.00153       2.83160

   127    C   10  S      Cor( 1S)     1.99936     -11.15485
   128    C   10  S      Val( 2S)     1.09264      -0.34058
   129    C   10  S      Ryd( 3S)     0.00058       1.43013
   130    C   10  px     Val( 2p)     1.24866      -0.15101
   131    C   10  px     Ryd( 3p)     0.00199       0.82683
   132    C   10  py     Val( 2p)     1.08640      -0.12629
   133    C   10  py     Ryd( 3p)     0.00205       0.72289
   134    C   10  pz     Val( 2p)     1.19846      -0.14185
   135    C   10  pz     Ryd( 3p)     0.00164       0.75728
   136    C   10  dxy    Ryd( 3d)     0.00126       2.73044
   137    C   10  dxz    Ryd( 3d)     0.00037       2.42807
   138    C   10  dyz    Ryd( 3d)     0.00097       2.46571
   139    C   10  dx2y2  Ryd( 3d)     0.00089       2.49103
   140    C   10  dz2    Ryd( 3d)     0.00153       2.81540

   141    C   11  S      Cor( 1S)     1.99925     -11.28440
   142    C   11  S      Val( 2S)     0.76718      -0.12681
   143    C   11  S      Ryd( 3S)     0.00596       0.99023
   144    C   11  px     Val( 2p)     0.88138      -0.01507
   145    C   11  px     Ryd( 3p)     0.00751       1.01372
   146    C   11  py     Val( 2p)     0.73252      -0.03145
   147    C   11  py     Ryd( 3p)     0.01089       0.92440
   148    C   11  pz     Val( 2p)     0.71927       0.00078
   149    C   11  pz     Ryd( 3p)     0.01328       0.85237
   150    C   11  dxy    Ryd( 3d)     0.00286       2.50480
   151    C   11  dxz    Ryd( 3d)     0.00314       2.62253
   152    C   11  dyz    Ryd( 3d)     0.00146       2.63966
   153    C   11  dx2y2  Ryd( 3d)     0.00154       2.51246
   154    C   11  dz2    Ryd( 3d)     0.00311       2.56722

   155    O   12  S      Cor( 1S)     1.99976     -20.31638
   156    O   12  S      Val( 2S)     1.71113      -1.17641
   157    O   12  S      Ryd( 3S)     0.00010       2.10897
   158    O   12  px     Val( 2p)     1.88253      -0.46280
   159    O   12  px     Ryd( 3p)     0.00231       1.45857
   160    O   12  py     Val( 2p)     1.59295      -0.39853
   161    O   12  py     Ryd( 3p)     0.00079       1.32518
   162    O   12  pz     Val( 2p)     1.58271      -0.41018
   163    O   12  pz     Ryd( 3p)     0.00060       1.29694
   164    O   12  dxy    Ryd( 3d)     0.00182       2.17997
   165    O   12  dxz    Ryd( 3d)     0.00293       2.21645
   166    O   12  dyz    Ryd( 3d)     0.00530       2.59437
   167    O   12  dx2y2  Ryd( 3d)     0.00234       2.19583
   168    O   12  dz2    Ryd( 3d)     0.00555       2.25680

   169    N   13  S      Cor( 1S)     1.99917     -15.47410
   170    N   13  S      Val( 2S)     1.25284      -0.68647
   171    N   13  S      Ryd( 3S)     0.00135       1.68886
   172    N   13  px     Val( 2p)     1.33793      -0.34133
   173    N   13  px     Ryd( 3p)     0.00343       1.22852
   174    N   13  py     Val( 2p)     1.59236      -0.38950
   175    N   13  py     Ryd( 3p)     0.00494       1.26079
   176    N   13  pz     Val( 2p)     1.53147      -0.37780
   177    N   13  pz     Ryd( 3p)     0.00425       1.30262
   178    N   13  dxy    Ryd( 3d)     0.00087       2.50465
   179    N   13  dxz    Ryd( 3d)     0.00089       2.66815
   180    N   13  dyz    Ryd( 3d)     0.00070       2.67382
   181    N   13  dx2y2  Ryd( 3d)     0.00073       2.56910
   182    N   13  dz2    Ryd( 3d)     0.00052       2.41199

   183    C   14  S      Cor( 1S)     1.99907     -11.20746
   184    C   14  S      Val( 2S)     0.96607      -0.27815
   185    C   14  S      Ryd( 3S)     0.00172       1.64810
   186    C   14  px     Val( 2p)     0.89356      -0.08038
   187    C   14  px     Ryd( 3p)     0.00579       0.92959
   188    C   14  py     Val( 2p)     1.00295      -0.11692
   189    C   14  py     Ryd( 3p)     0.00209       0.80715
   190    C   14  pz     Val( 2p)     1.20781      -0.15244
   191    C   14  pz     Ryd( 3p)     0.00616       1.06815
   192    C   14  dxy    Ryd( 3d)     0.00244       2.50498
   193    C   14  dxz    Ryd( 3d)     0.00082       2.33262
   194    C   14  dyz    Ryd( 3d)     0.00110       2.46309
   195    C   14  dx2y2  Ryd( 3d)     0.00131       2.43613
   196    C   14  dz2    Ryd( 3d)     0.00209       2.78865

   197    C   15  S      Cor( 1S)     1.99926     -11.28841
   198    C   15  S      Val( 2S)     0.77111      -0.13326
   199    C   15  S      Ryd( 3S)     0.00622       0.98850
   200    C   15  px     Val( 2p)     0.88300      -0.02117
   201    C   15  px     Ryd( 3p)     0.00769       0.99703
   202    C   15  py     Val( 2p)     0.73232      -0.03430
   203    C   15  py     Ryd( 3p)     0.01100       0.91562
   204    C   15  pz     Val( 2p)     0.71628      -0.00143
   205    C   15  pz     Ryd( 3p)     0.01313       0.85091
   206    C   15  dxy    Ryd( 3d)     0.00286       2.49851
   207    C   15  dxz    Ryd( 3d)     0.00317       2.61827
   208    C   15  dyz    Ryd( 3d)     0.00147       2.63331
   209    C   15  dx2y2  Ryd( 3d)     0.00159       2.50858
   210    C   15  dz2    Ryd( 3d)     0.00306       2.56045

   211    O   16  S      Cor( 1S)     1.99976     -20.32031
   212    O   16  S      Val( 2S)     1.71166      -1.17999
   213    O   16  S      Ryd( 3S)     0.00010       2.10870
   214    O   16  px     Val( 2p)     1.88166      -0.46614
   215    O   16  px     Ryd( 3p)     0.00233       1.45072
   216    O   16  py     Val( 2p)     1.59288      -0.40152
   217    O   16  py     Ryd( 3p)     0.00078       1.31841
   218    O   16  pz     Val( 2p)     1.58029      -0.41256
   219    O   16  pz     Ryd( 3p)     0.00059       1.29249
   220    O   16  dxy    Ryd( 3d)     0.00181       2.17429
   221    O   16  dxz    Ryd( 3d)     0.00299       2.21212
   222    O   16  dyz    Ryd( 3d)     0.00533       2.58876
   223    O   16  dx2y2  Ryd( 3d)     0.00232       2.19074
   224    O   16  dz2    Ryd( 3d)     0.00563       2.25014

   225    N   17  S      Cor( 1S)     1.99914     -15.48748
   226    N   17  S      Val( 2S)     1.26200      -0.70377
   227    N   17  S      Ryd( 3S)     0.00107       1.67637
   228    N   17  px     Val( 2p)     1.32647      -0.34394
   229    N   17  px     Ryd( 3p)     0.00245       1.18336
   230    N   17  py     Val( 2p)     1.59526      -0.39773
   231    N   17  py     Ryd( 3p)     0.00490       1.23187
   232    N   17  pz     Val( 2p)     1.53504      -0.38447
   233    N   17  pz     Ryd( 3p)     0.00420       1.27610
   234    N   17  dxy    Ryd( 3d)     0.00089       2.45928
   235    N   17  dxz    Ryd( 3d)     0.00091       2.61126
   236    N   17  dyz    Ryd( 3d)     0.00068       2.64728
   237    N   17  dx2y2  Ryd( 3d)     0.00066       2.52404
   238    N   17  dz2    Ryd( 3d)     0.00056       2.39323

   239    C   18  S      Cor( 1S)     1.99924     -11.27533
   240    C   18  S      Val( 2S)     0.97682      -0.29998
   241    C   18  S      Ryd( 3S)     0.00161       1.45600
   242    C   18  px     Val( 2p)     0.76756      -0.04040
   243    C   18  px     Ryd( 3p)     0.00462       0.81932
   244    C   18  py     Val( 2p)     0.94065      -0.11120
   245    C   18  py     Ryd( 3p)     0.00260       0.72621
   246    C   18  pz     Val( 2p)     1.19689      -0.17371
   247    C   18  pz     Ryd( 3p)     0.00388       0.82841
   248    C   18  dxy    Ryd( 3d)     0.00228       2.54919
   249    C   18  dxz    Ryd( 3d)     0.00075       2.31707
   250    C   18  dyz    Ryd( 3d)     0.00113       2.42277
   251    C   18  dx2y2  Ryd( 3d)     0.00125       2.39589
   252    C   18  dz2    Ryd( 3d)     0.00207       2.73158

   253    C   19  S      Cor( 1S)     1.99936     -11.14219
   254    C   19  S      Val( 2S)     1.10404      -0.33621
   255    C   19  S      Ryd( 3S)     0.00058       1.40915
   256    C   19  px     Val( 2p)     1.25249      -0.13519
   257    C   19  px     Ryd( 3p)     0.00149       0.80129
   258    C   19  py     Val( 2p)     1.07759      -0.10910
   259    C   19  py     Ryd( 3p)     0.00168       0.71923
   260    C   19  pz     Val( 2p)     1.20609      -0.12870
   261    C   19  pz     Ryd( 3p)     0.00164       0.75857
   262    C   19  dxy    Ryd( 3d)     0.00115       2.72906
   263    C   19  dxz    Ryd( 3d)     0.00043       2.41893
   264    C   19  dyz    Ryd( 3d)     0.00102       2.46599
   265    C   19  dx2y2  Ryd( 3d)     0.00100       2.47748
   266    C   19  dz2    Ryd( 3d)     0.00145       2.80982

   267    C   20  S      Cor( 1S)     1.99936     -11.13263
   268    C   20  S      Val( 2S)     1.09295      -0.31854
   269    C   20  S      Ryd( 3S)     0.00059       1.45173
   270    C   20  px     Val( 2p)     1.25004      -0.12906
   271    C   20  px     Ryd( 3p)     0.00202       0.84840
   272    C   20  py     Val( 2p)     1.08568      -0.10395
   273    C   20  py     Ryd( 3p)     0.00208       0.74508
   274    C   20  pz     Val( 2p)     1.19776      -0.11944
   275    C   20  pz     Ryd( 3p)     0.00166       0.77943
   276    C   20  dxy    Ryd( 3d)     0.00125       2.75190
   277    C   20  dxz    Ryd( 3d)     0.00037       2.44967
   278    C   20  dyz    Ryd( 3d)     0.00097       2.48775
   279    C   20  dx2y2  Ryd( 3d)     0.00090       2.51252
   280    C   20  dz2    Ryd( 3d)     0.00153       2.83698

   281    N   21  S      Cor( 1S)     1.99918     -15.55946
   282    N   21  S      Val( 2S)     1.25659      -0.77061
   283    N   21  S      Ryd( 3S)     0.00161       1.58429
   284    N   21  px     Val( 2p)     1.33432      -0.42255
   285    N   21  px     Ryd( 3p)     0.00384       1.12867
   286    N   21  py     Val( 2p)     1.57966      -0.46850
   287    N   21  py     Ryd( 3p)     0.00504       1.15628
   288    N   21  pz     Val( 2p)     1.52151      -0.45636
   289    N   21  pz     Ryd( 3p)     0.00418       1.22564
   290    N   21  dxy    Ryd( 3d)     0.00095       2.41922
   291    N   21  dxz    Ryd( 3d)     0.00092       2.57517
   292    N   21  dyz    Ryd( 3d)     0.00075       2.58902
   293    N   21  dx2y2  Ryd( 3d)     0.00082       2.49156
   294    N   21  dz2    Ryd( 3d)     0.00054       2.32362

   295    C   22  S      Cor( 1S)     1.99906     -11.26235
   296    C   22  S      Val( 2S)     0.97001      -0.33549
   297    C   22  S      Ryd( 3S)     0.00173       1.59392
   298    C   22  px     Val( 2p)     0.88702      -0.13482
   299    C   22  px     Ryd( 3p)     0.00546       0.87214
   300    C   22  py     Val( 2p)     1.00860      -0.17405
   301    C   22  py     Ryd( 3p)     0.00214       0.75054
   302    C   22  pz     Val( 2p)     1.20762      -0.20778
   303    C   22  pz     Ryd( 3p)     0.00626       1.01515
   304    C   22  dxy    Ryd( 3d)     0.00241       2.44891
   305    C   22  dxz    Ryd( 3d)     0.00078       2.27617
   306    C   22  dyz    Ryd( 3d)     0.00109       2.40663
   307    C   22  dx2y2  Ryd( 3d)     0.00122       2.37926
   308    C   22  dz2    Ryd( 3d)     0.00208       2.73268

   309    C   23  S      Cor( 1S)     1.99934     -11.39674
   310    C   23  S      Val( 2S)     0.76656      -0.23853
   311    C   23  S      Ryd( 3S)     0.00404       0.81152
   312    C   23  px     Val( 2p)     0.87308      -0.12405
   313    C   23  px     Ryd( 3p)     0.00763       0.89794
   314    C   23  py     Val( 2p)     0.75636      -0.14864
   315    C   23  py     Ryd( 3p)     0.00961       0.77322
   316    C   23  pz     Val( 2p)     0.74650      -0.11672
   317    C   23  pz     Ryd( 3p)     0.01343       0.73380
   318    C   23  dxy    Ryd( 3d)     0.00316       2.38452
   319    C   23  dxz    Ryd( 3d)     0.00303       2.50894
   320    C   23  dyz    Ryd( 3d)     0.00142       2.52246
   321    C   23  dx2y2  Ryd( 3d)     0.00150       2.38475
   322    C   23  dz2    Ryd( 3d)     0.00327       2.46063

   323    O   24  S      Cor( 1S)     1.99976     -20.41840
   324    O   24  S      Val( 2S)     1.71387      -1.27567
   325    O   24  S      Ryd( 3S)     0.00009       1.97695
   326    O   24  px     Val( 2p)     1.87274      -0.55844
   327    O   24  px     Ryd( 3p)     0.00216       1.34059
   328    O   24  py     Val( 2p)     1.57683      -0.49098
   329    O   24  py     Ryd( 3p)     0.00097       1.21425
   330    O   24  pz     Val( 2p)     1.57809      -0.50576
   331    O   24  pz     Ryd( 3p)     0.00074       1.20252
   332    O   24  dxy    Ryd( 3d)     0.00218       2.07682
   333    O   24  dxz    Ryd( 3d)     0.00301       2.11625
   334    O   24  dyz    Ryd( 3d)     0.00550       2.48833
   335    O   24  dx2y2  Ryd( 3d)     0.00262       2.09341
   336    O   24  dz2    Ryd( 3d)     0.00572       2.14937

   337    C   25  S      Cor( 1S)     1.99936     -11.18108
   338    C   25  S      Val( 2S)     1.09416      -0.36757
   339    C   25  S      Ryd( 3S)     0.00059       1.40418
   340    C   25  px     Val( 2p)     1.25504      -0.17906
   341    C   25  px     Ryd( 3p)     0.00208       0.80043
   342    C   25  py     Val( 2p)     1.07884      -0.14979
   343    C   25  py     Ryd( 3p)     0.00225       0.69986
   344    C   25  pz     Val( 2p)     1.19972      -0.16808
   345    C   25  pz     Ryd( 3p)     0.00175       0.73295
   346    C   25  dxy    Ryd( 3d)     0.00120       2.70327
   347    C   25  dxz    Ryd( 3d)     0.00039       2.40123
   348    C   25  dyz    Ryd( 3d)     0.00099       2.43915
   349    C   25  dx2y2  Ryd( 3d)     0.00092       2.46391
   350    C   25  dz2    Ryd( 3d)     0.00150       2.78881

   351    C   26  S      Cor( 1S)     1.99916     -11.36087
   352    C   26  S      Val( 2S)     1.05096      -0.48654
   353    C   26  S      Ryd( 3S)     0.00150       1.34085
   354    C   26  px     Val( 2p)     1.06000      -0.28760
   355    C   26  px     Ryd( 3p)     0.00419       0.60501
   356    C   26  py     Val( 2p)     1.22732      -0.31786
   357    C   26  py     Ryd( 3p)     0.00354       0.69988
   358    C   26  pz     Val( 2p)     0.94345      -0.24633
   359    C   26  pz     Ryd( 3p)     0.00238       0.58561
   360    C   26  dxy    Ryd( 3d)     0.00142       2.38433
   361    C   26  dxz    Ryd( 3d)     0.00216       2.43620
   362    C   26  dyz    Ryd( 3d)     0.00115       2.47135
   363    C   26  dx2y2  Ryd( 3d)     0.00097       2.29250
   364    C   26  dz2    Ryd( 3d)     0.00111       2.24585

   365    N   27  S      Cor( 1S)     1.99951     -15.73392
   366    N   27  S      Val( 2S)     1.37136      -1.01306
   367    N   27  S      Ryd( 3S)     0.00051       1.50641
   368    N   27  px     Val( 2p)     1.46045      -0.58802
   369    N   27  px     Ryd( 3p)     0.00262       0.85529
   370    N   27  py     Val( 2p)     1.50132      -0.59949
   371    N   27  py     Ryd( 3p)     0.00137       0.81771
   372    N   27  pz     Val( 2p)     1.42790      -0.58031
   373    N   27  pz     Ryd( 3p)     0.00112       0.75792
   374    N   27  dxy    Ryd( 3d)     0.00105       2.55929
   375    N   27  dxz    Ryd( 3d)     0.00116       2.48938
   376    N   27  dyz    Ryd( 3d)     0.00098       2.45965
   377    N   27  dx2y2  Ryd( 3d)     0.00051       2.36335
   378    N   27  dz2    Ryd( 3d)     0.00064       2.24835

   379    H   28  S      Val( 1S)     0.54162       0.24263
   380    H   28  S      Ryd( 2S)     0.00232       0.68177
   381    H   28  px     Ryd( 2p)     0.00009       2.75326
   382    H   28  py     Ryd( 2p)     0.00064       2.83699
   383    H   28  pz     Ryd( 2p)     0.00082       3.01455

   384    H   29  S      Val( 1S)     0.54278       0.26282
   385    H   29  S      Ryd( 2S)     0.00222       0.70177
   386    H   29  px     Ryd( 2p)     0.00008       2.77628
   387    H   29  py     Ryd( 2p)     0.00064       2.85899
   388    H   29  pz     Ryd( 2p)     0.00082       3.03312

   389    H   30  S      Val( 1S)     0.54337       0.27032
   390    H   30  S      Ryd( 2S)     0.00211       0.70988
   391    H   30  px     Ryd( 2p)     0.00008       2.78228
   392    H   30  py     Ryd( 2p)     0.00065       2.86558
   393    H   30  pz     Ryd( 2p)     0.00082       3.04339

   394    H   31  S      Val( 1S)     0.52995       0.28919
   395    H   31  S      Ryd( 2S)     0.00127       0.67077
   396    H   31  px     Ryd( 2p)     0.00006       2.76288
   397    H   31  py     Ryd( 2p)     0.00065       2.85682
   398    H   31  pz     Ryd( 2p)     0.00081       3.02551

   399    H   32  S      Val( 1S)     1.20617      -0.31340
   400    H   32  S      Ryd( 2S)     0.00287       0.71478
   401    H   32  px     Ryd( 2p)     0.00380       2.66850
   402    H   32  py     Ryd( 2p)     0.00139       2.49732
   403    H   32  pz     Ryd( 2p)     0.00032       2.45768

   404    H   33  S      Val( 1S)     0.73278       0.14367
   405    H   33  S      Ryd( 2S)     0.00191       0.72559
   406    H   33  px     Ryd( 2p)     0.00005       2.63364
   407    H   33  py     Ryd( 2p)     0.00006       2.67572
   408    H   33  pz     Ryd( 2p)     0.00081       3.28449

   409    H   34  S      Val( 1S)     0.73405       0.15854
   410    H   34  S      Ryd( 2S)     0.00196       0.74206
   411    H   34  px     Ryd( 2p)     0.00006       2.65009
   412    H   34  py     Ryd( 2p)     0.00006       2.69208
   413    H   34  pz     Ryd( 2p)     0.00080       3.30064

   414    H   35  S      Val( 1S)     0.73223       0.16485
   415    H   35  S      Ryd( 2S)     0.00200       0.74592
   416    H   35  px     Ryd( 2p)     0.00006       2.65438
   417    H   35  py     Ryd( 2p)     0.00006       2.69602
   418    H   35  pz     Ryd( 2p)     0.00081       3.30508

   419    H   36  S      Val( 1S)     0.73051       0.14921
   420    H   36  S      Ryd( 2S)     0.00210       0.71554
   421    H   36  px     Ryd( 2p)     0.00006       2.58490
   422    H   36  py     Ryd( 2p)     0.00007       2.59131
   423    H   36  pz     Ryd( 2p)     0.00084       3.27494

   424    H   37  S      Val( 1S)     0.73177       0.10994
   425    H   37  S      Ryd( 2S)     0.00181       0.69017
   426    H   37  px     Ryd( 2p)     0.00005       2.59822
   427    H   37  py     Ryd( 2p)     0.00006       2.64077
   428    H   37  pz     Ryd( 2p)     0.00080       3.24954

   429    H   38  S      Val( 1S)     0.53733       0.19830
   430    H   38  S      Ryd( 2S)     0.00256       0.62545
   431    H   38  px     Ryd( 2p)     0.00009       2.69478
   432    H   38  py     Ryd( 2p)     0.00062       2.78466
   433    H   38  pz     Ryd( 2p)     0.00084       2.95789

   434    H   39  S      Val( 1S)     0.75338       0.14571
   435    H   39  S      Ryd( 2S)     0.00092       0.76805
   436    H   39  px     Ryd( 2p)     0.00051       3.08867
   437    H   39  py     Ryd( 2p)     0.00025       2.78627
   438    H   39  pz     Ryd( 2p)     0.00007       2.61914

   439    H   40  S      Val( 1S)     0.76758       0.13646
   440    H   40  S      Ryd( 2S)     0.00081       0.74630
   441    H   40  px     Ryd( 2p)     0.00051       3.07646
   442    H   40  py     Ryd( 2p)     0.00026       2.78057
   443    H   40  pz     Ryd( 2p)     0.00007       2.63951

   444    H   41  S      Val( 1S)     0.75751       0.14908
   445    H   41  S      Ryd( 2S)     0.00111       0.75300
   446    H   41  px     Ryd( 2p)     0.00003       2.61032
   447    H   41  py     Ryd( 2p)     0.00005       2.58200
   448    H   41  pz     Ryd( 2p)     0.00075       3.30636

   449    H   42  S      Val( 1S)     0.75687       0.15486
   450    H   42  S      Ryd( 2S)     0.00095       0.76998
   451    H   42  px     Ryd( 2p)     0.00051       3.09673
   452    H   42  py     Ryd( 2p)     0.00023       2.80964
   453    H   42  pz     Ryd( 2p)     0.00008       2.65586

   454    H   43  S      Val( 1S)     0.77277       0.13492
   455    H   43  S      Ryd( 2S)     0.00086       0.76015
   456    H   43  px     Ryd( 2p)     0.00050       3.09734
   457    H   43  py     Ryd( 2p)     0.00026       2.79705
   458    H   43  pz     Ryd( 2p)     0.00008       2.64845

   459    H   44  S      Val( 1S)     0.76950       0.13993
   460    H   44  S      Ryd( 2S)     0.00132       0.76068
   461    H   44  px     Ryd( 2p)     0.00003       2.63299
   462    H   44  py     Ryd( 2p)     0.00005       2.61345
   463    H   44  pz     Ryd( 2p)     0.00075       3.31226

   464    H   45  S      Val( 1S)     0.75949       0.14632
   465    H   45  S      Ryd( 2S)     0.00096       0.76379
   466    H   45  px     Ryd( 2p)     0.00051       3.09451
   467    H   45  py     Ryd( 2p)     0.00023       2.80172
   468    H   45  pz     Ryd( 2p)     0.00008       2.64750

   469    H   46  S      Val( 1S)     0.77371       0.12774
   470    H   46  S      Ryd( 2S)     0.00088       0.75443
   471    H   46  px     Ryd( 2p)     0.00050       3.08724
   472    H   46  py     Ryd( 2p)     0.00026       2.79312
   473    H   46  pz     Ryd( 2p)     0.00008       2.64451

   474    H   47  S      Val( 1S)     0.76919       0.13460
   475    H   47  S      Ryd( 2S)     0.00133       0.75490
   476    H   47  px     Ryd( 2p)     0.00003       2.62802
   477    H   47  py     Ryd( 2p)     0.00005       2.60883
   478    H   47  pz     Ryd( 2p)     0.00075       3.30661

   479    H   48  S      Val( 1S)     0.76377       0.12458
   480    H   48  S      Ryd( 2S)     0.00096       0.74603
   481    H   48  px     Ryd( 2p)     0.00050       3.07578
   482    H   48  py     Ryd( 2p)     0.00023       2.78150
   483    H   48  pz     Ryd( 2p)     0.00009       2.63224

   484    H   49  S      Val( 1S)     0.76877       0.11713
   485    H   49  S      Ryd( 2S)     0.00084       0.73903
   486    H   49  px     Ryd( 2p)     0.00050       3.07291
   487    H   49  py     Ryd( 2p)     0.00026       2.77987
   488    H   49  pz     Ryd( 2p)     0.00007       2.62746

   489    H   50  S      Val( 1S)     0.76920       0.11818
   490    H   50  S      Ryd( 2S)     0.00135       0.73858
   491    H   50  px     Ryd( 2p)     0.00003       2.61145
   492    H   50  py     Ryd( 2p)     0.00005       2.59216
   493    H   50  pz     Ryd( 2p)     0.00075       3.29045

   494    H   51  S      Val( 1S)     0.76025       0.10068
   495    H   51  S      Ryd( 2S)     0.00077       0.71579
   496    H   51  px     Ryd( 2p)     0.00050       3.05262
   497    H   51  py     Ryd( 2p)     0.00027       2.75085
   498    H   51  pz     Ryd( 2p)     0.00007       2.60618

   499    H   52  S      Val( 1S)     0.76421       0.09812
   500    H   52  S      Ryd( 2S)     0.00129       0.71513
   501    H   52  px     Ryd( 2p)     0.00003       2.58696
   502    H   52  py     Ryd( 2p)     0.00005       2.56725
   503    H   52  pz     Ryd( 2p)     0.00076       3.26640

   504    H   53  S      Val( 1S)     0.76051       0.10291
   505    H   53  S      Ryd( 2S)     0.00086       0.72247
   506    H   53  px     Ryd( 2p)     0.00049       3.04833
   507    H   53  py     Ryd( 2p)     0.00025       2.76170
   508    H   53  pz     Ryd( 2p)     0.00008       2.60517

   509    H   54  S      Val( 1S)     0.71932       0.01416
   510    H   54  S      Ryd( 2S)     0.00089       0.56629
   511    H   54  px     Ryd( 2p)     0.00021       2.64814
   512    H   54  py     Ryd( 2p)     0.00027       2.64642
   513    H   54  pz     Ryd( 2p)     0.00040       2.78525

   514    H   55  S      Val( 1S)     0.73613      -0.00002
   515    H   55  S      Ryd( 2S)     0.00124       0.57656
   516    H   55  px     Ryd( 2p)     0.00011       2.47593
   517    H   55  py     Ryd( 2p)     0.00059       2.96900
   518    H   55  pz     Ryd( 2p)     0.00019       2.59290

   519    H   56  S      Val( 1S)     0.51541       0.09444
   520    H   56  S      Ryd( 2S)     0.00171       0.49311
   521    H   56  px     Ryd( 2p)     0.00046       2.61035
   522    H   56  py     Ryd( 2p)     0.00039       2.63491
   523    H   56  pz     Ryd( 2p)     0.00061       2.70473

   524    H   57  S      Val( 1S)     0.52144       0.08703
   525    H   57  S      Ryd( 2S)     0.00101       0.47366
   526    H   57  px     Ryd( 2p)     0.00086       2.89154
   527    H   57  py     Ryd( 2p)     0.00038       2.62752
   528    H   57  pz     Ryd( 2p)     0.00020       2.44225

   529    H   58  S      Val( 1S)     0.50134       0.11380
   530    H   58  S      Ryd( 2S)     0.00265       0.51965
   531    H   58  px     Ryd( 2p)     0.00014       2.50988
   532    H   58  py     Ryd( 2p)     0.00103       2.94318
   533    H   58  pz     Ryd( 2p)     0.00029       2.54076


 Summary of Natural Population Analysis:                  
                                                          
                                       Natural Population 
                Natural  -----------------------------------------------
    Atom  No    Charge         Core      Valence    Rydberg      Total
 -----------------------------------------------------------------------
      C    1    0.84580      1.99926     3.10524    0.04970     5.15420
      O    2   -0.79008      1.99976     6.76837    0.02195     8.79008
      N    3   -0.72491      1.99917     5.70773    0.01801     7.72491
      C    4   -0.09289      1.99907     4.07050    0.02332     6.09289
      C    5    0.84898      1.99925     3.10206    0.04971     5.15102
      O    6   -0.79199      1.99976     6.77045    0.02178     8.79199
      N    7   -0.72863      1.99917     5.71164    0.01782     7.72863
      C    8   -0.09279      1.99907     4.07035    0.02336     6.09279
      C    9   -0.63667      1.99936     4.62602    0.01129     6.63667
      C   10   -0.63681      1.99936     4.62617    0.01128     6.63681
      C   11    0.85065      1.99925     3.10035    0.04975     5.14935
      O   12   -0.79082      1.99976     6.76932    0.02174     8.79082
      N   13   -0.73145      1.99917     5.71461    0.01767     7.73145
      C   14   -0.09298      1.99907     4.07039    0.02352     6.09298
      C   15    0.84783      1.99926     3.10272    0.05019     5.15217
      O   16   -0.78813      1.99976     6.76649    0.02188     8.78813
      N   17   -0.73422      1.99914     5.71877    0.01631     7.73422
      C   18    0.09865      1.99924     3.88192    0.02019     5.90135
      C   19   -0.65000      1.99936     4.64021    0.01043     6.65000
      C   20   -0.63716      1.99936     4.62643    0.01136     6.63716
      N   21   -0.70991      1.99918     5.69208    0.01865     7.70991
      C   22   -0.09547      1.99906     4.07325    0.02316     6.09547
      C   23    0.81108      1.99934     3.14250    0.04708     5.18892
      O   24   -0.76428      1.99976     6.74153    0.02299     8.76428
      C   25   -0.63879      1.99936     4.62776    0.01167     6.63879
      C   26   -0.29931      1.99916     4.28173    0.01841     6.29931
      N   27   -0.77052      1.99951     5.76103    0.00997     7.77052
      H   28    0.45451      0.00000     0.54162    0.00387     0.54549
      H   29    0.45345      0.00000     0.54278    0.00377     0.54655
      H   30    0.45298      0.00000     0.54337    0.00365     0.54702
      H   31    0.46725      0.00000     0.52995    0.00280     0.53275
      H   32   -0.21454      0.00000     1.20617    0.00837     1.21454
      H   33    0.26439      0.00000     0.73278    0.00283     0.73561
      H   34    0.26306      0.00000     0.73405    0.00289     0.73694
      H   35    0.26485      0.00000     0.73223    0.00293     0.73515
      H   36    0.26642      0.00000     0.73051    0.00307     0.73358
      H   37    0.26550      0.00000     0.73177    0.00272     0.73450
      H   38    0.45856      0.00000     0.53733    0.00412     0.54144
      H   39    0.24487      0.00000     0.75338    0.00175     0.75513
      H   40    0.23077      0.00000     0.76758    0.00165     0.76923
      H   41    0.24056      0.00000     0.75751    0.00193     0.75944
      H   42    0.24136      0.00000     0.75687    0.00177     0.75864
      H   43    0.22553      0.00000     0.77277    0.00170     0.77447
      H   44    0.22835      0.00000     0.76950    0.00214     0.77165
      H   45    0.23874      0.00000     0.75949    0.00178     0.76126
      H   46    0.22457      0.00000     0.77371    0.00172     0.77543
      H   47    0.22865      0.00000     0.76919    0.00216     0.77135
      H   48    0.23445      0.00000     0.76377    0.00178     0.76555
      H   49    0.22955      0.00000     0.76877    0.00168     0.77045
      H   50    0.22863      0.00000     0.76920    0.00217     0.77137
      H   51    0.23814      0.00000     0.76025    0.00161     0.76186
      H   52    0.23367      0.00000     0.76421    0.00212     0.76633
      H   53    0.23781      0.00000     0.76051    0.00169     0.76219
      H   54    0.27890      0.00000     0.71932    0.00178     0.72110
      H   55    0.26174      0.00000     0.73613    0.00213     0.73826
      H   56    0.48143      0.00000     0.51541    0.00316     0.51857
      H   57    0.47611      0.00000     0.52144    0.00245     0.52389
      H   58    0.49454      0.00000     0.50134    0.00411     0.50546
 =======================================================================
   * Total *    1.00000     53.98197   153.29254    0.72549   208.00000

                                 Natural Population      
 --------------------------------------------------------
   Core                      53.98197 ( 99.9666% of  54)
   Valence                  153.29254 ( 99.5406% of 154)
   Natural Minimal Basis    207.27451 ( 99.6512% of 208)
   Natural Rydberg Basis      0.72549 (  0.3488% of 208)
 --------------------------------------------------------

    Atom  No          Natural Electron Configuration
 ----------------------------------------------------------------------------
      C    1      [core]2S( 0.76)2p( 2.34)3S( 0.01)3p( 0.03)3d( 0.01)
      O    2      [core]2S( 1.71)2p( 5.06)3d( 0.02)
      N    3      [core]2S( 1.25)2p( 4.45)3p( 0.01)
      C    4      [core]2S( 0.97)2p( 3.10)3p( 0.01)3d( 0.01)
      C    5      [core]2S( 0.77)2p( 2.34)3S( 0.01)3p( 0.03)3d( 0.01)
      O    6      [core]2S( 1.71)2p( 5.06)3d( 0.02)
      N    7      [core]2S( 1.25)2p( 4.46)3p( 0.01)
      C    8      [core]2S( 0.97)2p( 3.10)3p( 0.01)3d( 0.01)
      C    9      [core]2S( 1.09)2p( 3.53)3p( 0.01)3d( 0.01)
      C   10      [core]2S( 1.09)2p( 3.53)3p( 0.01)3d( 0.01)
      C   11      [core]2S( 0.77)2p( 2.33)3S( 0.01)3p( 0.03)3d( 0.01)
      O   12      [core]2S( 1.71)2p( 5.06)3d( 0.02)
      N   13      [core]2S( 1.25)2p( 4.46)3p( 0.01)
      C   14      [core]2S( 0.97)2p( 3.10)3p( 0.01)3d( 0.01)
      C   15      [core]2S( 0.77)2p( 2.33)3S( 0.01)3p( 0.03)3d( 0.01)
      O   16      [core]2S( 1.71)2p( 5.05)3d( 0.02)
      N   17      [core]2S( 1.26)2p( 4.46)3p( 0.01)
      C   18      [core]2S( 0.98)2p( 2.91)3p( 0.01)3d( 0.01)
      C   19      [core]2S( 1.10)2p( 3.54)3d( 0.01)
      C   20      [core]2S( 1.09)2p( 3.53)3p( 0.01)3d( 0.01)
      N   21      [core]2S( 1.26)2p( 4.44)3p( 0.01)
      C   22      [core]2S( 0.97)2p( 3.10)3p( 0.01)3d( 0.01)
      C   23      [core]2S( 0.77)2p( 2.38)3p( 0.03)3d( 0.01)
      O   24      [core]2S( 1.71)2p( 5.03)3d( 0.02)
      C   25      [core]2S( 1.09)2p( 3.53)3p( 0.01)3d( 0.01)
      C   26      [core]2S( 1.05)2p( 3.23)3p( 0.01)3d( 0.01)
      N   27      [core]2S( 1.37)2p( 4.39)3p( 0.01)
      H   28            1S( 0.54)
      H   29            1S( 0.54)
      H   30            1S( 0.54)
      H   31            1S( 0.53)
      H   32            1S( 1.21)2p( 0.01)
      H   33            1S( 0.73)
      H   34            1S( 0.73)
      H   35            1S( 0.73)
      H   36            1S( 0.73)
      H   37            1S( 0.73)
      H   38            1S( 0.54)
      H   39            1S( 0.75)
      H   40            1S( 0.77)
      H   41            1S( 0.76)
      H   42            1S( 0.76)
      H   43            1S( 0.77)
      H   44            1S( 0.77)
      H   45            1S( 0.76)
      H   46            1S( 0.77)
      H   47            1S( 0.77)
      H   48            1S( 0.76)
      H   49            1S( 0.77)
      H   50            1S( 0.77)
      H   51            1S( 0.76)
      H   52            1S( 0.76)
      H   53            1S( 0.76)
      H   54            1S( 0.72)
      H   55            1S( 0.74)
      H   56            1S( 0.52)
      H   57            1S( 0.52)
      H   58            1S( 0.50)


 NBO analysis skipped by request.
 Leave Link  607 at Sun Feb  9 22:27:15 2020, MaxMem=   134217728 cpu:               5.9 elap:               1.0
 (Enter /home/soft/g16/l9999.exe)

 Test job not archived.
 1\1\GINC-NODE09\SP\RHF\6-31G(d,p)\C16H31N6O5(1+)\ROOT\09-Feb-2020\0\\#
 p hf/6-31g(d,p) 5d 7f pop=npa charge nosymm\\Atom number=58\\1,1\C,0,-
 28.92011103,-0.10957075,0.40842711\O,0,-28.95071106,-0.89272938,1.3929
 4189\N,0,-27.79756193,0.02248095,-0.30676127\C,0,-26.59860648,-0.74574
 567,0.05777073\C,0,-25.34084859,0.05079684,-0.33544078\O,0,-25.3745375
 3,0.83347782,-1.32024688\N,0,-24.21266043,-0.08851648,0.36951011\C,0,-
 23.01400434,0.67529095,-0.00513183\C,0,-23.01089409,2.02279208,0.74037
 059\C,0,-26.60640476,-2.09404775,-0.68625187\C,0,-21.75464747,-0.12467
 167,0.37589694\O,0,-21.78077866,-0.90888683,1.35973061\N,0,-20.632814,
 0.01470798,-0.33914568\C,0,-19.42916758,-0.74611779,0.02558019\C,0,-18
 .17588033,0.05841713,-0.36633878\O,0,-18.21307112,0.84079634,-1.351228
 05\N,0,-17.04789203,-0.07397281,0.34036862\C,0,-15.85266112,0.69659926
 ,-0.03174289\C,0,-15.85891261,2.04442139,0.71319459\C,0,-19.4281988,-2
 .09414299,-0.71902108\N,0,-31.37754044,-0.06004522,0.40218815\C,0,-30.
 17499615,0.69726489,0.02672781\C,0,-32.50543829,0.08362068,-0.30246823
 \O,0,-32.53684167,0.86696814,-1.28680063\C,0,-30.16431954,2.04548029,0
 .77087064\C,0,-33.7653409,-0.70962604,0.09099903\N,0,-34.57268696,-0.9
 736481,-1.1087118\H,0,-27.77391109,0.64422092,-1.08962406\H,0,-24.1847
 9271,-0.71166951,1.15111005\H,0,-20.6129361,0.6368448,-1.12181425\H,0,
 -17.01782543,-0.69687498,1.12205073\H,0,-14.97529746,0.14553907,0.2355
 8776\H,0,-26.59440733,-0.92099605,1.11334726\H,0,-23.01876762,0.851409
 86,-1.06051668\H,0,-19.4245311,-0.9217513,1.08103723\H,0,-15.85573906,
 0.87240344,-1.08720598\H,0,-30.17893174,0.87251768,-1.02882779\H,0,-31
 .35243531,-0.68259063,1.18438064\H,0,-16.73625128,2.5955559,0.44590208
 \H,0,-14.98898493,2.60555186,0.44260872\H,0,-15.8559221,1.86861426,1.7
 6863982\H,0,-20.29920458,-2.65272994,-0.44653879\H,0,-18.55192429,-2.6
 4775115,-0.45337636\H,0,-19.432823,-1.91859011,-1.77450535\H,0,-23.885
 88443,2.57884226,0.47562253\H,0,-22.13860563,2.57925996,0.46773647\H,0
 ,-23.00608464,1.84652552,1.79575177\H,0,-27.48062171,-2.64717984,-0.41
 294921\H,0,-25.73334779,-2.65287191,-0.42094504\H,0,-26.61066487,-1.91
 888468,-1.74179632\H,0,-29.28888196,2.59674987,0.4976725\H,0,-30.16050
 049,1.87025712,1.82641317\H,0,-31.03614071,2.60622754,0.50555805\H,0,-
 34.34129416,-0.14032862,0.79033893\H,0,-33.47708669,-1.63791452,0.5383
 5734\H,0,-34.03433082,-1.50560911,-1.7623264\H,0,-35.39075971,-1.48884
 766,-0.85321049\H,0,-34.84215795,-0.10611349,-1.5267302\\Version=ES64L
 -G16RevA.03\HF=-1326.1304218\RMSD=6.919e-09\Dipole=-15.2374857,-2.1261
 73,-0.1292775\Quadrupole=2637.9249606,-1313.4991696,-1324.425791,131.2
 780172,39.4282615,11.3811971\PG=C01 [X(C16H31N6O5)]\\@


 BOOKS ARE LIGHTHOUSES ERECTED IN THE GREAT SEA OF TIME.
     -- E.P.WHIPPLE
 Job cpu time:       0 days  0 hours  5 minutes  6.3 seconds.
 Elapsed time:       0 days  0 hours  0 minutes 51.4 seconds.
 File lengths (MBytes):  RWF=    212 Int=      0 D2E=      0 Chk=     24 Scr=      8
 Normal termination of Gaussian 16 at Sun Feb  9 22:27:16 2020.
