 Entering Gaussian System, Link 0=g16
 Input=beta_3.gjf
 Output=beta_3.log
 Initial command:
 /home/soft/g16/l1.exe "/tmp/liwei01/gaussian/liaokang/Gau-197415.inp" -scrdir="/tmp/liwei01/gaussian/liaokang/"
 Entering Link 1 = /home/soft/g16/l1.exe PID=    197416.
  
 Copyright (c) 1988,1990,1992,1993,1995,1998,2003,2009,2016,
            Gaussian, Inc.  All Rights Reserved.
  
 This is part of the Gaussian(R) 16 program.  It is based on
 the Gaussian(R) 09 system (copyright 2009, Gaussian, Inc.),
 the Gaussian(R) 03 system (copyright 2003, Gaussian, Inc.),
 the Gaussian(R) 98 system (copyright 1998, Gaussian, Inc.),
 the Gaussian(R) 94 system (copyright 1995, Gaussian, Inc.),
 the Gaussian 92(TM) system (copyright 1992, Gaussian, Inc.),
 the Gaussian 90(TM) system (copyright 1990, Gaussian, Inc.),
 the Gaussian 88(TM) system (copyright 1988, Gaussian, Inc.),
 the Gaussian 86(TM) system (copyright 1986, Carnegie Mellon
 University), and the Gaussian 82(TM) system (copyright 1983,
 Carnegie Mellon University). Gaussian is a federally registered
 trademark of Gaussian, Inc.
  
 This software contains proprietary and confidential information,
 including trade secrets, belonging to Gaussian, Inc.
  
 This software is provided under written license and may be
 used, copied, transmitted, or stored only in accord with that
 written license.
  
 The following legend is applicable only to US Government
 contracts under FAR:
  
                    RESTRICTED RIGHTS LEGEND
  
 Use, reproduction and disclosure by the US Government is
 subject to restrictions as set forth in subparagraphs (a)
 and (c) of the Commercial Computer Software - Restricted
 Rights clause in FAR 52.227-19.
  
 Gaussian, Inc.
 340 Quinnipiac St., Bldg. 40, Wallingford CT 06492
  
  
 ---------------------------------------------------------------
 Warning -- This program may not be used in any manner that
 competes with the business of Gaussian, Inc. or will provide
 assistance to any competitor of Gaussian, Inc.  The licensee
 of this program is prohibited from giving any competitor of
 Gaussian, Inc. access to this program.  By using this program,
 the user acknowledges that Gaussian, Inc. is engaged in the
 business of creating and licensing software in the field of
 computational chemistry and represents and warrants to the
 licensee that it is not a competitor of Gaussian, Inc. and that
 it will not use this program in any manner prohibited above.
 ---------------------------------------------------------------
  

 Cite this work as:
 Gaussian 16, Revision A.03,
 M. J. Frisch, G. W. Trucks, H. B. Schlegel, G. E. Scuseria, 
 M. A. Robb, J. R. Cheeseman, G. Scalmani, V. Barone, 
 G. A. Petersson, H. Nakatsuji, X. Li, M. Caricato, A. V. Marenich, 
 J. Bloino, B. G. Janesko, R. Gomperts, B. Mennucci, H. P. Hratchian, 
 J. V. Ortiz, A. F. Izmaylov, J. L. Sonnenberg, D. Williams-Young, 
 F. Ding, F. Lipparini, F. Egidi, J. Goings, B. Peng, A. Petrone, 
 T. Henderson, D. Ranasinghe, V. G. Zakrzewski, J. Gao, N. Rega, 
 G. Zheng, W. Liang, M. Hada, M. Ehara, K. Toyota, R. Fukuda, 
 J. Hasegawa, M. Ishida, T. Nakajima, Y. Honda, O. Kitao, H. Nakai, 
 T. Vreven, K. Throssell, J. A. Montgomery, Jr., J. E. Peralta, 
 F. Ogliaro, M. J. Bearpark, J. J. Heyd, E. N. Brothers, K. N. Kudin, 
 V. N. Staroverov, T. A. Keith, R. Kobayashi, J. Normand, 
 K. Raghavachari, A. P. Rendell, J. C. Burant, S. S. Iyengar, 
 J. Tomasi, M. Cossi, J. M. Millam, M. Klene, C. Adamo, R. Cammi, 
 J. W. Ochterski, R. L. Martin, K. Morokuma, O. Farkas, 
 J. B. Foresman, and D. J. Fox, Gaussian, Inc., Wallingford CT, 2016.
 
 ******************************************
 Gaussian 16:  ES64L-G16RevA.03 25-Dec-2016
                 9-Feb-2020 
 ******************************************
 %chk=beta_3.chk
 %nproc=6
 Will use up to    6 processors via shared memory.
 %mem=1gb
 --------------------------------------------
 #p hf/6-31g(d,p) 5d 7f pop=npa charge nosymm
 --------------------------------------------
 1/18=10,28=-2,38=1,125=101,172=1/1;
 2/12=2,15=1,17=6,18=5,40=1/2;
 3/5=1,6=6,7=101,8=11,11=9,25=1,30=1/1,2,3;
 4//1;
 5/5=2,38=5/2;
 6/7=2,8=2,9=2,10=2,28=1,40=-1/1,7;
 99/5=1,9=1/99;
 Leave Link    1 at Sun Feb  9 22:26:24 2020, MaxMem=   134217728 cpu:               0.5 elap:               0.1
 (Enter /home/soft/g16/l101.exe)
 --------------
 Atom number=42
 --------------
 Symbolic Z-matrix:
 Charge =  0 Multiplicity = 1
 c                    -28.92011  -0.10957   0.40843 
 o                    -28.95071  -0.89273   1.39294 
 n                    -27.79756   0.02248  -0.30676 
 c                    -26.59861  -0.74575   0.05777 
 c                    -25.34085   0.0508   -0.33544 
 o                    -25.37454   0.83348  -1.32025 
 n                    -24.21266  -0.08852   0.36951 
 c                    -23.014    0.67529  -0.00513 
 c                    -23.01089   2.02279   0.74037 
 c                    -26.6064  -2.09405  -0.68625 
 c                    -21.75465  -0.12467   0.3759 
 o                    -21.78078  -0.90889   1.35973 
 n                    -20.63281   0.01471  -0.33915 
 c                    -19.42917  -0.74612   0.02558 
 c                    -18.17588   0.05842  -0.36634 
 o                    -18.21307   0.8408   -1.35123 
 n                    -17.04789  -0.07397   0.34037 
 c                    -15.85266   0.6966   -0.03174 
 c                    -15.85891   2.04442   0.71319 
 c                    -19.4282  -2.09414  -0.71902 
 h                    -27.77391   0.64422  -1.08962 
 h                    -24.18479  -0.71167   1.15111 
 h                    -20.61294   0.63684  -1.12181 
 h                    -17.01783  -0.69687   1.12205 
 h                    -14.9753   0.14554   0.23559 
 h                    -26.59441  -0.921     1.11335 
 h                    -23.01877   0.85141  -1.06052 
 h                    -19.42453  -0.92175   1.08104 
 h                    -15.85574   0.8724   -1.08721 
 h                    -29.79205   0.45104   0.14321 
 h                    -16.73625   2.59556   0.4459 
 h                    -14.98898   2.60555   0.44261 
 h                    -15.85592   1.86861   1.76864 
 h                    -20.2992  -2.65273  -0.44654 
 h                    -18.55192  -2.64775  -0.45338 
 h                    -19.43282  -1.91859  -1.77451 
 h                    -23.88588   2.57884   0.47562 
 h                    -22.13861   2.57926   0.46774 
 h                    -23.00608   1.84653   1.79575 
 h                    -27.48062  -2.64718  -0.41295 
 h                    -25.73335  -2.65287  -0.42095 
 h                    -26.61066  -1.91888  -1.7418 
 
 ITRead=  0  0  0  0  0  0  0  0  0  0  0  0  0  0  0  0  0  0  0  0
 ITRead=  0  0  0  0  0  0  0  0  0  0  0  0  0  0  0  0  0  0  0  0
 ITRead=  0  0
 MicOpt= -1 -1 -1 -1 -1 -1 -1 -1 -1 -1 -1 -1 -1 -1 -1 -1 -1 -1 -1 -1
 MicOpt= -1 -1 -1 -1 -1 -1 -1 -1 -1 -1 -1 -1 -1 -1 -1 -1 -1 -1 -1 -1
 MicOpt= -1 -1
 NAtoms=     42 NQM=       42 NQMF=       0 NMMI=      0 NMMIF=      0
                NMic=       0 NMicF=      0.
                    Isotopes and Nuclear Properties:
 (Nuclear quadrupole moments (NQMom) in fm**2, nuclear magnetic moments (NMagM)
  in nuclear magnetons)

  Atom         1           2           3           4           5           6           7           8           9          10
 IAtWgt=          12          16          14          12          12          16          14          12          12          12
 AtmWgt=  12.0000000  15.9949146  14.0030740  12.0000000  12.0000000  15.9949146  14.0030740  12.0000000  12.0000000  12.0000000
 NucSpn=           0           0           2           0           0           0           2           0           0           0
 AtZEff=  -0.0000000  -0.0000000  -0.0000000  -0.0000000  -0.0000000  -0.0000000  -0.0000000  -0.0000000  -0.0000000  -0.0000000
 NQMom=    0.0000000   0.0000000   2.0440000   0.0000000   0.0000000   0.0000000   2.0440000   0.0000000   0.0000000   0.0000000
 NMagM=    0.0000000   0.0000000   0.4037610   0.0000000   0.0000000   0.0000000   0.4037610   0.0000000   0.0000000   0.0000000
 AtZNuc=   6.0000000   8.0000000   7.0000000   6.0000000   6.0000000   8.0000000   7.0000000   6.0000000   6.0000000   6.0000000

  Atom        11          12          13          14          15          16          17          18          19          20
 IAtWgt=          12          16          14          12          12          16          14          12          12          12
 AtmWgt=  12.0000000  15.9949146  14.0030740  12.0000000  12.0000000  15.9949146  14.0030740  12.0000000  12.0000000  12.0000000
 NucSpn=           0           0           2           0           0           0           2           0           0           0
 AtZEff=  -0.0000000  -0.0000000  -0.0000000  -0.0000000  -0.0000000  -0.0000000  -0.0000000  -0.0000000  -0.0000000  -0.0000000
 NQMom=    0.0000000   0.0000000   2.0440000   0.0000000   0.0000000   0.0000000   2.0440000   0.0000000   0.0000000   0.0000000
 NMagM=    0.0000000   0.0000000   0.4037610   0.0000000   0.0000000   0.0000000   0.4037610   0.0000000   0.0000000   0.0000000
 AtZNuc=   6.0000000   8.0000000   7.0000000   6.0000000   6.0000000   8.0000000   7.0000000   6.0000000   6.0000000   6.0000000

  Atom        21          22          23          24          25          26          27          28          29          30
 IAtWgt=           1           1           1           1           1           1           1           1           1           1
 AtmWgt=   1.0078250   1.0078250   1.0078250   1.0078250   1.0078250   1.0078250   1.0078250   1.0078250   1.0078250   1.0078250
 NucSpn=           1           1           1           1           1           1           1           1           1           1
 AtZEff=  -0.0000000  -0.0000000  -0.0000000  -0.0000000  -0.0000000  -0.0000000  -0.0000000  -0.0000000  -0.0000000  -0.0000000
 NQMom=    0.0000000   0.0000000   0.0000000   0.0000000   0.0000000   0.0000000   0.0000000   0.0000000   0.0000000   0.0000000
 NMagM=    2.7928460   2.7928460   2.7928460   2.7928460   2.7928460   2.7928460   2.7928460   2.7928460   2.7928460   2.7928460
 AtZNuc=   1.0000000   1.0000000   1.0000000   1.0000000   1.0000000   1.0000000   1.0000000   1.0000000   1.0000000   1.0000000

  Atom        31          32          33          34          35          36          37          38          39          40
 IAtWgt=           1           1           1           1           1           1           1           1           1           1
 AtmWgt=   1.0078250   1.0078250   1.0078250   1.0078250   1.0078250   1.0078250   1.0078250   1.0078250   1.0078250   1.0078250
 NucSpn=           1           1           1           1           1           1           1           1           1           1
 AtZEff=  -0.0000000  -0.0000000  -0.0000000  -0.0000000  -0.0000000  -0.0000000  -0.0000000  -0.0000000  -0.0000000  -0.0000000
 NQMom=    0.0000000   0.0000000   0.0000000   0.0000000   0.0000000   0.0000000   0.0000000   0.0000000   0.0000000   0.0000000
 NMagM=    2.7928460   2.7928460   2.7928460   2.7928460   2.7928460   2.7928460   2.7928460   2.7928460   2.7928460   2.7928460
 AtZNuc=   1.0000000   1.0000000   1.0000000   1.0000000   1.0000000   1.0000000   1.0000000   1.0000000   1.0000000   1.0000000

  Atom        41          42
 IAtWgt=           1           1
 AtmWgt=   1.0078250   1.0078250
 NucSpn=           1           1
 AtZEff=  -0.0000000  -0.0000000
 NQMom=    0.0000000   0.0000000
 NMagM=    2.7928460   2.7928460
 AtZNuc=   1.0000000   1.0000000
 Background charge distribution read from input stream:
 Point Charges:
 XYZ=  -14.5899   -0.0965    0.3530 Q=    0.8441 A=    0.0000 R=    0.0000 C=    0.0000
 XYZ=  -14.6152   -0.8811    1.3365 Q=   -0.7835 A=    0.0000 R=    0.0000 C=    0.0000
 XYZ=  -13.4663    0.0488   -0.3581 Q=   -0.7347 A=    0.0000 R=    0.0000 C=    0.0000
 XYZ=  -13.4464    0.6723   -1.1397 Q=    0.4533 A=    0.0000 R=    0.0000 C=    0.0000
 XYZ=  -12.2606   -0.7077    0.0093 Q=   -0.1111 A=    0.0000 R=    0.0000 C=    0.0000
 XYZ=  -11.0090    0.1019   -0.3772 Q=    0.9972 A=    0.0000 R=    0.0000 C=    0.0000
 XYZ=  -11.0461    0.8869   -1.3601 Q=   -0.7540 A=    0.0000 R=    0.0000 C=    0.0000
 XYZ=  -12.2587   -0.8852    1.0645 Q=    0.2780 A=    0.0000 R=    0.0000 C=    0.0000
 XYZ=  -31.3775   -0.0600    0.4022 Q=   -0.7095 A=    0.0000 R=    0.0000 C=    0.0000
 XYZ=  -30.1789    0.8725   -1.0288 Q=    0.2667 A=    0.0000 R=    0.0000 C=    0.0000
 XYZ=  -30.1750    0.6973    0.0267 Q=   -0.0951 A=    0.0000 R=    0.0000 C=    0.0000
 XYZ=  -32.5054    0.0836   -0.3025 Q=    0.8041 A=    0.0000 R=    0.0000 C=    0.0000
 XYZ=  -32.5368    0.8670   -1.2868 Q=   -0.7585 A=    0.0000 R=    0.0000 C=    0.0000
 XYZ=  -31.3524   -0.6826    1.1844 Q=    0.4595 A=    0.0000 R=    0.0000 C=    0.0000
 XYZ=  -12.2519   -2.0543   -0.7377 Q=   -0.6414 A=    0.0000 R=    0.0000 C=    0.0000
 XYZ=  -13.1216   -2.6169   -0.4691 Q=    0.2461 A=    0.0000 R=    0.0000 C=    0.0000
 XYZ=  -11.3743   -2.6049   -0.4703 Q=    0.2262 A=    0.0000 R=    0.0000 C=    0.0000
 XYZ=  -12.2538   -1.8769   -1.7929 Q=    0.2280 A=    0.0000 R=    0.0000 C=    0.0000
 XYZ=  -30.1643    2.0455    0.7709 Q=   -0.6424 A=    0.0000 R=    0.0000 C=    0.0000
 XYZ=  -29.2889    2.5967    0.4977 Q=    0.2397 A=    0.0000 R=    0.0000 C=    0.0000
 XYZ=  -30.1605    1.8703    1.8264 Q=    0.2349 A=    0.0000 R=    0.0000 C=    0.0000
 XYZ=  -31.0361    2.6062    0.5056 Q=    0.2390 A=    0.0000 R=    0.0000 C=    0.0000
 XYZ=  -33.7653   -0.7096    0.0910 Q=   -0.3016 A=    0.0000 R=    0.0000 C=    0.0000
 XYZ=  -34.3413   -0.1403    0.7903 Q=    0.2804 A=    0.0000 R=    0.0000 C=    0.0000
 XYZ=  -33.4771   -1.6379    0.5384 Q=    0.2632 A=    0.0000 R=    0.0000 C=    0.0000
 XYZ=  -34.5727   -0.9736   -1.1087 Q=   -0.7747 A=    0.0000 R=    0.0000 C=    0.0000
 XYZ=  -34.0343   -1.5056   -1.7623 Q=    0.4829 A=    0.0000 R=    0.0000 C=    0.0000
 XYZ=  -35.3908   -1.4888   -0.8532 Q=    0.4774 A=    0.0000 R=    0.0000 C=    0.0000
 XYZ=  -34.8422   -0.1061   -1.5267 Q=    0.4960 A=    0.0000 R=    0.0000 C=    0.0000
 XYZ=   -9.9130   -0.0257    0.3125 Q=   -0.7829 A=    0.0000 R=    0.0000 C=    0.0000
 XYZ=   -9.1327    0.4791    0.0717 Q=    0.5477 A=    0.0000 R=    0.0000 C=    0.0000
 Pt Chg Charge=              0.9750 electrons
 Pt Chg Dipole moment (Debye):
    X=           -157.3134    Y=             -5.9301    Z=             -1.6979  Tot=            157.4343
 Pt Chg Quadrupole moment (Debye-Ang):
   XX=           5425.8362   YY=             18.1801   ZZ=              5.4206
   XY=            207.4060   XZ=             35.3339   YZ=             14.8955
 Pt Chg Traceless Quadrupole moment (Debye-Ang):
   XX=           3609.3572   YY=          -1798.2989   ZZ=          -1811.0584
   XY=            207.4060   XZ=             35.3339   YZ=             14.8955
 Pt Chg Octapole moment (Debye-Ang**2):
  XXX=        -187825.3387  YYY=            -18.6666  ZZZ=             -8.0345  XYY=           -526.1310
  XXY=          -7337.5015  XXZ=           -913.2040  XZZ=           -310.1913  YZZ=            -15.3923
  YYZ=             -3.7612  XYZ=           -343.8145
 Pt Chg Hexadecapole moment (Debye-Ang**3):
 XXXX=        6507444.5334 YYYY=            153.6671 ZZZZ=             30.4474 XXXY=         257488.6926
 XXXZ=          31457.5875 YYYX=            263.7492 YYYZ=             45.8304 ZZZX=            203.2032
 ZZZY=             52.8038 XXYY=          16463.0155 XXZZ=          12013.0895 YYZZ=             24.8233
 XXYZ=           9642.8387 YYXZ=             72.6072 ZZXY=            426.4763
 Leave Link  101 at Sun Feb  9 22:26:24 2020, MaxMem=   134217728 cpu:               0.9 elap:               0.2
 (Enter /home/soft/g16/l202.exe)
                          Input orientation:                          
 ---------------------------------------------------------------------
 Center     Atomic      Atomic             Coordinates (Angstroms)
 Number     Number       Type             X           Y           Z
 ---------------------------------------------------------------------
      1          6           0      -28.920111   -0.109571    0.408427
      2          8           0      -28.950711   -0.892729    1.392942
      3          7           0      -27.797562    0.022481   -0.306761
      4          6           0      -26.598606   -0.745746    0.057771
      5          6           0      -25.340849    0.050797   -0.335441
      6          8           0      -25.374538    0.833478   -1.320247
      7          7           0      -24.212660   -0.088516    0.369510
      8          6           0      -23.014004    0.675291   -0.005132
      9          6           0      -23.010894    2.022792    0.740371
     10          6           0      -26.606405   -2.094048   -0.686252
     11          6           0      -21.754647   -0.124672    0.375897
     12          8           0      -21.780779   -0.908887    1.359731
     13          7           0      -20.632814    0.014708   -0.339146
     14          6           0      -19.429168   -0.746118    0.025580
     15          6           0      -18.175880    0.058417   -0.366339
     16          8           0      -18.213071    0.840796   -1.351228
     17          7           0      -17.047892   -0.073973    0.340369
     18          6           0      -15.852661    0.696599   -0.031743
     19          6           0      -15.858913    2.044421    0.713195
     20          6           0      -19.428199   -2.094143   -0.719021
     21          1           0      -27.773911    0.644221   -1.089624
     22          1           0      -24.184793   -0.711670    1.151110
     23          1           0      -20.612936    0.636845   -1.121814
     24          1           0      -17.017825   -0.696875    1.122051
     25          1           0      -14.975297    0.145539    0.235588
     26          1           0      -26.594407   -0.920996    1.113347
     27          1           0      -23.018768    0.851410   -1.060517
     28          1           0      -19.424531   -0.921751    1.081037
     29          1           0      -15.855739    0.872403   -1.087206
     30          1           0      -29.792046    0.451045    0.143210
     31          1           0      -16.736251    2.595556    0.445902
     32          1           0      -14.988985    2.605552    0.442609
     33          1           0      -15.855922    1.868614    1.768640
     34          1           0      -20.299205   -2.652730   -0.446539
     35          1           0      -18.551924   -2.647751   -0.453376
     36          1           0      -19.432823   -1.918590   -1.774505
     37          1           0      -23.885884    2.578842    0.475623
     38          1           0      -22.138606    2.579260    0.467736
     39          1           0      -23.006085    1.846526    1.795752
     40          1           0      -27.480622   -2.647180   -0.412949
     41          1           0      -25.733348   -2.652872   -0.420945
     42          1           0      -26.610665   -1.918885   -1.741796
 ---------------------------------------------------------------------
                    Distance matrix (angstroms):
                    1          2          3          4          5
     1  C    0.000000
     2  O    1.258389   0.000000
     3  N    1.337553   2.248634   0.000000
     4  C    2.432501   2.708631   1.469881   0.000000
     5  C    3.659259   4.112014   2.457044   1.539821   0.000000
     6  O    4.055705   4.809387   2.748803   2.427184   1.258399
     7  N    4.707659   4.913583   3.649819   2.494368   1.337600
     8  C    5.972364   6.297443   4.837310   3.856511   2.431728
     9  C    6.290946   6.648875   5.292440   4.582840   3.236483
    10  C    3.238782   3.355888   2.458162   1.539983   2.514967
    11  C    7.165553   7.308052   6.083132   4.893963   3.660277
    12  O    7.246651   7.170028   6.312394   4.993313   4.058164
    13  N    8.321875   8.544646   7.164825   6.027148   4.708174
    14  C    9.519967   9.620341   8.410185   7.169511   5.976067
    15  C   10.773438  10.958865   9.621933   8.471651   7.165039
    16  O   10.892212  11.217508   9.675899   8.649832   7.243006
    17  N   11.872467  11.977286  10.769563   9.578480   8.321383
    18  C   13.099691  13.270818  11.967068  10.842680   9.514988
    19  C   13.241128  13.434437  12.151539  11.115558   9.745834
    20  C    9.762482   9.827615   8.642702   7.337324   6.301375
    21  H    2.031289   3.148048   0.999997   2.151712   2.615480
    22  H    4.830874   4.775484   3.964400   2.650104   2.031663
    23  H    8.479854   8.842063   7.256763   6.255496   4.828560
    24  H   11.938115  11.937567  10.897784   9.639836   8.482689
    25  H   13.948218  14.061638  12.834319  11.658787  10.381700
    26  H    2.562074   2.373002   2.086729   1.070034   2.148203
    27  H    6.156877   6.652025   4.908375   4.076361   2.561011
    28  H    9.553956   9.531329   8.539626   7.248821   6.160769
    29  H   13.186319  13.444148  11.997441  10.924220   9.550261
    30  H    1.070000   2.018763   2.089045   3.411402   4.494715
    31  H   12.480607  12.738055  11.381556  10.420220   9.006963
    32  H   14.193285  14.424663  13.087913  12.089773  10.690801
    33  H   13.282937  13.388042  12.260435  11.187816   9.884101
    34  H    9.028768   9.018307   7.962516   6.601014   5.721851
    35  H   10.709078  10.706249   9.624627   8.284201   7.306542
    36  H    9.901837  10.083417   8.711538   7.488742   6.391726
    37  H    5.707497   6.208523   4.737967   4.311188   3.027500
    38  H    7.295351   7.701655   6.257855   5.578113   4.158435
    39  H    6.381747   6.557771   5.541295   4.758851   3.635622
    40  H    3.030882   2.915562   2.690505   2.148250   3.444374
    41  H    4.160733   4.091420   3.381055   2.148249   2.733348
    42  H    3.637392   4.044180   2.690158   2.148218   2.733114
                    6          7          8          9         10
     6  O    0.000000
     7  N    2.248402   0.000000
     8  C    2.706782   1.469876   0.000000
     9  C    3.353718   2.457520   1.539981   0.000000
    10  C    3.238804   3.296483   4.586775   5.649010   0.000000
    11  C    4.110786   2.458287   1.539839   2.514478   5.342860
    12  O    4.809700   2.750926   2.427615   3.239063   5.373762
    13  N    4.910895   3.650774   2.493592   3.294393   6.344377
    14  C    6.297126   4.840716   3.856475   4.583291   7.337326
    15  C    7.302830   6.083237   4.890649   5.334879   8.706847
    16  O    7.161537   6.310280   4.988820   5.365725   8.916476
    17  N    8.538977   7.164842   6.022895   6.333547   9.823432
    18  C    9.609636   8.406367   7.161424   7.320877  11.129200
    19  C    9.805528   8.628595   7.320236   7.152066  11.601464
    20  C    6.655177   5.300803   4.586655   5.649308   7.178281
    21  H    2.417850   3.917714   4.881987   5.285420   3.003980
    22  H    3.148107   0.999997   2.152046   3.004002   3.339322
    23  H    4.769789   3.963359   2.648318   3.337482   6.600694
    24  H    8.839764   7.259619   6.253602   6.592355   9.857125
    25  H   10.537461   9.241298   8.059739   8.267388  11.880581
    26  H    3.238617   2.630406   4.076569   4.652587   2.148197
    27  H    2.370112   2.086581   1.069990   2.148347   4.656923
    28  H    6.652035   4.911897   4.076104   4.652783   7.488451
    29  H    9.521730   8.537185   7.242272   7.473933  11.159633
    30  H    4.669298   5.609980   6.783372   6.986488   4.160987
    31  H    8.991340   7.943977   6.580352   6.307608  10.986086
    32  H   10.682116   9.609346   8.266034   8.048559  12.582727
    33  H   10.060654   8.696149   7.470504   7.230127  11.717596
    34  H    6.219004   4.749343   4.317488   5.533762   6.336431
    35  H    7.708338   6.266638   5.581549   6.566690   8.076848
    36  H    6.563856   5.549128   4.762747   5.887418   7.257779
    37  H    2.913337   2.689395   2.148210   1.069996   5.530559
    38  H    4.088508   3.380589   2.148261   1.069987   6.567551
    39  H    4.042930   2.689680   2.148263   1.070010   5.886490
    40  H    4.168184   4.223573   5.581738   6.566373   1.070002
    41  H    3.618304   3.084352   4.317916   5.533737   1.070000
    42  H    3.046509   3.682158   4.762533   5.886962   1.069988
                   11         12         13         14         15
    11  C    0.000000
    12  O    1.258414   0.000000
    13  N    1.337618   2.248784   0.000000
    14  C    2.432442   2.708602   1.469913   0.000000
    15  C    3.659509   4.112212   2.457473   1.540002   0.000000
    16  O    4.056828   4.810325   2.749889   2.427507   1.258375
    17  N    4.707163   4.912881   3.649831   2.494262   1.337655
    18  C    5.972780   6.297330   4.838319   3.856957   2.432402
    19  C    6.291139   6.648950   5.293136   4.583300   3.236965
    20  C    3.238831   3.355693   2.458181   1.540001   2.515194
    21  H    6.242634   6.658012   7.207966   8.532964   9.643055
    22  H    2.617466   2.421095   3.919826   4.887123   6.245215
    23  H    2.031391   3.148207   1.000010   2.151838   2.616211
    24  H    4.829249   4.773590   3.963532   2.649385   2.031468
    25  H    6.786184   6.977828   5.688139   4.547100   3.257858
    26  H    4.959964   4.819945   6.206921   7.249447   8.603506
    27  H    2.148027   3.238651   2.629300   4.076387   4.956236
    28  H    2.561640   2.372707   2.086582   1.069980   2.148198
    29  H    6.158892   6.653314   4.910772   4.077658   2.562280
    30  H    8.061350   8.216431   9.182297  10.432463  11.633963
    31  H    5.708664   6.209948   4.739227   4.312221   3.028092
    32  H    7.296078   7.702003   6.259107   5.578783   4.159158
    33  H    6.380273   6.556344   5.540616   4.758483   3.635540
    34  H    3.030807   2.915246   2.690363   2.148262   3.444598
    35  H    4.160656   4.091028   3.381100   2.148293   2.733557
    36  H    3.637752   4.044234   2.690330   2.148258   2.733385
    37  H    3.443995   4.168617   4.221504   5.578550   6.298062
    38  H    2.732600   3.618130   3.081460   4.312157   4.770065
    39  H    2.732709   3.046931   3.680456   4.759164   5.585950
    40  H    6.306513   6.217095   7.347351   8.284459   9.690234
    41  H    4.780880   4.672803   5.756572   6.601347   8.029283
    42  H    5.593275   5.828153   6.437461   7.488184   8.771955
                   16         17         18         19         20
    16  O    0.000000
    17  N    2.248543   0.000000
    18  C    2.708019   1.469975   0.000000
    19  C    3.354492   2.457695   1.539999   0.000000
    20  C    3.238841   3.296855   4.587490   5.649669   0.000000
    21  H    9.566438  10.844730  11.968210  12.131690   8.791297
    22  H    6.658326   7.211055   8.532689   8.781121   5.294696
    23  H    2.419417   3.918262   4.883855   5.286707   3.004020
    24  H    3.148040   0.999969   2.151887   3.004155   3.339432
    25  H    3.672131   2.086819   1.070000   2.148171   5.075016
    26  H    8.912062   9.615139  10.923047  11.144715   7.489218
    27  H    4.814493   6.202432   7.241231   7.472138   4.656725
    28  H    3.238846   2.629778   4.076223   4.652647   2.148191
    29  H    2.372282   2.086822   1.070009   2.148273   4.658157
    30  H   11.681520  12.756487  13.942645  14.035524  10.706575
    31  H    2.913736   2.689729   2.148235   1.070008   5.531447
    32  H    4.089859   3.380740   2.148266   1.069981   6.568343
    33  H    4.043036   2.689683   2.148257   1.069991   5.886685
    34  H    4.168350   4.223771   5.582276   6.566917   1.070008
    35  H    3.618138   3.084879   4.318388   5.534409   1.070003
    36  H    3.046502   3.682825   4.763822   5.887864   1.069994
    37  H    6.207979   7.335793   8.266374   8.048250   6.567718
    38  H    4.662693   5.742058   6.580805   6.307206   5.531310
    39  H    5.821336   6.427014   7.472184   7.231401   5.886783
    40  H    9.946549  10.771756  12.105191  12.583459   8.077193
    41  H    8.344202   9.092165  10.440230  10.993421   6.336871
    42  H    8.848049   9.959204  11.202664  11.719000   7.257038
                   21         22         23         24         25
    21  H    0.000000
    22  H    4.443096   0.000000
    23  H    7.161051   4.443291   0.000000
    24  H   11.062704   7.167041   4.442810   0.000000
    25  H   12.876699   9.294503   5.819527   2.380630   0.000000
    26  H    2.948596   2.418985   6.572733   9.579208  11.700926
    27  H    4.759744   2.948580   2.416158   6.570547   8.177747
    28  H    8.767907   4.765410   2.948573   2.417537   4.652910
    29  H   11.920356   8.768836   4.763151   2.948541   1.747367
    30  H    2.372776   5.814555   9.267732  12.862992  14.820185
    31  H   11.313509   8.180210   4.617680   3.372916   3.024529
    32  H   13.024934   9.801470   6.160524   3.934953   2.468746
    33  H   12.316951   8.741241   5.700979   2.889608   2.468752
    34  H    8.194796   4.627958   3.372792   4.129563   6.053065
    35  H    9.812590   6.168630   3.934863   2.939617   4.590142
    36  H    8.752760   5.709387   2.889450   3.964195   5.307602
    37  H    4.616222   3.372402   4.127390   7.636650   9.239975
    38  H    6.158443   3.934984   2.937229   6.114211   7.569007
    39  H    5.701149   2.889512   3.962661   6.540796   8.355897
    40  H    3.373014   4.129766   7.645418  10.753140  12.829771
    41  H    3.934698   2.938987   6.126342   9.064606  11.135429
    42  H    2.889287   3.963727   6.548960  10.085509  11.981388
                   26         27         28         29         30
    26  H    0.000000
    27  H    4.544481   0.000000
    28  H    7.169949   4.544105   0.000000
    29  H   11.107552   7.163109   4.544947   0.000000
    30  H    3.612278   6.891048  10.499974  13.996861   0.000000
    31  H   10.487844   6.691887   4.472325   2.468801  13.234210
    32  H   12.147932   8.355466   5.702940   2.468886  14.962024
    33  H   11.114243   7.768216   4.581911   3.024614  14.102024
    34  H    6.712803   4.477945   2.468771   5.708012  10.004762
    35  H    8.373640   5.706613   2.468794   4.479134  11.674707
    36  H    7.786089   4.587121   3.024546   4.588851  10.798440
    37  H    4.471203   2.468935   5.703013   8.356889   6.286554
    38  H    5.702874   2.468949   4.472071   6.693700   7.950457
    39  H    4.582675   3.024679   4.582761   7.770959   7.122326
    40  H    2.468738   5.706804   8.373153  12.164702   3.905252
    41  H    2.468779   4.478615   6.712220  10.508978   5.140584
    42  H    3.024548   4.586982   7.784805  11.130508   4.392152
                   31         32         33         34         35
    31  H    0.000000
    32  H    1.747298   0.000000
    33  H    1.747300   1.747288   0.000000
    34  H    6.405903   7.525858   6.715082   0.000000
    35  H    5.621178   6.410501   5.709933   1.747301   0.000000
    36  H    5.707821   6.717972   6.300081   1.747305   1.747295
    37  H    7.149714   8.897001   8.164350   6.409680   7.525387
    38  H    5.402423   7.149713   6.455190   5.620766   6.405808
    39  H    6.457085   8.165844   7.150248   5.709498   6.715404
    40  H   11.986050  13.578076  12.660386   7.181498   8.928789
    41  H   10.452041  11.993251  11.081591   5.434203   7.181499
    42  H   11.075660  12.661185  11.930331   6.484655   8.193569
                   36         37         38         39         40
    36  H    0.000000
    37  H    6.717122   0.000000
    38  H    5.707851   1.747297   0.000000
    39  H    6.300082   1.747306   1.747296   0.000000
    40  H    8.194617   6.404920   7.525185   6.715149   0.000000
    41  H    6.485978   5.620301   6.409924   5.709316   1.747301
    42  H    7.177916   5.707094   6.716744   6.299648   1.747305
                   41         42
    41  H    0.000000
    42  H    1.747304   0.000000
 Symmetry turned off by external request.
 Stoichiometry    C12H22N4O4
 Framework group  C1[X(C12H22N4O4)]
 Deg. of freedom   120
 Full point group                 C1      NOp   1
 Rotational constants (GHZ):           1.0158154           0.0973338           0.0946847
 Leave Link  202 at Sun Feb  9 22:26:24 2020, MaxMem=   134217728 cpu:               0.1 elap:               0.0
 (Enter /home/soft/g16/l301.exe)
 Standard basis: 6-31G(d,p) (5D, 7F)
 Ernie: Thresh=  0.10000D-02 Tol=  0.10000D-05 Strict=F.
   390 basis functions,   714 primitive gaussians,   410 cartesian basis functions
    77 alpha electrons       77 beta electrons
       nuclear repulsion energy      1563.9376701773 Hartrees.
 IExCor=    0 DFT=F Ex=HF Corr=None ExCW=0 ScaHFX=  1.000000
 ScaDFX=  1.000000  1.000000  1.000000  1.000000 ScalE2=  1.000000  1.000000
 IRadAn=      5 IRanWt=     -1 IRanGd=            0 ICorTp=0 IEmpDi=  4
 NAtoms=   42 NActive=   42 NUniq=   42 SFac= 1.00D+00 NAtFMM=   60 NAOKFM=F Big=F
 Integral buffers will be    131072 words long.
 Raffenetti 1 integral format.
 Two-electron integral symmetry is turned off.
 Background charge distribution read from rwf.
 PtFMM for NChg=        73 BoxLen=    40.00 Levels= 1 LMax=20 SMax=    49.6 ICnFMM=     1:
 Self energy of the charges =        -2.5142213895 a.u.
 MM   energy of the charges =         0.0000000000 a.u.
 Nuclei-charges interaction =         8.4994825291 a.u.
 Nuclear repulsion after external point charges =     1569.9229313169 Hartrees.
 Leave Link  301 at Sun Feb  9 22:26:25 2020, MaxMem=   134217728 cpu:               0.5 elap:               0.1
 (Enter /home/soft/g16/l302.exe)
 NPDir=0 NMtPBC=     1 NCelOv=     1 NCel=       1 NClECP=     1 NCelD=      1
         NCelK=      1 NCelE2=     1 NClLst=     1 CellRange=     0.0.
 One-electron integrals computed using PRISM.
 NBasis=   390 RedAO= T EigKep=  2.34D-03  NBF=   390
 NBsUse=   390 1.00D-06 EigRej= -1.00D+00 NBFU=   390
 Leave Link  302 at Sun Feb  9 22:26:25 2020, MaxMem=   134217728 cpu:               1.8 elap:               0.3
 (Enter /home/soft/g16/l303.exe)
 DipDrv:  MaxL=1.
 Leave Link  303 at Sun Feb  9 22:26:25 2020, MaxMem=   134217728 cpu:               0.3 elap:               0.1
 (Enter /home/soft/g16/l401.exe)
 ExpMin= 1.61D-01 ExpMax= 5.48D+03 ExpMxC= 8.25D+02 IAcc=3 IRadAn=         5 AccDes= 0.00D+00
 Harris functional with IExCor=  205 and IRadAn=       5 diagonalized for initial guess.
 HarFok:  IExCor=  205 AccDes= 0.00D+00 IRadAn=         5 IDoV= 1 UseB2=F ITyADJ=14
 ICtDFT=  3500011 ScaDFX=  1.000000  1.000000  1.000000  1.000000
 FoFCou: FMM=F IPFlag=           0 FMFlag=      100000 FMFlg1=           0
         NFxFlg=           0 DoJE=T BraDBF=F KetDBF=T FulRan=T
         wScrn=  0.000000 ICntrl=       500 IOpCl=  0 I1Cent=   200000004 NGrid=           0
         NMat0=    1 NMatS0=      1 NMatT0=    0 NMatD0=    1 NMtDS0=    0 NMtDT0=    0
 Symmetry not used in FoFCou.
 Harris En= -988.195818085189    
 JPrj=0 DoOrth=F DoCkMO=F.
 Leave Link  401 at Sun Feb  9 22:26:27 2020, MaxMem=   134217728 cpu:              12.8 elap:               2.2
 (Enter /home/soft/g16/l502.exe)
 Two-electron integral symmetry not used.
 Closed shell SCF:
 Using DIIS extrapolation, IDIIS=  1040.
 NGot=   134217728 LenX=   133875544 LenY=   133707003
 Requested convergence on RMS density matrix=1.00D-08 within 128 cycles.
 Requested convergence on MAX density matrix=1.00D-06.
 Requested convergence on             energy=1.00D-06.
 No special actions if energy rises.
 Fock matrices will be formed incrementally for  20 cycles.
 Integral accuracy reduced to 1.0D-05 until final iterations.

 Cycle   1  Pass 0  IDiag  1:
 FoFJK:  IHMeth= 1 ICntrl=       0 DoSepK=F KAlg= 0 I1Cent=           0 FoldK=F
 IRaf= 640000000 NMat=       1 IRICut=       1 DoRegI=T DoRafI=F ISym2E= 0 IDoP0=0 IntGTp=1.
 FoFCou: FMM=F IPFlag=           0 FMFlag=      100000 FMFlg1=           0
         NFxFlg=           0 DoJE=F BraDBF=F KetDBF=F FulRan=T
         wScrn=  0.000000 ICntrl=         0 IOpCl=  0 I1Cent=           0 NGrid=           0
         NMat0=    1 NMatS0=      1 NMatT0=    0 NMatD0=    1 NMtDS0=    0 NMtDT0=    0
 Symmetry not used in FoFCou.
 E= -986.169343167847    
 DIIS: error= 2.60D-02 at cycle   1 NSaved=   1.
 NSaved= 1 IEnMin= 1 EnMin= -986.169343167847     IErMin= 1 ErrMin= 2.60D-02
 ErrMax= 2.60D-02  0.00D+00 EMaxC= 1.00D-01 BMatC= 1.07D+00 BMatP= 1.07D+00
 IDIUse=3 WtCom= 7.40D-01 WtEn= 2.60D-01
 Coeff-Com:  0.100D+01
 Coeff-En:   0.100D+01
 Coeff:      0.100D+01
 Gap=     0.584 Goal=   None    Shift=    0.000
 GapD=    0.584 DampG=2.000 DampE=0.500 DampFc=1.0000 IDamp=-1.
 RMSDP=3.00D-03 MaxDP=1.18D-01              OVMax= 1.44D-01

 Cycle   2  Pass 0  IDiag  1:
 RMSU=  2.97D-03    CP:  9.76D-01
 E= -986.813176652143     Delta-E=       -0.643833484296 Rises=F Damp=F
 DIIS: error= 1.47D-02 at cycle   2 NSaved=   2.
 NSaved= 2 IEnMin= 2 EnMin= -986.813176652143     IErMin= 2 ErrMin= 1.47D-02
 ErrMax= 1.47D-02  0.00D+00 EMaxC= 1.00D-01 BMatC= 2.09D-01 BMatP= 1.07D+00
 IDIUse=3 WtCom= 8.53D-01 WtEn= 1.47D-01
 Coeff-Com:  0.264D+00 0.736D+00
 Coeff-En:   0.000D+00 0.100D+01
 Coeff:      0.225D+00 0.775D+00
 Gap=     0.635 Goal=   None    Shift=    0.000
 RMSDP=1.22D-03 MaxDP=6.15D-02 DE=-6.44D-01 OVMax= 5.73D-02

 Cycle   3  Pass 0  IDiag  1:
 RMSU=  9.41D-04    CP:  9.76D-01  7.40D-01
 E= -986.962631178752     Delta-E=       -0.149454526609 Rises=F Damp=F
 DIIS: error= 5.78D-03 at cycle   3 NSaved=   3.
 NSaved= 3 IEnMin= 3 EnMin= -986.962631178752     IErMin= 3 ErrMin= 5.78D-03
 ErrMax= 5.78D-03  0.00D+00 EMaxC= 1.00D-01 BMatC= 2.27D-02 BMatP= 2.09D-01
 IDIUse=3 WtCom= 9.42D-01 WtEn= 5.78D-02
 Coeff-Com: -0.456D-02 0.222D+00 0.782D+00
 Coeff-En:   0.000D+00 0.000D+00 0.100D+01
 Coeff:     -0.430D-02 0.210D+00 0.795D+00
 Gap=     0.558 Goal=   None    Shift=    0.000
 RMSDP=3.25D-04 MaxDP=1.97D-02 DE=-1.49D-01 OVMax= 2.66D-02

 Cycle   4  Pass 0  IDiag  1:
 RMSU=  2.37D-04    CP:  9.76D-01  8.05D-01  8.84D-01
 E= -986.979725551435     Delta-E=       -0.017094372683 Rises=F Damp=F
 DIIS: error= 1.24D-03 at cycle   4 NSaved=   4.
 NSaved= 4 IEnMin= 4 EnMin= -986.979725551435     IErMin= 4 ErrMin= 1.24D-03
 ErrMax= 1.24D-03  0.00D+00 EMaxC= 1.00D-01 BMatC= 1.43D-03 BMatP= 2.27D-02
 IDIUse=3 WtCom= 9.88D-01 WtEn= 1.24D-02
 Coeff-Com: -0.153D-01 0.128D-01 0.228D+00 0.775D+00
 Coeff-En:   0.000D+00 0.000D+00 0.000D+00 0.100D+01
 Coeff:     -0.151D-01 0.127D-01 0.225D+00 0.778D+00
 Gap=     0.557 Goal=   None    Shift=    0.000
 RMSDP=1.08D-04 MaxDP=4.30D-03 DE=-1.71D-02 OVMax= 5.31D-03

 Cycle   5  Pass 0  IDiag  1:
 RMSU=  6.96D-05    CP:  9.76D-01  8.05D-01  9.69D-01  9.26D-01
 E= -986.981220553133     Delta-E=       -0.001495001698 Rises=F Damp=F
 DIIS: error= 3.47D-04 at cycle   5 NSaved=   5.
 NSaved= 5 IEnMin= 5 EnMin= -986.981220553133     IErMin= 5 ErrMin= 3.47D-04
 ErrMax= 3.47D-04  0.00D+00 EMaxC= 1.00D-01 BMatC= 6.29D-05 BMatP= 1.43D-03
 IDIUse=3 WtCom= 9.97D-01 WtEn= 3.47D-03
 Coeff-Com:  0.250D-02-0.162D-01-0.863D-01-0.106D+00 0.121D+01
 Coeff-En:   0.000D+00 0.000D+00 0.000D+00 0.000D+00 0.100D+01
 Coeff:      0.249D-02-0.161D-01-0.860D-01-0.106D+00 0.121D+01
 Gap=     0.558 Goal=   None    Shift=    0.000
 RMSDP=5.11D-05 MaxDP=1.68D-03 DE=-1.50D-03 OVMax= 4.58D-03

 Cycle   6  Pass 0  IDiag  1:
 RMSU=  2.05D-05    CP:  9.76D-01  8.05D-01  9.95D-01  1.05D+00  1.40D+00
 E= -986.981423301272     Delta-E=       -0.000202748139 Rises=F Damp=F
 DIIS: error= 1.22D-04 at cycle   6 NSaved=   6.
 NSaved= 6 IEnMin= 6 EnMin= -986.981423301272     IErMin= 6 ErrMin= 1.22D-04
 ErrMax= 1.22D-04  0.00D+00 EMaxC= 1.00D-01 BMatC= 1.15D-05 BMatP= 6.29D-05
 IDIUse=3 WtCom= 9.99D-01 WtEn= 1.22D-03
 Coeff-Com:  0.175D-02-0.383D-02-0.327D-01-0.103D+00 0.159D+00 0.979D+00
 Coeff-En:   0.000D+00 0.000D+00 0.000D+00 0.000D+00 0.000D+00 0.100D+01
 Coeff:      0.175D-02-0.383D-02-0.327D-01-0.103D+00 0.159D+00 0.979D+00
 Gap=     0.558 Goal=   None    Shift=    0.000
 RMSDP=1.87D-05 MaxDP=6.00D-04 DE=-2.03D-04 OVMax= 1.53D-03

 Cycle   7  Pass 0  IDiag  1:
 RMSU=  6.79D-06    CP:  9.75D-01  8.04D-01  1.00D+00  1.07D+00  1.59D+00
                    CP:  1.25D+00
 E= -986.981450502968     Delta-E=       -0.000027201696 Rises=F Damp=F
 DIIS: error= 5.50D-05 at cycle   7 NSaved=   7.
 NSaved= 7 IEnMin= 7 EnMin= -986.981450502968     IErMin= 7 ErrMin= 5.50D-05
 ErrMax= 5.50D-05  0.00D+00 EMaxC= 1.00D-01 BMatC= 1.49D-06 BMatP= 1.15D-05
 IDIUse=1 WtCom= 1.00D+00 WtEn= 0.00D+00
 Coeff-Com: -0.349D-03 0.251D-02 0.158D-01 0.108D-01-0.159D+00-0.481D-01
 Coeff-Com:  0.118D+01
 Coeff:     -0.349D-03 0.251D-02 0.158D-01 0.108D-01-0.159D+00-0.481D-01
 Coeff:      0.118D+01
 Gap=     0.558 Goal=   None    Shift=    0.000
 RMSDP=8.61D-06 MaxDP=3.66D-04 DE=-2.72D-05 OVMax= 8.05D-04

 Initial convergence to 1.0D-05 achieved.  Increase integral accuracy.
 Cycle   8  Pass 1  IDiag  1:
 E= -986.981466152305     Delta-E=       -0.000015649337 Rises=F Damp=F
 DIIS: error= 1.75D-05 at cycle   1 NSaved=   1.
 NSaved= 1 IEnMin= 1 EnMin= -986.981466152305     IErMin= 1 ErrMin= 1.75D-05
 ErrMax= 1.75D-05  0.00D+00 EMaxC= 1.00D-01 BMatC= 3.80D-07 BMatP= 3.80D-07
 IDIUse=1 WtCom= 1.00D+00 WtEn= 0.00D+00
 Coeff-Com:  0.100D+01
 Coeff:      0.100D+01
 Gap=     0.558 Goal=   None    Shift=    0.000
 RMSDP=8.61D-06 MaxDP=3.66D-04 DE=-1.56D-05 OVMax= 1.50D-04

 Cycle   9  Pass 1  IDiag  1:
 RMSU=  6.03D-06    CP:  1.00D+00
 E= -986.981466719336     Delta-E=       -0.000000567032 Rises=F Damp=F
 DIIS: error= 1.17D-05 at cycle   2 NSaved=   2.
 NSaved= 2 IEnMin= 2 EnMin= -986.981466719336     IErMin= 2 ErrMin= 1.17D-05
 ErrMax= 1.17D-05  0.00D+00 EMaxC= 1.00D-01 BMatC= 6.87D-08 BMatP= 3.80D-07
 IDIUse=1 WtCom= 1.00D+00 WtEn= 0.00D+00
 Coeff-Com:  0.110D+00 0.890D+00
 Coeff:      0.110D+00 0.890D+00
 Gap=     0.558 Goal=   None    Shift=    0.000
 RMSDP=1.04D-06 MaxDP=6.11D-05 DE=-5.67D-07 OVMax= 1.26D-04

 Cycle  10  Pass 1  IDiag  1:
 RMSU=  9.48D-07    CP:  1.00D+00  1.07D+00
 E= -986.981466857510     Delta-E=       -0.000000138174 Rises=F Damp=F
 DIIS: error= 7.05D-06 at cycle   3 NSaved=   3.
 NSaved= 3 IEnMin= 3 EnMin= -986.981466857510     IErMin= 3 ErrMin= 7.05D-06
 ErrMax= 7.05D-06  0.00D+00 EMaxC= 1.00D-01 BMatC= 3.22D-08 BMatP= 6.87D-08
 IDIUse=1 WtCom= 1.00D+00 WtEn= 0.00D+00
 Coeff-Com: -0.170D+00 0.255D+00 0.915D+00
 Coeff:     -0.170D+00 0.255D+00 0.915D+00
 Gap=     0.558 Goal=   None    Shift=    0.000
 RMSDP=8.05D-07 MaxDP=3.55D-05 DE=-1.38D-07 OVMax= 6.72D-05

 Cycle  11  Pass 1  IDiag  1:
 RMSU=  5.94D-07    CP:  1.00D+00  1.13D+00  1.44D+00
 E= -986.981466924615     Delta-E=       -0.000000067104 Rises=F Damp=F
 DIIS: error= 2.91D-06 at cycle   4 NSaved=   4.
 NSaved= 4 IEnMin= 4 EnMin= -986.981466924615     IErMin= 4 ErrMin= 2.91D-06
 ErrMax= 2.91D-06  0.00D+00 EMaxC= 1.00D-01 BMatC= 4.04D-09 BMatP= 3.22D-08
 IDIUse=1 WtCom= 1.00D+00 WtEn= 0.00D+00
 Coeff-Com: -0.642D-02-0.231D+00-0.250D+00 0.149D+01
 Coeff:     -0.642D-02-0.231D+00-0.250D+00 0.149D+01
 Gap=     0.558 Goal=   None    Shift=    0.000
 RMSDP=6.41D-07 MaxDP=2.18D-05 DE=-6.71D-08 OVMax= 6.27D-05

 Cycle  12  Pass 1  IDiag  1:
 RMSU=  1.21D-07    CP:  1.00D+00  1.15D+00  1.95D+00  1.62D+00
 E= -986.981466943657     Delta-E=       -0.000000019042 Rises=F Damp=F
 DIIS: error= 6.22D-07 at cycle   5 NSaved=   5.
 NSaved= 5 IEnMin= 5 EnMin= -986.981466943657     IErMin= 5 ErrMin= 6.22D-07
 ErrMax= 6.22D-07  0.00D+00 EMaxC= 1.00D-01 BMatC= 3.89D-10 BMatP= 4.04D-09
 IDIUse=1 WtCom= 1.00D+00 WtEn= 0.00D+00
 Coeff-Com:  0.115D-01-0.911D-01-0.162D+00 0.475D+00 0.766D+00
 Coeff:      0.115D-01-0.911D-01-0.162D+00 0.475D+00 0.766D+00
 Gap=     0.558 Goal=   None    Shift=    0.000
 RMSDP=1.01D-07 MaxDP=4.04D-06 DE=-1.90D-08 OVMax= 9.06D-06

 Cycle  13  Pass 1  IDiag  1:
 RMSU=  4.26D-08    CP:  1.00D+00  1.15D+00  2.02D+00  1.73D+00  1.02D+00
 E= -986.981466944290     Delta-E=       -0.000000000633 Rises=F Damp=F
 DIIS: error= 1.30D-07 at cycle   6 NSaved=   6.
 NSaved= 6 IEnMin= 6 EnMin= -986.981466944290     IErMin= 6 ErrMin= 1.30D-07
 ErrMax= 1.30D-07  0.00D+00 EMaxC= 1.00D-01 BMatC= 1.45D-11 BMatP= 3.89D-10
 IDIUse=1 WtCom= 1.00D+00 WtEn= 0.00D+00
 Coeff-Com: -0.170D-02 0.319D-01 0.439D-01-0.182D+00-0.144D+00 0.125D+01
 Coeff:     -0.170D-02 0.319D-01 0.439D-01-0.182D+00-0.144D+00 0.125D+01
 Gap=     0.558 Goal=   None    Shift=    0.000
 RMSDP=2.85D-08 MaxDP=9.75D-07 DE=-6.33D-10 OVMax= 1.72D-06

 Cycle  14  Pass 1  IDiag  1:
 RMSU=  1.17D-08    CP:  1.00D+00  1.15D+00  2.02D+00  1.75D+00  1.15D+00
                    CP:  1.38D+00
 E= -986.981466944336     Delta-E=       -0.000000000046 Rises=F Damp=F
 DIIS: error= 3.20D-08 at cycle   7 NSaved=   7.
 NSaved= 7 IEnMin= 7 EnMin= -986.981466944336     IErMin= 7 ErrMin= 3.20D-08
 ErrMax= 3.20D-08  0.00D+00 EMaxC= 1.00D-01 BMatC= 1.96D-12 BMatP= 1.45D-11
 IDIUse=1 WtCom= 1.00D+00 WtEn= 0.00D+00
 Coeff-Com: -0.153D-02 0.163D-01 0.259D-01-0.861D-01-0.111D+00 0.277D+00
 Coeff-Com:  0.880D+00
 Coeff:     -0.153D-02 0.163D-01 0.259D-01-0.861D-01-0.111D+00 0.277D+00
 Coeff:      0.880D+00
 Gap=     0.558 Goal=   None    Shift=    0.000
 RMSDP=6.74D-09 MaxDP=2.75D-07 DE=-4.64D-11 OVMax= 4.24D-07

 SCF Done:  E(RHF) =  -986.981466944     A.U. after   14 cycles
            NFock= 14  Conv=0.67D-08     -V/T= 2.0035
 KE= 9.835668413280D+02 PE=-5.444480561324D+03 EE= 1.904009321734D+03
 Leave Link  502 at Sun Feb  9 22:26:50 2020, MaxMem=   134217728 cpu:             136.7 elap:              22.8
 (Enter /home/soft/g16/l601.exe)
 Copying SCF densities to generalized density rwf, IOpCl= 0 IROHF=0.

 **********************************************************************

            Population analysis using the SCF density.

 **********************************************************************

 Alpha  occ. eigenvalues --  -20.58289 -20.58066 -20.57991 -20.57469 -15.66179
 Alpha  occ. eigenvalues --  -15.65876 -15.65476 -15.65114 -11.41837 -11.41734
 Alpha  occ. eigenvalues --  -11.41235 -11.40407 -11.39806 -11.34923 -11.34370
 Alpha  occ. eigenvalues --  -11.34328 -11.28310 -11.27899 -11.27427 -11.27091
 Alpha  occ. eigenvalues --   -1.43297  -1.42967  -1.42122  -1.41625  -1.30247
 Alpha  occ. eigenvalues --   -1.29587  -1.29281  -1.28871  -1.13569  -1.12244
 Alpha  occ. eigenvalues --   -1.09880  -1.07701  -0.97721  -0.97421  -0.95882
 Alpha  occ. eigenvalues --   -0.93258  -0.88304  -0.86090  -0.85278  -0.84633
 Alpha  occ. eigenvalues --   -0.83190  -0.81445  -0.76414  -0.73725  -0.72987
 Alpha  occ. eigenvalues --   -0.72086  -0.71428  -0.70298  -0.69166  -0.67690
 Alpha  occ. eigenvalues --   -0.67393  -0.66287  -0.65662  -0.64983  -0.64196
 Alpha  occ. eigenvalues --   -0.64109  -0.63499  -0.61989  -0.60773  -0.60301
 Alpha  occ. eigenvalues --   -0.59813  -0.59588  -0.59184  -0.58728  -0.58491
 Alpha  occ. eigenvalues --   -0.57838  -0.56998  -0.55523  -0.54433  -0.49152
 Alpha  occ. eigenvalues --   -0.48533  -0.47952  -0.47116  -0.45691  -0.45447
 Alpha  occ. eigenvalues --   -0.44776  -0.44066
 Alpha virt. eigenvalues --    0.11707   0.12172   0.13070   0.14134   0.17226
 Alpha virt. eigenvalues --    0.17632   0.18042   0.18664   0.20020   0.21703
 Alpha virt. eigenvalues --    0.22537   0.23466   0.24270   0.24923   0.25047
 Alpha virt. eigenvalues --    0.25565   0.25894   0.26552   0.26949   0.27111
 Alpha virt. eigenvalues --    0.27439   0.27793   0.28360   0.28684   0.28990
 Alpha virt. eigenvalues --    0.29178   0.30770   0.31420   0.32180   0.33314
 Alpha virt. eigenvalues --    0.34109   0.34447   0.34623   0.35824   0.36323
 Alpha virt. eigenvalues --    0.37845   0.41127   0.45051   0.47273   0.48092
 Alpha virt. eigenvalues --    0.48853   0.49574   0.53143   0.54798   0.56728
 Alpha virt. eigenvalues --    0.63499   0.63835   0.64941   0.65495   0.66809
 Alpha virt. eigenvalues --    0.67931   0.68219   0.68416   0.69347   0.69766
 Alpha virt. eigenvalues --    0.70923   0.71425   0.71840   0.73586   0.74677
 Alpha virt. eigenvalues --    0.76118   0.77926   0.79435   0.80370   0.80511
 Alpha virt. eigenvalues --    0.81058   0.81241   0.81942   0.83550   0.84784
 Alpha virt. eigenvalues --    0.85340   0.86128   0.87125   0.87555   0.89771
 Alpha virt. eigenvalues --    0.90773   0.91091   0.92639   0.94050   0.97568
 Alpha virt. eigenvalues --    0.98092   0.98824   0.99555   1.00472   1.02006
 Alpha virt. eigenvalues --    1.02650   1.03590   1.03936   1.04036   1.05169
 Alpha virt. eigenvalues --    1.05805   1.06265   1.06647   1.07154   1.07890
 Alpha virt. eigenvalues --    1.08269   1.08833   1.09164   1.09456   1.10093
 Alpha virt. eigenvalues --    1.10341   1.10910   1.11722   1.12058   1.12489
 Alpha virt. eigenvalues --    1.13300   1.13581   1.14358   1.15143   1.15955
 Alpha virt. eigenvalues --    1.16785   1.17048   1.17254   1.17525   1.17729
 Alpha virt. eigenvalues --    1.19531   1.20599   1.23057   1.23903   1.27580
 Alpha virt. eigenvalues --    1.29281   1.30260   1.30941   1.32154   1.32220
 Alpha virt. eigenvalues --    1.35200   1.37275   1.39190   1.41011   1.42657
 Alpha virt. eigenvalues --    1.44354   1.46522   1.47356   1.51083   1.52576
 Alpha virt. eigenvalues --    1.54451   1.54930   1.56078   1.57931   1.59766
 Alpha virt. eigenvalues --    1.60489   1.61160   1.64361   1.66929   1.67353
 Alpha virt. eigenvalues --    1.68968   1.69556   1.71940   1.72135   1.74790
 Alpha virt. eigenvalues --    1.77024   1.78549   1.79782   1.81852   1.82684
 Alpha virt. eigenvalues --    1.84061   1.85491   1.85747   1.88061   1.88804
 Alpha virt. eigenvalues --    1.90782   1.93285   1.93931   1.94496   1.95743
 Alpha virt. eigenvalues --    2.00086   2.01952   2.02757   2.03279   2.03609
 Alpha virt. eigenvalues --    2.04392   2.05823   2.07610   2.08941   2.09182
 Alpha virt. eigenvalues --    2.09662   2.11661   2.12162   2.12642   2.13384
 Alpha virt. eigenvalues --    2.14116   2.14689   2.15735   2.17074   2.18613
 Alpha virt. eigenvalues --    2.19252   2.20301   2.20811   2.22383   2.25328
 Alpha virt. eigenvalues --    2.25736   2.26674   2.27760   2.29247   2.29340
 Alpha virt. eigenvalues --    2.30351   2.30573   2.31147   2.31943   2.32041
 Alpha virt. eigenvalues --    2.33092   2.33635   2.34730   2.35620   2.36911
 Alpha virt. eigenvalues --    2.38043   2.38264   2.38506   2.38820   2.39128
 Alpha virt. eigenvalues --    2.41049   2.41594   2.42403   2.43020   2.44012
 Alpha virt. eigenvalues --    2.45046   2.47386   2.47758   2.48956   2.49748
 Alpha virt. eigenvalues --    2.53130   2.54033   2.54315   2.54913   2.55187
 Alpha virt. eigenvalues --    2.56051   2.57070   2.59896   2.62534   2.63614
 Alpha virt. eigenvalues --    2.64907   2.66418   2.67621   2.69806   2.70083
 Alpha virt. eigenvalues --    2.70900   2.71927   2.73787   2.76174   2.78398
 Alpha virt. eigenvalues --    2.78476   2.81530   2.82066   2.83993   2.85584
 Alpha virt. eigenvalues --    2.86819   2.87255   2.88256   2.89491   2.90866
 Alpha virt. eigenvalues --    2.92009   2.93046   2.93623   2.95119   2.95755
 Alpha virt. eigenvalues --    2.97395   2.98130   2.98981   2.99561   3.01064
 Alpha virt. eigenvalues --    3.01399   3.01713   3.02121   3.04999   3.06073
 Alpha virt. eigenvalues --    3.06530   3.09359   3.10236   3.11295   3.12865
 Alpha virt. eigenvalues --    3.13775   3.15150   3.17813   3.19815   3.20100
 Alpha virt. eigenvalues --    3.20280   3.21114   3.22636   3.22771   3.23337
 Alpha virt. eigenvalues --    3.25071   3.26134   3.27189   3.28794   3.34259
 Alpha virt. eigenvalues --    3.34618   3.36271   3.40337   3.44265   3.47702
 Alpha virt. eigenvalues --    3.50280   3.52119   3.57847   3.58564   3.58931
 Alpha virt. eigenvalues --    3.59371   3.63755   3.68982   3.71436   3.71797
 Alpha virt. eigenvalues --    3.72036   3.79941   3.80116   3.80630   3.81172
 Alpha virt. eigenvalues --    3.84821   3.85360   3.86226   3.86719   3.90285
 Alpha virt. eigenvalues --    3.92336   3.94831   4.05696
          Condensed to atoms (all electrons):
               1          2          3          4          5          6
     1  C    4.368816   0.540321   0.220151  -0.033179   0.003620   0.000122
     2  O    0.540321   8.288908  -0.109755   0.003644   0.000703  -0.000005
     3  N    0.220151  -0.109755   7.256223   0.192468  -0.039821  -0.004144
     4  C   -0.033179   0.003644   0.192468   4.989586   0.347386  -0.070252
     5  C    0.003620   0.000703  -0.039821   0.347386   4.227027   0.547402
     6  O    0.000122  -0.000005  -0.004144  -0.070252   0.547402   8.294757
     7  N   -0.000073  -0.000008   0.001434  -0.082806   0.293923  -0.102490
     8  C    0.000001   0.000000  -0.000065   0.003846  -0.040486   0.001889
     9  C   -0.000000  -0.000000   0.000008  -0.000321  -0.003060  -0.002495
    10  C   -0.002818  -0.002898  -0.069298   0.348652  -0.055340  -0.000671
    11  C    0.000000   0.000000  -0.000000  -0.000023   0.003552   0.000559
    12  O    0.000000  -0.000000  -0.000000  -0.000023   0.000370  -0.000004
    13  N    0.000000  -0.000000  -0.000000  -0.000000  -0.000073  -0.000006
    14  C   -0.000000   0.000000   0.000000  -0.000000   0.000001   0.000000
    15  C    0.000000   0.000000  -0.000000   0.000000  -0.000000   0.000000
    16  O   -0.000000   0.000000  -0.000000  -0.000000   0.000000  -0.000000
    17  N    0.000000   0.000000  -0.000000  -0.000000   0.000000  -0.000000
    18  C    0.000000   0.000000   0.000000   0.000000  -0.000000   0.000000
    19  C    0.000000   0.000000   0.000000  -0.000000   0.000000  -0.000000
    20  C    0.000000  -0.000000  -0.000000  -0.000000  -0.000000  -0.000000
    21  H   -0.015899   0.002320   0.349881  -0.023449  -0.004696   0.015055
    22  H   -0.000005  -0.000004  -0.000022  -0.000903  -0.018463   0.002264
    23  H    0.000000   0.000000   0.000000  -0.000000  -0.000006  -0.000004
    24  H    0.000000   0.000000   0.000000  -0.000000   0.000000   0.000000
    25  H    0.000000   0.000000   0.000000   0.000000   0.000000   0.000000
    26  H   -0.003146   0.008854  -0.033616   0.421573  -0.045269   0.001965
    27  H    0.000000   0.000000  -0.000007   0.000367  -0.002144   0.008220
    28  H   -0.000000   0.000000   0.000000   0.000000  -0.000000   0.000000
    29  H    0.000000   0.000000   0.000000   0.000000  -0.000000   0.000000
    30  H    0.424167  -0.029922  -0.077247   0.003016   0.000017  -0.000008
    31  H    0.000000   0.000000  -0.000000   0.000000  -0.000000   0.000000
    32  H    0.000000   0.000000   0.000000   0.000000  -0.000000   0.000000
    33  H    0.000000   0.000000   0.000000  -0.000000  -0.000000  -0.000000
    34  H   -0.000000   0.000000   0.000000   0.000000   0.000000   0.000000
    35  H   -0.000000   0.000000   0.000000  -0.000000   0.000000   0.000000
    36  H   -0.000000  -0.000000   0.000000  -0.000000  -0.000000  -0.000000
    37  H    0.000000   0.000000   0.000002   0.000019   0.001570   0.003632
    38  H    0.000000   0.000000  -0.000000   0.000004   0.000078  -0.000035
    39  H    0.000000  -0.000000  -0.000000  -0.000003   0.000173  -0.000005
    40  H    0.001804   0.004082  -0.005362  -0.032315   0.004552  -0.000065
    41  H    0.000025  -0.000033   0.004957  -0.040967  -0.002434  -0.000081
    42  H    0.000130  -0.000015  -0.001203  -0.038141  -0.005457   0.002926
               7          8          9         10         11         12
     1  C   -0.000073   0.000001  -0.000000  -0.002818   0.000000   0.000000
     2  O   -0.000008   0.000000  -0.000000  -0.002898   0.000000  -0.000000
     3  N    0.001434  -0.000065   0.000008  -0.069298  -0.000000  -0.000000
     4  C   -0.082806   0.003846  -0.000321   0.348652  -0.000023  -0.000023
     5  C    0.293923  -0.040486  -0.003060  -0.055340   0.003552   0.000370
     6  O   -0.102490   0.001889  -0.002495  -0.000671   0.000559  -0.000004
     7  N    7.201850   0.200866  -0.070320  -0.000451  -0.039484  -0.003937
     8  C    0.200866   4.991416   0.348759  -0.000237   0.349780  -0.070990
     9  C   -0.070320   0.348759   4.933931  -0.000002  -0.056016  -0.000654
    10  C   -0.000451  -0.000237  -0.000002   4.933028   0.000004   0.000000
    11  C   -0.039484   0.349780  -0.056016   0.000004   4.224005   0.548647
    12  O   -0.003937  -0.070990  -0.000654   0.000000   0.548647   8.289041
    13  N    0.001535  -0.083998  -0.000327  -0.000000   0.291102  -0.102351
    14  C   -0.000067   0.003849  -0.000245   0.000000  -0.039870   0.002154
    15  C   -0.000000  -0.000018   0.000004  -0.000000   0.003481   0.000548
    16  O   -0.000000  -0.000024   0.000000   0.000000   0.000355  -0.000004
    17  N   -0.000000  -0.000000  -0.000000   0.000000  -0.000071  -0.000005
    18  C    0.000000  -0.000000   0.000000  -0.000000   0.000001   0.000000
    19  C   -0.000000  -0.000000  -0.000000   0.000000  -0.000000  -0.000000
    20  C    0.000008  -0.000320  -0.000001  -0.000000  -0.003025  -0.002535
    21  H    0.000505  -0.000012   0.000002   0.001700  -0.000000   0.000000
    22  H    0.352254  -0.022786   0.001722   0.000247  -0.004711   0.015295
    23  H   -0.000018  -0.000876   0.000250  -0.000000  -0.018239   0.002263
    24  H    0.000000  -0.000000  -0.000000   0.000000  -0.000007  -0.000004
    25  H   -0.000000   0.000000  -0.000000  -0.000000  -0.000000   0.000000
    26  H    0.004214  -0.000117   0.000016  -0.034667  -0.000010  -0.000004
    27  H   -0.034149   0.421959  -0.034490  -0.000010  -0.045446   0.001950
    28  H   -0.000007   0.000366  -0.000011   0.000000  -0.002006   0.008422
    29  H    0.000000   0.000000   0.000000  -0.000000  -0.000000   0.000000
    30  H   -0.000000  -0.000000  -0.000000  -0.000270   0.000000   0.000000
    31  H    0.000000   0.000000  -0.000000  -0.000000   0.000000   0.000000
    32  H    0.000000  -0.000000   0.000000  -0.000000   0.000000   0.000000
    33  H    0.000000  -0.000000   0.000000   0.000000  -0.000000   0.000000
    34  H    0.000002   0.000022   0.000000  -0.000000   0.001532   0.003639
    35  H   -0.000000   0.000004   0.000000   0.000000   0.000076  -0.000034
    36  H   -0.000000  -0.000004   0.000000   0.000000   0.000166  -0.000005
    37  H   -0.004779  -0.031825   0.405848   0.000001   0.004440  -0.000060
    38  H    0.004973  -0.041047   0.397227   0.000000  -0.002513  -0.000079
    39  H   -0.001321  -0.037846   0.401598   0.000000  -0.005323   0.002858
    40  H   -0.000069   0.000004   0.000000   0.404417  -0.000000  -0.000000
    41  H    0.002108  -0.000025   0.000002   0.398050  -0.000000  -0.000001
    42  H    0.000276  -0.000002   0.000000   0.401376  -0.000001   0.000000
              13         14         15         16         17         18
     1  C    0.000000  -0.000000   0.000000  -0.000000   0.000000   0.000000
     2  O   -0.000000   0.000000   0.000000   0.000000   0.000000   0.000000
     3  N   -0.000000   0.000000  -0.000000  -0.000000  -0.000000   0.000000
     4  C   -0.000000  -0.000000   0.000000  -0.000000  -0.000000   0.000000
     5  C   -0.000073   0.000001  -0.000000   0.000000   0.000000  -0.000000
     6  O   -0.000006   0.000000   0.000000  -0.000000  -0.000000   0.000000
     7  N    0.001535  -0.000067  -0.000000  -0.000000  -0.000000   0.000000
     8  C   -0.083998   0.003849  -0.000018  -0.000024  -0.000000  -0.000000
     9  C   -0.000327  -0.000245   0.000004   0.000000  -0.000000   0.000000
    10  C   -0.000000   0.000000  -0.000000   0.000000   0.000000  -0.000000
    11  C    0.291102  -0.039870   0.003481   0.000355  -0.000071   0.000001
    12  O   -0.102351   0.002154   0.000548  -0.000004  -0.000005   0.000000
    13  N    7.205492   0.202118  -0.039547  -0.003854   0.001529  -0.000068
    14  C    0.202118   4.993072   0.347143  -0.071652  -0.082206   0.003410
    15  C   -0.039547   0.347143   4.235859   0.547489   0.283405  -0.037226
    16  O   -0.003854  -0.071652   0.547489   8.287372  -0.101382   0.002789
    17  N    0.001529  -0.082206   0.283405  -0.101382   7.156539   0.241129
    18  C   -0.000068   0.003410  -0.037226   0.002789   0.241129   4.677499
    19  C    0.000009  -0.000347  -0.002703  -0.002594  -0.069826   0.361516
    20  C   -0.070381   0.348401  -0.056529  -0.000657  -0.000129  -0.000268
    21  H    0.000000  -0.000000  -0.000000  -0.000000   0.000000  -0.000000
    22  H    0.000519  -0.000013  -0.000000   0.000000   0.000000  -0.000000
    23  H    0.352737  -0.022706  -0.004826   0.014646   0.000486  -0.000012
    24  H   -0.000005  -0.000887  -0.018842   0.002215   0.357317  -0.015772
    25  H    0.000000   0.000047   0.002131   0.000491  -0.035077   0.311485
    26  H   -0.000000  -0.000000  -0.000000  -0.000000   0.000000  -0.000000
    27  H    0.004206  -0.000107  -0.000011  -0.000004  -0.000000  -0.000000
    28  H   -0.034147   0.421173  -0.044777   0.001983   0.003770  -0.000118
    29  H   -0.000007   0.000309  -0.001063   0.008723  -0.035660   0.418333
    30  H   -0.000000   0.000000   0.000000   0.000000   0.000000   0.000000
    31  H   -0.000000   0.000086   0.001286   0.003611  -0.004892  -0.027873
    32  H   -0.000000   0.000004   0.000065  -0.000025   0.004556  -0.039843
    33  H   -0.000000  -0.000011   0.000353   0.000005  -0.000779  -0.036223
    34  H   -0.004798  -0.031359   0.004392  -0.000059  -0.000062   0.000003
    35  H    0.004934  -0.041083  -0.002397  -0.000070   0.001812  -0.000009
    36  H   -0.001308  -0.038139  -0.005287   0.002803   0.000262  -0.000002
    37  H   -0.000062   0.000004  -0.000000  -0.000000   0.000000  -0.000000
    38  H    0.002064  -0.000028   0.000000  -0.000001  -0.000000  -0.000000
    39  H    0.000271  -0.000001  -0.000001   0.000000   0.000000  -0.000000
    40  H    0.000000  -0.000000   0.000000  -0.000000  -0.000000   0.000000
    41  H   -0.000000  -0.000000  -0.000000  -0.000000  -0.000000   0.000000
    42  H    0.000000  -0.000000  -0.000000   0.000000   0.000000  -0.000000
              19         20         21         22         23         24
     1  C    0.000000   0.000000  -0.015899  -0.000005   0.000000   0.000000
     2  O    0.000000  -0.000000   0.002320  -0.000004   0.000000   0.000000
     3  N    0.000000  -0.000000   0.349881  -0.000022   0.000000   0.000000
     4  C   -0.000000  -0.000000  -0.023449  -0.000903  -0.000000  -0.000000
     5  C    0.000000  -0.000000  -0.004696  -0.018463  -0.000006   0.000000
     6  O   -0.000000  -0.000000   0.015055   0.002264  -0.000004   0.000000
     7  N   -0.000000   0.000008   0.000505   0.352254  -0.000018   0.000000
     8  C   -0.000000  -0.000320  -0.000012  -0.022786  -0.000876  -0.000000
     9  C   -0.000000  -0.000001   0.000002   0.001722   0.000250  -0.000000
    10  C    0.000000  -0.000000   0.001700   0.000247  -0.000000   0.000000
    11  C   -0.000000  -0.003025  -0.000000  -0.004711  -0.018239  -0.000007
    12  O   -0.000000  -0.002535   0.000000   0.015295   0.002263  -0.000004
    13  N    0.000009  -0.070381   0.000000   0.000519   0.352737  -0.000005
    14  C   -0.000347   0.348401  -0.000000  -0.000013  -0.022706  -0.000887
    15  C   -0.002703  -0.056529  -0.000000  -0.000000  -0.004826  -0.018842
    16  O   -0.002594  -0.000657  -0.000000   0.000000   0.014646   0.002215
    17  N   -0.069826  -0.000129   0.000000   0.000000   0.000486   0.357317
    18  C    0.361516  -0.000268  -0.000000  -0.000000  -0.000012  -0.015772
    19  C    4.955859  -0.000001   0.000000   0.000000   0.000003   0.000823
    20  C   -0.000001   4.934368   0.000000   0.000002   0.001699   0.000279
    21  H    0.000000   0.000000   0.342415  -0.000014   0.000000   0.000000
    22  H    0.000000   0.000002  -0.000014   0.329405  -0.000014   0.000000
    23  H    0.000003   0.001699   0.000000  -0.000014   0.328852  -0.000013
    24  H    0.000823   0.000279   0.000000   0.000000  -0.000013   0.306778
    25  H   -0.047530   0.000010   0.000000  -0.000000  -0.000000  -0.003982
    26  H    0.000000   0.000000   0.002417   0.000922   0.000000   0.000000
    27  H    0.000000   0.000016  -0.000006   0.002257   0.000951   0.000000
    28  H    0.000014  -0.034033  -0.000000  -0.000005   0.002228   0.001102
    29  H   -0.041326  -0.000010  -0.000000  -0.000000  -0.000006   0.001889
    30  H    0.000000  -0.000000   0.000779  -0.000000  -0.000000   0.000000
    31  H    0.402650   0.000000  -0.000000  -0.000000  -0.000002  -0.000026
    32  H    0.398570   0.000000   0.000000  -0.000000  -0.000000  -0.000053
    33  H    0.403351   0.000000   0.000000  -0.000000  -0.000000   0.000514
    34  H    0.000000   0.406465  -0.000000  -0.000002  -0.000160  -0.000017
    35  H    0.000002   0.397760  -0.000000  -0.000000  -0.000057   0.000186
    36  H    0.000000   0.401541  -0.000000  -0.000000   0.000750  -0.000008
    37  H    0.000000   0.000000  -0.000002  -0.000166  -0.000017  -0.000000
    38  H   -0.000000   0.000002  -0.000000  -0.000055   0.000197   0.000000
    39  H    0.000000   0.000000  -0.000000   0.000771  -0.000008  -0.000000
    40  H   -0.000000   0.000000  -0.000152  -0.000017  -0.000000   0.000000
    41  H   -0.000000  -0.000000  -0.000056   0.000190   0.000000  -0.000000
    42  H    0.000000   0.000000   0.000809  -0.000009  -0.000000   0.000000
              25         26         27         28         29         30
     1  C    0.000000  -0.003146   0.000000  -0.000000   0.000000   0.424167
     2  O    0.000000   0.008854   0.000000   0.000000   0.000000  -0.029922
     3  N    0.000000  -0.033616  -0.000007   0.000000   0.000000  -0.077247
     4  C    0.000000   0.421573   0.000367   0.000000   0.000000   0.003016
     5  C    0.000000  -0.045269  -0.002144  -0.000000  -0.000000   0.000017
     6  O    0.000000   0.001965   0.008220   0.000000   0.000000  -0.000008
     7  N   -0.000000   0.004214  -0.034149  -0.000007   0.000000  -0.000000
     8  C    0.000000  -0.000117   0.421959   0.000366   0.000000  -0.000000
     9  C   -0.000000   0.000016  -0.034490  -0.000011   0.000000  -0.000000
    10  C   -0.000000  -0.034667  -0.000010   0.000000  -0.000000  -0.000270
    11  C   -0.000000  -0.000010  -0.045446  -0.002006  -0.000000   0.000000
    12  O    0.000000  -0.000004   0.001950   0.008422   0.000000   0.000000
    13  N    0.000000  -0.000000   0.004206  -0.034147  -0.000007  -0.000000
    14  C    0.000047  -0.000000  -0.000107   0.421173   0.000309   0.000000
    15  C    0.002131  -0.000000  -0.000011  -0.044777  -0.001063   0.000000
    16  O    0.000491  -0.000000  -0.000004   0.001983   0.008723   0.000000
    17  N   -0.035077   0.000000  -0.000000   0.003770  -0.035660   0.000000
    18  C    0.311485  -0.000000  -0.000000  -0.000118   0.418333   0.000000
    19  C   -0.047530   0.000000   0.000000   0.000014  -0.041326   0.000000
    20  C    0.000010   0.000000   0.000016  -0.034033  -0.000010  -0.000000
    21  H    0.000000   0.002417  -0.000006  -0.000000  -0.000000   0.000779
    22  H   -0.000000   0.000922   0.002257  -0.000005  -0.000000  -0.000000
    23  H   -0.000000   0.000000   0.000951   0.002228  -0.000006  -0.000000
    24  H   -0.003982   0.000000   0.000000   0.001102   0.001889   0.000000
    25  H    1.022341   0.000000  -0.000000  -0.000008  -0.028894   0.000000
    26  H    0.000000   0.487666  -0.000007   0.000000   0.000000   0.000314
    27  H   -0.000000  -0.000007   0.486433  -0.000007   0.000000  -0.000000
    28  H   -0.000008   0.000000  -0.000007   0.482844  -0.000003  -0.000000
    29  H   -0.028894   0.000000   0.000000  -0.000003   0.470301   0.000000
    30  H    0.000000   0.000314  -0.000000  -0.000000   0.000000   0.403418
    31  H    0.003579  -0.000000  -0.000000  -0.000016  -0.002866   0.000000
    32  H   -0.000376  -0.000000  -0.000000   0.000000  -0.000538   0.000000
    33  H   -0.003396   0.000000   0.000000   0.000002   0.003438   0.000000
    34  H   -0.000000  -0.000000  -0.000014  -0.004095   0.000000   0.000000
    35  H   -0.000003   0.000000   0.000000  -0.000792  -0.000009   0.000000
    36  H   -0.000001   0.000000   0.000000   0.004025   0.000002  -0.000000
    37  H    0.000000  -0.000014  -0.004109   0.000000   0.000000   0.000000
    38  H    0.000000   0.000000  -0.000753  -0.000007  -0.000000  -0.000000
    39  H   -0.000000   0.000000   0.004045   0.000000  -0.000000  -0.000000
    40  H    0.000000  -0.004253   0.000000  -0.000000   0.000000   0.000086
    41  H    0.000000  -0.000596  -0.000007  -0.000000   0.000000   0.000002
    42  H   -0.000000   0.004073   0.000000  -0.000000   0.000000   0.000002
              31         32         33         34         35         36
     1  C    0.000000   0.000000   0.000000  -0.000000  -0.000000  -0.000000
     2  O    0.000000   0.000000   0.000000   0.000000   0.000000  -0.000000
     3  N   -0.000000   0.000000   0.000000   0.000000   0.000000   0.000000
     4  C    0.000000   0.000000  -0.000000   0.000000  -0.000000  -0.000000
     5  C   -0.000000  -0.000000  -0.000000   0.000000   0.000000  -0.000000
     6  O    0.000000   0.000000  -0.000000   0.000000   0.000000  -0.000000
     7  N    0.000000   0.000000   0.000000   0.000002  -0.000000  -0.000000
     8  C    0.000000  -0.000000  -0.000000   0.000022   0.000004  -0.000004
     9  C   -0.000000   0.000000   0.000000   0.000000   0.000000   0.000000
    10  C   -0.000000  -0.000000   0.000000  -0.000000   0.000000   0.000000
    11  C    0.000000   0.000000  -0.000000   0.001532   0.000076   0.000166
    12  O    0.000000   0.000000   0.000000   0.003639  -0.000034  -0.000005
    13  N   -0.000000  -0.000000  -0.000000  -0.004798   0.004934  -0.001308
    14  C    0.000086   0.000004  -0.000011  -0.031359  -0.041083  -0.038139
    15  C    0.001286   0.000065   0.000353   0.004392  -0.002397  -0.005287
    16  O    0.003611  -0.000025   0.000005  -0.000059  -0.000070   0.002803
    17  N   -0.004892   0.004556  -0.000779  -0.000062   0.001812   0.000262
    18  C   -0.027873  -0.039843  -0.036223   0.000003  -0.000009  -0.000002
    19  C    0.402650   0.398570   0.403351   0.000000   0.000002   0.000000
    20  C    0.000000   0.000000   0.000000   0.406465   0.397760   0.401541
    21  H   -0.000000   0.000000   0.000000  -0.000000  -0.000000  -0.000000
    22  H   -0.000000  -0.000000  -0.000000  -0.000002  -0.000000  -0.000000
    23  H   -0.000002  -0.000000  -0.000000  -0.000160  -0.000057   0.000750
    24  H   -0.000026  -0.000053   0.000514  -0.000017   0.000186  -0.000008
    25  H    0.003579  -0.000376  -0.003396  -0.000000  -0.000003  -0.000001
    26  H   -0.000000  -0.000000   0.000000  -0.000000   0.000000   0.000000
    27  H   -0.000000  -0.000000   0.000000  -0.000014   0.000000   0.000000
    28  H   -0.000016   0.000000   0.000002  -0.004095  -0.000792   0.004025
    29  H   -0.002866  -0.000538   0.003438   0.000000  -0.000009   0.000002
    30  H    0.000000   0.000000   0.000000   0.000000   0.000000  -0.000000
    31  H    0.508071  -0.023569  -0.024602   0.000000   0.000000  -0.000000
    32  H   -0.023569   0.541800  -0.022244  -0.000000  -0.000000   0.000000
    33  H   -0.024602  -0.022244   0.515434  -0.000000  -0.000000   0.000000
    34  H    0.000000  -0.000000  -0.000000   0.516685  -0.022929  -0.025666
    35  H    0.000000  -0.000000  -0.000000  -0.022929   0.556256  -0.025040
    36  H   -0.000000   0.000000   0.000000  -0.025666  -0.025040   0.546261
    37  H    0.000000  -0.000000   0.000000   0.000000  -0.000000  -0.000000
    38  H    0.000000  -0.000000  -0.000000  -0.000000  -0.000000  -0.000000
    39  H   -0.000000   0.000000   0.000000  -0.000000   0.000000   0.000000
    40  H    0.000000   0.000000  -0.000000   0.000000  -0.000000   0.000000
    41  H    0.000000   0.000000  -0.000000   0.000000  -0.000000  -0.000000
    42  H   -0.000000  -0.000000   0.000000  -0.000000   0.000000   0.000000
              37         38         39         40         41         42
     1  C    0.000000   0.000000   0.000000   0.001804   0.000025   0.000130
     2  O    0.000000   0.000000  -0.000000   0.004082  -0.000033  -0.000015
     3  N    0.000002  -0.000000  -0.000000  -0.005362   0.004957  -0.001203
     4  C    0.000019   0.000004  -0.000003  -0.032315  -0.040967  -0.038141
     5  C    0.001570   0.000078   0.000173   0.004552  -0.002434  -0.005457
     6  O    0.003632  -0.000035  -0.000005  -0.000065  -0.000081   0.002926
     7  N   -0.004779   0.004973  -0.001321  -0.000069   0.002108   0.000276
     8  C   -0.031825  -0.041047  -0.037846   0.000004  -0.000025  -0.000002
     9  C    0.405848   0.397227   0.401598   0.000000   0.000002   0.000000
    10  C    0.000001   0.000000   0.000000   0.404417   0.398050   0.401376
    11  C    0.004440  -0.002513  -0.005323  -0.000000  -0.000000  -0.000001
    12  O   -0.000060  -0.000079   0.002858  -0.000000  -0.000001   0.000000
    13  N   -0.000062   0.002064   0.000271   0.000000  -0.000000   0.000000
    14  C    0.000004  -0.000028  -0.000001  -0.000000  -0.000000  -0.000000
    15  C   -0.000000   0.000000  -0.000001   0.000000  -0.000000  -0.000000
    16  O   -0.000000  -0.000001   0.000000  -0.000000  -0.000000   0.000000
    17  N    0.000000  -0.000000   0.000000  -0.000000  -0.000000   0.000000
    18  C   -0.000000  -0.000000  -0.000000   0.000000   0.000000  -0.000000
    19  C    0.000000  -0.000000   0.000000  -0.000000  -0.000000   0.000000
    20  C    0.000000   0.000002   0.000000   0.000000  -0.000000   0.000000
    21  H   -0.000002  -0.000000  -0.000000  -0.000152  -0.000056   0.000809
    22  H   -0.000166  -0.000055   0.000771  -0.000017   0.000190  -0.000009
    23  H   -0.000017   0.000197  -0.000008  -0.000000   0.000000  -0.000000
    24  H   -0.000000   0.000000  -0.000000   0.000000  -0.000000   0.000000
    25  H    0.000000   0.000000  -0.000000   0.000000   0.000000  -0.000000
    26  H   -0.000014   0.000000   0.000000  -0.004253  -0.000596   0.004073
    27  H   -0.004109  -0.000753   0.004045   0.000000  -0.000007   0.000000
    28  H    0.000000  -0.000007   0.000000  -0.000000  -0.000000  -0.000000
    29  H    0.000000  -0.000000  -0.000000   0.000000   0.000000   0.000000
    30  H    0.000000  -0.000000  -0.000000   0.000086   0.000002   0.000002
    31  H    0.000000   0.000000  -0.000000   0.000000   0.000000  -0.000000
    32  H   -0.000000  -0.000000   0.000000   0.000000   0.000000  -0.000000
    33  H    0.000000  -0.000000   0.000000  -0.000000  -0.000000   0.000000
    34  H    0.000000  -0.000000  -0.000000   0.000000   0.000000  -0.000000
    35  H   -0.000000  -0.000000   0.000000  -0.000000  -0.000000   0.000000
    36  H   -0.000000  -0.000000   0.000000   0.000000  -0.000000   0.000000
    37  H    0.523342  -0.023382  -0.026061   0.000000  -0.000000  -0.000000
    38  H   -0.023382   0.560902  -0.025066  -0.000000  -0.000000   0.000000
    39  H   -0.026061  -0.025066   0.546468  -0.000000  -0.000000   0.000000
    40  H    0.000000  -0.000000  -0.000000   0.535562  -0.023582  -0.027319
    41  H   -0.000000  -0.000000  -0.000000  -0.023582   0.556387  -0.024728
    42  H   -0.000000   0.000000   0.000000  -0.027319  -0.024728   0.551442
 Mulliken charges:
               1
     1  C    0.495963
     2  O   -0.706193
     3  N   -0.684583
     4  C    0.011819
     5  C    0.786872
     6  O   -0.698527
     7  N   -0.723971
     8  C    0.007919
     9  C   -0.321426
    10  C   -0.320815
    11  C    0.789048
    12  O   -0.694496
    13  N   -0.725584
    14  C    0.006949
    15  C    0.787072
    16  O   -0.692155
    17  N   -0.720715
    18  C    0.141249
    19  C   -0.358471
    20  C   -0.322662
    21  H    0.328402
    22  H    0.341342
    23  H    0.341900
    24  H    0.368513
    25  H   -0.220817
    26  H    0.189683
    27  H    0.190864
    28  H    0.194102
    29  H    0.207389
    30  H    0.275647
    31  H    0.164563
    32  H    0.141653
    33  H    0.164159
    34  H    0.156420
    35  H    0.131395
    36  H    0.139650
    37  H    0.151619
    38  H    0.127518
    39  H    0.139451
    40  H    0.142625
    41  H    0.130790
    42  H    0.135840
 Sum of Mulliken charges =  -0.00000
 Mulliken charges with hydrogens summed into heavy atoms:
               1
     1  C    0.771610
     2  O   -0.706193
     3  N   -0.356181
     4  C    0.201502
     5  C    0.786872
     6  O   -0.698527
     7  N   -0.382629
     8  C    0.198783
     9  C    0.097162
    10  C    0.088439
    11  C    0.789048
    12  O   -0.694496
    13  N   -0.383683
    14  C    0.201050
    15  C    0.787072
    16  O   -0.692155
    17  N   -0.352202
    18  C    0.127821
    19  C    0.111904
    20  C    0.104803
 Electronic spatial extent (au):  <R**2>=         285676.0117
 Charge=             -0.0000 electrons
 Dipole moment (field-independent basis, Debye):
    X=              3.2158    Y=              1.1106    Z=             -0.1076  Tot=              3.4039
 Quadrupole moment (field-independent basis, Debye-Ang):
   XX=           -278.5172   YY=           -117.1674   ZZ=           -130.1537
   XY=            -37.8013   XZ=             28.9483   YZ=              9.1073
 Traceless Quadrupole moment (field-independent basis, Debye-Ang):
   XX=           -103.2377   YY=             58.1120   ZZ=             45.1257
   XY=            -37.8013   XZ=             28.9483   YZ=              9.1073
 Octapole moment (field-independent basis, Debye-Ang**2):
  XXX=          13799.4423  YYY=             13.4571  ZZZ=             -6.9034  XYY=           2641.1406
  XXY=           1256.6199  XXZ=          -1312.1217  XZZ=           2943.0548  YZZ=              5.2141
  YYZ=             -1.8582  XYZ=           -223.0491
 Hexadecapole moment (field-independent basis, Debye-Ang**3):
 XXXX=        -556514.0979 YYYY=          -1099.8465 ZZZZ=           -567.6958 XXXY=         -41168.4140
 XXXZ=          47051.3786 YYYX=           -811.0382 YYYZ=            -34.8103 ZZZX=            304.1207
 ZZZY=            -23.2986 XXYY=         -61768.7695 XXZZ=         -68969.2789 YYZZ=           -289.6519
 XXYZ=           5590.4200 YYXZ=            100.1096 ZZXY=           -334.3178
 N-N= 1.569922931317D+03 E-N=-5.444480563034D+03  KE= 9.835668413280D+02
 No NMR shielding tensors so no spin-rotation constants.
 Leave Link  601 at Sun Feb  9 22:26:50 2020, MaxMem=   134217728 cpu:               1.1 elap:               0.2
 (Enter /home/soft/g16/l607.exe)
 ******************************Gaussian NBO Version 3.1******************************
             N A T U R A L   A T O M I C   O R B I T A L   A N D
          N A T U R A L   B O N D   O R B I T A L   A N A L Y S I S
 ******************************Gaussian NBO Version 3.1******************************
       /RESON  / : Allow strongly delocalized NBO set

 Analyzing the SCF density

 Job title: Atom number=42                                                  

 Storage needed:    462024 in NPA ( 134208488 available)


 NATURAL POPULATIONS:  Natural atomic orbital occupancies 
                                                          
   NAO  Atom  No  lang   Type(AO)    Occupancy      Energy
 ----------------------------------------------------------
     1    C    1  S      Cor( 1S)     1.99944     -11.27510
     2    C    1  S      Val( 2S)     0.88542      -0.18904
     3    C    1  S      Ryd( 3S)     0.00817       0.84429
     4    C    1  px     Val( 2p)     0.96026      -0.02262
     5    C    1  px     Ryd( 3p)     0.00417       0.86642
     6    C    1  py     Val( 2p)     0.76294      -0.03891
     7    C    1  py     Ryd( 3p)     0.00792       0.79701
     8    C    1  pz     Val( 2p)     0.71505       0.00205
     9    C    1  pz     Ryd( 3p)     0.01355       0.68692
    10    C    1  dxy    Ryd( 3d)     0.00253       2.62969
    11    C    1  dxz    Ryd( 3d)     0.00295       2.65466
    12    C    1  dyz    Ryd( 3d)     0.00144       2.64132
    13    C    1  dx2y2  Ryd( 3d)     0.00158       2.51288
[...]
   203    C   15  py     Ryd( 3p)     0.01100       0.91938
   204    C   15  pz     Val( 2p)     0.71604       0.00251
   205    C   15  pz     Ryd( 3p)     0.01313       0.85476
   206    C   15  dxy    Ryd( 3d)     0.00286       2.50239
   207    C   15  dxz    Ryd( 3d)     0.00317       2.62215
   208    C   15  dyz    Ryd( 3d)     0.00147       2.63715
   209    C   15  dx2y2  Ryd( 3d)     0.00159       2.51246
   210    C   15  dz2    Ryd( 3d)     0.00305       2.56430

   211    O   16  S      Cor( 1S)     1.99976     -20.31653
   212    O   16  S      Val( 2S)     1.71166      -1.17623
   213    O   16  S      Ryd( 3S)     0.00011       2.11249
   214    O   16  px     Val( 2p)     1.88171      -0.46239
   215    O   16  px     Ryd( 3p)     0.00233       1.45450
   216    O   16  py     Val( 2p)     1.59293      -0.39779
   217    O   16  py     Ryd( 3p)     0.00078       1.32213
   218    O   16  pz     Val( 2p)     1.58035      -0.40883
   219    O   16  pz     Ryd( 3p)     0.00058       1.29621
   220    O   16  dxy    Ryd( 3d)     0.00181       2.17806
   221    O   16  dxz    Ryd( 3d)     0.00298       2.21589
   222    O   16  dyz    Ryd( 3d)     0.00533       2.59252
   223    O   16  dx2y2  Ryd( 3d)     0.00232       2.19451
   224    O   16  dz2    Ryd( 3d)     0.00563       2.25390

   225    N   17  S      Cor( 1S)     1.99914     -15.48398
   226    N   17  S      Val( 2S)     1.26198      -0.70030
   227    N   17  S      Ryd( 3S)     0.00107       1.67982
   228    N   17  px     Val( 2p)     1.32638      -0.34045
   229    N   17  px     Ryd( 3p)     0.00245       1.18680
   230    N   17  py     Val( 2p)     1.59544      -0.39431
   231    N   17  py     Ryd( 3p)     0.00490       1.23531
   232    N   17  pz     Val( 2p)     1.53525      -0.38107
   233    N   17  pz     Ryd( 3p)     0.00420       1.27950
   234    N   17  dxy    Ryd( 3d)     0.00089       2.46275
   235    N   17  dxz    Ryd( 3d)     0.00091       2.61472
   236    N   17  dyz    Ryd( 3d)     0.00068       2.65074
   237    N   17  dx2y2  Ryd( 3d)     0.00065       2.52750
   238    N   17  dz2    Ryd( 3d)     0.00056       2.39669

   239    C   18  S      Cor( 1S)     1.99924     -11.27227
   240    C   18  S      Val( 2S)     0.97678      -0.29691
   241    C   18  S      Ryd( 3S)     0.00161       1.45900
   242    C   18  px     Val( 2p)     0.76770      -0.03740
   243    C   18  px     Ryd( 3p)     0.00463       0.82227
   244    C   18  py     Val( 2p)     0.94061      -0.10816
   245    C   18  py     Ryd( 3p)     0.00260       0.72921
   246    C   18  pz     Val( 2p)     1.19680      -0.17065
   247    C   18  pz     Ryd( 3p)     0.00387       0.83137
   248    C   18  dxy    Ryd( 3d)     0.00228       2.55225
   249    C   18  dxz    Ryd( 3d)     0.00075       2.32013
   250    C   18  dyz    Ryd( 3d)     0.00113       2.42582
   251    C   18  dx2y2  Ryd( 3d)     0.00125       2.39895
   252    C   18  dz2    Ryd( 3d)     0.00207       2.73463

   253    C   19  S      Cor( 1S)     1.99936     -11.13931
   254    C   19  S      Val( 2S)     1.10401      -0.33332
   255    C   19  S      Ryd( 3S)     0.00058       1.41201
   256    C   19  px     Val( 2p)     1.25238      -0.13227
   257    C   19  px     Ryd( 3p)     0.00149       0.80417
   258    C   19  py     Val( 2p)     1.07775      -0.10627
   259    C   19  py     Ryd( 3p)     0.00167       0.72205
   260    C   19  pz     Val( 2p)     1.20606      -0.12582
   261    C   19  pz     Ryd( 3p)     0.00164       0.76141
   262    C   19  dxy    Ryd( 3d)     0.00115       2.73194
   263    C   19  dxz    Ryd( 3d)     0.00043       2.42182
   264    C   19  dyz    Ryd( 3d)     0.00102       2.46887
   265    C   19  dx2y2  Ryd( 3d)     0.00100       2.48036
   266    C   19  dz2    Ryd( 3d)     0.00145       2.81270

   267    C   20  S      Cor( 1S)     1.99936     -11.12831
   268    C   20  S      Val( 2S)     1.09292      -0.31421
   269    C   20  S      Ryd( 3S)     0.00059       1.45603
   270    C   20  px     Val( 2p)     1.24989      -0.12469
   271    C   20  px     Ryd( 3p)     0.00202       0.85274
   272    C   20  py     Val( 2p)     1.08589      -0.09971
   273    C   20  py     Ryd( 3p)     0.00207       0.74930
   274    C   20  pz     Val( 2p)     1.19770      -0.11512
   275    C   20  pz     Ryd( 3p)     0.00166       0.78367
   276    C   20  dxy    Ryd( 3d)     0.00125       2.75623
   277    C   20  dxz    Ryd( 3d)     0.00037       2.45400
   278    C   20  dyz    Ryd( 3d)     0.00097       2.49206
   279    C   20  dx2y2  Ryd( 3d)     0.00090       2.51685
   280    C   20  dz2    Ryd( 3d)     0.00153       2.84129

   281    H   21  S      Val( 1S)     0.55220       0.25565
   282    H   21  S      Ryd( 2S)     0.00226       0.66756
   283    H   21  px     Ryd( 2p)     0.00010       2.73930
   284    H   21  py     Ryd( 2p)     0.00065       2.84341
   285    H   21  pz     Ryd( 2p)     0.00083       3.01841

   286    H   22  S      Val( 1S)     0.54338       0.27217
   287    H   22  S      Ryd( 2S)     0.00220       0.71116
   288    H   22  px     Ryd( 2p)     0.00008       2.78591
   289    H   22  py     Ryd( 2p)     0.00065       2.86869
   290    H   22  pz     Ryd( 2p)     0.00082       3.04295

   291    H   23  S      Val( 1S)     0.54358       0.27538
   292    H   23  S      Ryd( 2S)     0.00210       0.71506
   293    H   23  px     Ryd( 2p)     0.00008       2.78758
   294    H   23  py     Ryd( 2p)     0.00065       2.87085
   295    H   23  pz     Ryd( 2p)     0.00082       3.04865

   296    H   24  S      Val( 1S)     0.53004       0.29249
   297    H   24  S      Ryd( 2S)     0.00127       0.67414
   298    H   24  px     Ryd( 2p)     0.00006       2.76630
   299    H   24  py     Ryd( 2p)     0.00065       2.86023
   300    H   24  pz     Ryd( 2p)     0.00081       3.02891

   301    H   25  S      Val( 1S)     1.20648      -0.31069
   302    H   25  S      Ryd( 2S)     0.00287       0.71759
   303    H   25  px     Ryd( 2p)     0.00381       2.67140
   304    H   25  py     Ryd( 2p)     0.00139       2.50022
   305    H   25  pz     Ryd( 2p)     0.00032       2.46059

   306    H   26  S      Val( 1S)     0.73487       0.15945
   307    H   26  S      Ryd( 2S)     0.00215       0.73568
   308    H   26  px     Ryd( 2p)     0.00006       2.65047
   309    H   26  py     Ryd( 2p)     0.00006       2.68974
   310    H   26  pz     Ryd( 2p)     0.00081       3.30087

   311    H   27  S      Val( 1S)     0.73451       0.16566
   312    H   27  S      Ryd( 2S)     0.00199       0.74950
   313    H   27  px     Ryd( 2p)     0.00006       2.65772
   314    H   27  py     Ryd( 2p)     0.00006       2.69963
   315    H   27  pz     Ryd( 2p)     0.00080       3.30818

   316    H   28  S      Val( 1S)     0.73241       0.16911
   317    H   28  S      Ryd( 2S)     0.00201       0.75035
   318    H   28  px     Ryd( 2p)     0.00006       2.65885
   319    H   28  py     Ryd( 2p)     0.00006       2.70047
   320    H   28  pz     Ryd( 2p)     0.00081       3.30952

   321    H   29  S      Val( 1S)     0.73060       0.15213
   322    H   29  S      Ryd( 2S)     0.00210       0.71852
   323    H   29  px     Ryd( 2p)     0.00006       2.58791
   324    H   29  py     Ryd( 2p)     0.00007       2.59432
   325    H   29  pz     Ryd( 2p)     0.00084       3.27794

   326    H   30  S      Val( 1S)     0.74265       0.18396
   327    H   30  S      Ryd( 2S)     0.00142       0.66426
   328    H   30  px     Ryd( 2p)     0.00121       3.13086
   329    H   30  py     Ryd( 2p)     0.00041       2.78757
   330    H   30  pz     Ryd( 2p)     0.00001       2.68828

   331    H   31  S      Val( 1S)     0.75317       0.14886
   332    H   31  S      Ryd( 2S)     0.00092       0.77096
   333    H   31  px     Ryd( 2p)     0.00051       3.09164
   334    H   31  py     Ryd( 2p)     0.00025       2.78923
   335    H   31  pz     Ryd( 2p)     0.00007       2.62209

   336    H   32  S      Val( 1S)     0.76800       0.13884
   337    H   32  S      Ryd( 2S)     0.00081       0.74905
   338    H   32  px     Ryd( 2p)     0.00051       3.07918
   339    H   32  py     Ryd( 2p)     0.00026       2.78331
   340    H   32  pz     Ryd( 2p)     0.00007       2.64225

   341    H   33  S      Val( 1S)     0.75762       0.15181
   342    H   33  S      Ryd( 2S)     0.00111       0.75581
   343    H   33  px     Ryd( 2p)     0.00003       2.61316
   344    H   33  py     Ryd( 2p)     0.00005       2.58483
   345    H   33  pz     Ryd( 2p)     0.00075       3.30919

   346    H   34  S      Val( 1S)     0.75635       0.15981
   347    H   34  S      Ryd( 2S)     0.00095       0.77440
   348    H   34  px     Ryd( 2p)     0.00051       3.10124
   349    H   34  py     Ryd( 2p)     0.00023       2.81413
   350    H   34  pz     Ryd( 2p)     0.00008       2.66034

   351    H   35  S      Val( 1S)     0.77353       0.13834
   352    H   35  S      Ryd( 2S)     0.00087       0.76427
   353    H   35  px     Ryd( 2p)     0.00050       3.10140
   354    H   35  py     Ryd( 2p)     0.00026       2.80111
   355    H   35  pz     Ryd( 2p)     0.00008       2.65252

   356    H   36  S      Val( 1S)     0.76967       0.14403
   357    H   36  S      Ryd( 2S)     0.00132       0.76489
   358    H   36  px     Ryd( 2p)     0.00003       2.63725
   359    H   36  py     Ryd( 2p)     0.00005       2.61769
   360    H   36  pz     Ryd( 2p)     0.00075       3.31649

   361    H   37  S      Val( 1S)     0.75931       0.15320
   362    H   37  S      Ryd( 2S)     0.00097       0.77021
   363    H   37  px     Ryd( 2p)     0.00051       3.10124
   364    H   37  py     Ryd( 2p)     0.00022       2.80843
   365    H   37  pz     Ryd( 2p)     0.00008       2.65420

   366    H   38  S      Val( 1S)     0.77537       0.13257
   367    H   38  S      Ryd( 2S)     0.00089       0.76070
   368    H   38  px     Ryd( 2p)     0.00050       3.09340
   369    H   38  py     Ryd( 2p)     0.00026       2.79929
   370    H   38  pz     Ryd( 2p)     0.00008       2.65069

   371    H   39  S      Val( 1S)     0.76981       0.14054
   372    H   39  S      Ryd( 2S)     0.00134       0.76120
   373    H   39  px     Ryd( 2p)     0.00003       2.63449
   374    H   39  py     Ryd( 2p)     0.00005       2.61528
   375    H   39  pz     Ryd( 2p)     0.00075       3.31303

   376    H   40  S      Val( 1S)     0.76418       0.13818
   377    H   40  S      Ryd( 2S)     0.00111       0.75382
   378    H   40  px     Ryd( 2p)     0.00051       3.08955
   379    H   40  py     Ryd( 2p)     0.00022       2.79368
   380    H   40  pz     Ryd( 2p)     0.00009       2.64597

   381    H   41  S      Val( 1S)     0.77373       0.12625
   382    H   41  S      Ryd( 2S)     0.00091       0.75198
   383    H   41  px     Ryd( 2p)     0.00050       3.08544
   384    H   41  py     Ryd( 2p)     0.00026       2.79196
   385    H   41  pz     Ryd( 2p)     0.00008       2.63927

   386    H   42  S      Val( 1S)     0.77192       0.12913
   387    H   42  S      Ryd( 2S)     0.00138       0.75035
   388    H   42  px     Ryd( 2p)     0.00003       2.62399
   389    H   42  py     Ryd( 2p)     0.00006       2.60440
   390    H   42  pz     Ryd( 2p)     0.00074       3.30336


 Summary of Natural Population Analysis:                  
                                                          
                                       Natural Population 
                Natural  -----------------------------------------------
    Atom  No    Charge         Core      Valence    Rydberg      Total
 -----------------------------------------------------------------------
      C    1    0.63174      1.99944     3.32367    0.04515     5.36826
      O    2   -0.81667      1.99979     6.79527    0.02161     8.81667
      N    3   -0.74350      1.99927     5.72672    0.01750     7.74350
      C    4   -0.09949      1.99908     4.07598    0.02443     6.09949
      C    5    0.85014      1.99925     3.10072    0.04988     5.14986
      O    6   -0.79490      1.99976     6.77346    0.02168     8.79490
      N    7   -0.73066      1.99917     5.71375    0.01774     7.73066
      C    8   -0.09266      1.99907     4.07015    0.02343     6.09266
      C    9   -0.63644      1.99936     4.62583    0.01125     6.63644
      C   10   -0.63602      1.99936     4.62547    0.01119     6.63602
      C   11    0.85111      1.99925     3.09987    0.04977     5.14889
      O   12   -0.79112      1.99976     6.76965    0.02172     8.79112
      N   13   -0.73209      1.99917     5.71528    0.01764     7.73209
      C   14   -0.09293      1.99907     4.07032    0.02353     6.09293
      C   15    0.84803      1.99926     3.10251    0.05020     5.15197
      O   16   -0.78827      1.99976     6.76665    0.02187     8.78827
      N   17   -0.73448      1.99914     5.71904    0.01630     7.73448
      C   18    0.09868      1.99924     3.88189    0.02019     5.90132
      C   19   -0.64998      1.99936     4.64020    0.01042     6.64998
      C   20   -0.63712      1.99936     4.62641    0.01136     6.63712
      H   21    0.44396      0.00000     0.55220    0.00384     0.55604
      H   22    0.45288      0.00000     0.54338    0.00374     0.54712
      H   23    0.45278      0.00000     0.54358    0.00364     0.54722
      H   24    0.46716      0.00000     0.53004    0.00280     0.53284
      H   25   -0.21486      0.00000     1.20648    0.00838     1.21486
      H   26    0.26206      0.00000     0.73487    0.00307     0.73794
      H   27    0.26257      0.00000     0.73451    0.00292     0.73743
      H   28    0.26466      0.00000     0.73241    0.00294     0.73534
      H   29    0.26632      0.00000     0.73060    0.00308     0.73368
      H   30    0.25430      0.00000     0.74265    0.00306     0.74570
      H   31    0.24508      0.00000     0.75317    0.00175     0.75492
      H   32    0.23035      0.00000     0.76800    0.00165     0.76965
      H   33    0.24044      0.00000     0.75762    0.00194     0.75956
      H   34    0.24188      0.00000     0.75635    0.00177     0.75812
      H   35    0.22476      0.00000     0.77353    0.00171     0.77524
      H   36    0.22818      0.00000     0.76967    0.00215     0.77182
      H   37    0.23890      0.00000     0.75931    0.00179     0.76110
      H   38    0.22289      0.00000     0.77537    0.00173     0.77711
      H   39    0.22803      0.00000     0.76981    0.00217     0.77197
      H   40    0.23389      0.00000     0.76418    0.00192     0.76611
      H   41    0.22452      0.00000     0.77373    0.00175     0.77548
      H   42    0.22587      0.00000     0.77192    0.00220     0.77413
 =======================================================================
   * Total *   -0.00000     39.98692   113.46624    0.54684   154.00000

                                 Natural Population      
 --------------------------------------------------------
   Core                      39.98692 ( 99.9673% of  40)
   Valence                  113.46624 ( 99.5318% of 114)
   Natural Minimal Basis    153.45316 ( 99.6449% of 154)
   Natural Rydberg Basis      0.54684 (  0.3551% of 154)
 --------------------------------------------------------

    Atom  No          Natural Electron Configuration
 ----------------------------------------------------------------------------
      C    1      [core]2S( 0.89)2p( 2.44)3S( 0.01)3p( 0.03)3d( 0.01)
      O    2      [core]2S( 1.73)2p( 5.07)3d( 0.02)
      N    3      [core]2S( 1.27)2p( 4.46)3p( 0.01)
      C    4      [core]2S( 0.97)2p( 3.11)3p( 0.01)3d( 0.01)
      C    5      [core]2S( 0.77)2p( 2.33)3S( 0.01)3p( 0.03)3d( 0.01)
      O    6      [core]2S( 1.71)2p( 5.06)3d( 0.02)
      N    7      [core]2S( 1.25)2p( 4.46)3p( 0.01)
      C    8      [core]2S( 0.97)2p( 3.10)3p( 0.01)3d( 0.01)
      C    9      [core]2S( 1.09)2p( 3.53)3p( 0.01)3d( 0.01)
      C   10      [core]2S( 1.09)2p( 3.53)3p( 0.01)3d( 0.01)
      C   11      [core]2S( 0.77)2p( 2.33)3S( 0.01)3p( 0.03)3d( 0.01)
      O   12      [core]2S( 1.71)2p( 5.06)3d( 0.02)
      N   13      [core]2S( 1.25)2p( 4.46)3p( 0.01)
      C   14      [core]2S( 0.97)2p( 3.10)3p( 0.01)3d( 0.01)
      C   15      [core]2S( 0.77)2p( 2.33)3S( 0.01)3p( 0.03)3d( 0.01)
      O   16      [core]2S( 1.71)2p( 5.05)3d( 0.02)
      N   17      [core]2S( 1.26)2p( 4.46)3p( 0.01)
      C   18      [core]2S( 0.98)2p( 2.91)3p( 0.01)3d( 0.01)
      C   19      [core]2S( 1.10)2p( 3.54)3d( 0.01)
      C   20      [core]2S( 1.09)2p( 3.53)3p( 0.01)3d( 0.01)
      H   21            1S( 0.55)
      H   22            1S( 0.54)
      H   23            1S( 0.54)
      H   24            1S( 0.53)
      H   25            1S( 1.21)2p( 0.01)
      H   26            1S( 0.73)
      H   27            1S( 0.73)
      H   28            1S( 0.73)
      H   29            1S( 0.73)
      H   30            1S( 0.74)
      H   31            1S( 0.75)
      H   32            1S( 0.77)
      H   33            1S( 0.76)
      H   34            1S( 0.76)
      H   35            1S( 0.77)
      H   36            1S( 0.77)
      H   37            1S( 0.76)
      H   38            1S( 0.78)
      H   39            1S( 0.77)
      H   40            1S( 0.76)
      H   41            1S( 0.77)
      H   42            1S( 0.77)


 NBO analysis skipped by request.
 Leave Link  607 at Sun Feb  9 22:26:51 2020, MaxMem=   134217728 cpu:               3.1 elap:               0.5
 (Enter /home/soft/g16/l9999.exe)

 Test job not archived.
 1\1\GINC-NODE09\SP\RHF\6-31G(d,p)\C12H22N4O4\ROOT\09-Feb-2020\0\\#p hf
 /6-31g(d,p) 5d 7f pop=npa charge nosymm\\Atom number=42\\0,1\C,0,-28.9
 2011103,-0.10957075,0.40842711\O,0,-28.95071106,-0.89272938,1.39294189
 \N,0,-27.79756193,0.02248095,-0.30676127\C,0,-26.59860648,-0.74574567,
 0.05777073\C,0,-25.34084859,0.05079684,-0.33544078\O,0,-25.37453753,0.
 83347782,-1.32024688\N,0,-24.21266043,-0.08851648,0.36951011\C,0,-23.0
 1400434,0.67529095,-0.00513183\C,0,-23.01089409,2.02279208,0.74037059\
 C,0,-26.60640476,-2.09404775,-0.68625187\C,0,-21.75464747,-0.12467167,
 0.37589694\O,0,-21.78077866,-0.90888683,1.35973061\N,0,-20.632814,0.01
 470798,-0.33914568\C,0,-19.42916758,-0.74611779,0.02558019\C,0,-18.175
 88033,0.05841713,-0.36633878\O,0,-18.21307112,0.84079634,-1.35122805\N
 ,0,-17.04789203,-0.07397281,0.34036862\C,0,-15.85266112,0.69659926,-0.
 03174289\C,0,-15.85891261,2.04442139,0.71319459\C,0,-19.4281988,-2.094
 14299,-0.71902108\H,0,-27.77391109,0.64422092,-1.08962406\H,0,-24.1847
 9271,-0.71166951,1.15111005\H,0,-20.6129361,0.6368448,-1.12181425\H,0,
 -17.01782543,-0.69687498,1.12205073\H,0,-14.97529746,0.14553907,0.2355
 8776\H,0,-26.59440733,-0.92099605,1.11334726\H,0,-23.01876762,0.851409
 86,-1.06051668\H,0,-19.4245311,-0.9217513,1.08103723\H,0,-15.85573906,
 0.87240344,-1.08720598\H,0,-29.79204578,0.45104474,0.1432101\H,0,-16.7
 3625128,2.5955559,0.44590208\H,0,-14.98898493,2.60555186,0.44260872\H,
 0,-15.8559221,1.86861426,1.76863982\H,0,-20.29920458,-2.65272994,-0.44
 653879\H,0,-18.55192429,-2.64775115,-0.45337636\H,0,-19.432823,-1.9185
 9011,-1.77450535\H,0,-23.88588443,2.57884226,0.47562253\H,0,-22.138605
 63,2.57925996,0.46773647\H,0,-23.00608464,1.84652552,1.79575177\H,0,-2
 7.48062171,-2.64717984,-0.41294921\H,0,-25.73334779,-2.65287191,-0.420
 94504\H,0,-26.61066487,-1.91888468,-1.74179632\\Version=ES64L-G16RevA.
 03\HF=-986.9814669\RMSD=6.738e-09\Dipole=1.2652117,0.436943,-0.0423291
 \Quadrupole=-76.7547267,43.2048434,33.5498833,-28.104341,21.5223844,6.
 7710189\PG=C01 [X(C12H22N4O4)]\\@


 ONE THORN OF EXPERIENCE IS WORTH A WHOLE WILDERNESS OF
 WARNING....  LOWELL - AMONG MY BOOKS
 Job cpu time:       0 days  0 hours  2 minutes 37.9 seconds.
 Elapsed time:       0 days  0 hours  0 minutes 26.6 seconds.
 File lengths (MBytes):  RWF=    140 Int=      0 D2E=      0 Chk=     16 Scr=      8
 Normal termination of Gaussian 16 at Sun Feb  9 22:26:51 2020.
