#INFO: **** input file is /home/liwei01/wsr/dftpart/test_2body/c8h18/eda_c8.py ****
from dftpart import scfeda

test1 = scfeda.EDA()
test1.gjf = 'c8h18.gjf'
test1.method = ['hf','6-31gss']
test1.output = 'c8h18'
test1.verbose = 9
#test1.build()
test1.showinter=True
test1.lso = 'c8h18/c8h18.lso'
test1.kernel()
        

#INFO: ******************** input file end ********************


System: uname_result(system='Linux', node='master', release='3.10.0-693.el7.x86_64', version='#1 SMP Tue Aug 22 21:09:27 UTC 2017', machine='x86_64', processor='x86_64')  Threads 20
Python 3.6.4 |Anaconda, Inc.| (default, Jan 16 2018, 18:10:19) 
[GCC 7.2.0]
numpy 1.14.0  scipy 1.0.0
Date: Sat Mar 28 15:26:31 2020
PySCF version 1.6.1
PySCF path  /home/liwei01/zcheng/pyscf/pyscf
GIT HEAD      ref: refs/heads/master
GIT master branch  3adc7fd25839fe674469a52b764c3661e32d7318

[CONFIG] DEBUG = False
[CONFIG] MAX_MEMORY = 4000
[CONFIG] TMPDIR = .
[CONFIG] UNIT = angstrom
[CONFIG] VERBOSE = 3
[CONFIG] conf_file = None
[INPUT] verbose = 9
[INPUT] max_memory = 4000 
[INPUT] num. atoms = 26
[INPUT] num. electrons = 66
[INPUT] charge = 0
[INPUT] spin (= nelec alpha-beta = 2S) = 0
[INPUT] symmetry False subgroup None
[INPUT] Mole.unit = angstrom
[INPUT]  1 C     -7.760571710000  -0.690679840000   0.714187300000 AA  -14.665355101948  -1.305195737358   1.349618398643 Bohr
[INPUT]  2 H     -7.403917290000  -1.699489840000   0.714187300000 AA  -13.991375927032  -3.211570349081   1.349618398643 Bohr
[INPUT]  3 H     -7.403898870000  -0.186281650000   1.587838800000 AA  -13.991341118277  -0.352021300532   3.000580461958 Bohr
[INPUT]  4 H     -8.830571710000  -0.690666660000   0.714187300000 AA  -16.687362055232  -1.305170830768   1.349618398643 Bohr
[INPUT]  5 C     -7.247229490000   0.035276430000  -0.543217670000 AA  -13.695278897971   0.066662791352  -1.026532622324 Bohr
[INPUT]  6 H     -7.605480420000   1.043520110000  -0.544196420000 AA  -14.372275039542   1.971967213376  -1.028382191769 Bohr
[INPUT]  7 H     -7.602304130000  -0.470250360000  -1.416867870000 AA  -14.366272721350  -0.888644390378  -2.677492228996 Bohr
[INPUT]  8 C     -5.707232040000   0.037695900000  -0.541810400000 AA  -10.785105484943   0.071234927019  -1.023873267441 Bohr
[INPUT]  9 H     -5.348982300000  -0.970547770000  -0.540454700000 AA  -10.108111592146  -1.834069476107  -1.021311365734 Bohr
[INPUT] 10 H     -5.352157510000   0.543548610000   0.331651170000 AA  -10.114111869434   1.027158008288   0.626729880192 Bohr
[INPUT] 11 C     -5.193888830000   0.763182740000  -1.799485870000 AA   -9.815027410138   1.442206361595  -3.400535459325 Bohr
[INPUT] 12 H     -5.552206560000   1.771402190000  -1.800882260000 AA  -10.492149785414   3.347464995555  -3.403174253988 Bohr
[INPUT] 13 H     -5.548895830000   0.257282680000  -2.672947470000 AA  -10.485893412441   0.486193801794  -5.051138663649 Bohr
[INPUT] 14 C     -3.653891600000   0.765704890000  -1.798019450000 AA   -6.904854412849   1.446972534340  -3.397764327141 Bohr
[INPUT] 15 H     -3.295574730000  -0.242514850000  -1.796613100000 AA   -6.227733662737  -0.458286647640  -3.395106710806 Bohr
[INPUT] 16 H     -3.298884380000   1.271613210000  -0.924562730000 AA   -6.233987994806   2.403000703279  -1.747170344680 Bohr
[INPUT] 17 C     -3.140548370000   1.491179950000  -3.055701710000 AA   -5.934776300249   2.817921707943  -5.774439350265 Bohr
[INPUT] 18 H     -3.498867520000   2.499398880000  -3.057108420000 AA   -6.611901358936   4.723179359245  -5.777097646902 Bohr
[INPUT] 19 H     -3.495553930000   0.985270700000  -3.929158570000 AA   -6.605639581347   1.861891781559  -7.425033597288 Bohr
[INPUT] 20 C     -1.600551140000   1.493704280000  -3.054234050000 AA   -3.024603302960   2.822692000291  -5.771665874821 Bohr
[INPUT] 21 H     -1.242232840000   0.485485050000  -3.052828560000 AA   -2.347479850541   0.917433782071  -5.769009883650 Bohr
[INPUT] 22 H     -1.245545350000   1.999612100000  -2.180776450000 AA   -2.353739587226   3.778719224366  -4.121070229401 Bohr
[INPUT] 23 C     -1.087207910000   2.219181520000  -4.311915050000 AA   -2.054525190361   4.193645293496  -8.148338516890 Bohr
[INPUT] 24 H     -1.445525630000   3.227400960000  -4.313319140000 AA   -2.731647546739   6.098903908558  -8.150991862445 Bohr
[INPUT] 25 H     -0.017209830000   2.220933910000  -4.310896180000 AA   -0.032521865350   4.196956830659  -8.146413131634 Bohr
[INPUT] 26 H     -1.442214910000   1.713274800000  -5.185372790000 AA   -2.725391192664   3.237620148119  -9.798934426872 Bohr
[INPUT] ---------------- BASIS SET ---------------- 
[INPUT] l, kappa, [nprim/nctr], expnt,             c_1 c_2 ...
[INPUT] H
[INPUT] 0    0    [3    /1   ]  18.731137         0.0334946
                                2.8253937         0.23472695
                                0.6401217         0.81375733
[INPUT] 0    0    [1    /1   ]  0.1612778            1
[INPUT] 1    0    [1    /1   ]  1.1                  1
[INPUT] C
[INPUT] 0    0    [6    /1   ]  3047.5249         0.0018347
                                457.36951         0.0140373
                                103.94869         0.0688426
                                29.210155         0.2321844
                                9.286663          0.4679413
                                3.163927          0.362312
[INPUT] 0    0    [3    /1   ]  7.8682724         -0.1193324
                                1.8812885         -0.1608542
                                0.5442493         1.1434564
[INPUT] 0    0    [1    /1   ]  0.1687144            1
[INPUT] 1    0    [3    /1   ]  7.8682724         0.0689991
                                1.8812885         0.316424
                                0.5442493         0.7443083
[INPUT] 1    0    [1    /1   ]  0.1687144            1
[INPUT] 2    0    [1    /1   ]  0.8                  1

nuclear repulsion = 378.357834541917
number of shells = 102
number of NR pGTOs = 342
number of NR cGTOs = 202
basis = 6-31gss
ecp = {}
bas 0, expnt(s) = [3047.5249    457.36951   103.94869    29.210155    9.286663    3.163927]
bas 1, expnt(s) = [7.8682724 1.8812885 0.5442493]
bas 2, expnt(s) = [0.1687144]
bas 3, expnt(s) = [7.8682724 1.8812885 0.5442493]
bas 4, expnt(s) = [0.1687144]
bas 5, expnt(s) = [0.8]
bas 6, expnt(s) = [18.731137   2.8253937  0.6401217]
bas 7, expnt(s) = [0.1612778]
bas 8, expnt(s) = [1.1]
bas 9, expnt(s) = [18.731137   2.8253937  0.6401217]
bas 10, expnt(s) = [0.1612778]
bas 11, expnt(s) = [1.1]
bas 12, expnt(s) = [18.731137   2.8253937  0.6401217]
bas 13, expnt(s) = [0.1612778]
bas 14, expnt(s) = [1.1]
bas 15, expnt(s) = [3047.5249    457.36951   103.94869    29.210155    9.286663    3.163927]
bas 16, expnt(s) = [7.8682724 1.8812885 0.5442493]
bas 17, expnt(s) = [0.1687144]
bas 18, expnt(s) = [7.8682724 1.8812885 0.5442493]
bas 19, expnt(s) = [0.1687144]
bas 20, expnt(s) = [0.8]
bas 21, expnt(s) = [18.731137   2.8253937  0.6401217]
bas 22, expnt(s) = [0.1612778]
bas 23, expnt(s) = [1.1]
bas 24, expnt(s) = [18.731137   2.8253937  0.6401217]
bas 25, expnt(s) = [0.1612778]
bas 26, expnt(s) = [1.1]
bas 27, expnt(s) = [3047.5249    457.36951   103.94869    29.210155    9.286663    3.163927]
bas 28, expnt(s) = [7.8682724 1.8812885 0.5442493]
bas 29, expnt(s) = [0.1687144]
bas 30, expnt(s) = [7.8682724 1.8812885 0.5442493]
bas 31, expnt(s) = [0.1687144]
bas 32, expnt(s) = [0.8]
bas 33, expnt(s) = [18.731137   2.8253937  0.6401217]
bas 34, expnt(s) = [0.1612778]
bas 35, expnt(s) = [1.1]
bas 36, expnt(s) = [18.731137   2.8253937  0.6401217]
bas 37, expnt(s) = [0.1612778]
bas 38, expnt(s) = [1.1]
bas 39, expnt(s) = [3047.5249    457.36951   103.94869    29.210155    9.286663    3.163927]
bas 40, expnt(s) = [7.8682724 1.8812885 0.5442493]
bas 41, expnt(s) = [0.1687144]
bas 42, expnt(s) = [7.8682724 1.8812885 0.5442493]
bas 43, expnt(s) = [0.1687144]
bas 44, expnt(s) = [0.8]
bas 45, expnt(s) = [18.731137   2.8253937  0.6401217]
bas 46, expnt(s) = [0.1612778]
bas 47, expnt(s) = [1.1]
bas 48, expnt(s) = [18.731137   2.8253937  0.6401217]
bas 49, expnt(s) = [0.1612778]
bas 50, expnt(s) = [1.1]
bas 51, expnt(s) = [3047.5249    457.36951   103.94869    29.210155    9.286663    3.163927]
bas 52, expnt(s) = [7.8682724 1.8812885 0.5442493]
bas 53, expnt(s) = [0.1687144]
bas 54, expnt(s) = [7.8682724 1.8812885 0.5442493]
bas 55, expnt(s) = [0.1687144]
bas 56, expnt(s) = [0.8]
bas 57, expnt(s) = [18.731137   2.8253937  0.6401217]
bas 58, expnt(s) = [0.1612778]
bas 59, expnt(s) = [1.1]
bas 60, expnt(s) = [18.731137   2.8253937  0.6401217]
bas 61, expnt(s) = [0.1612778]
bas 62, expnt(s) = [1.1]
bas 63, expnt(s) = [3047.5249    457.36951   103.94869    29.210155    9.286663    3.163927]
bas 64, expnt(s) = [7.8682724 1.8812885 0.5442493]
bas 65, expnt(s) = [0.1687144]
bas 66, expnt(s) = [7.8682724 1.8812885 0.5442493]
bas 67, expnt(s) = [0.1687144]
bas 68, expnt(s) = [0.8]
bas 69, expnt(s) = [18.731137   2.8253937  0.6401217]
bas 70, expnt(s) = [0.1612778]
bas 71, expnt(s) = [1.1]
bas 72, expnt(s) = [18.731137   2.8253937  0.6401217]
bas 73, expnt(s) = [0.1612778]
bas 74, expnt(s) = [1.1]
bas 75, expnt(s) = [3047.5249    457.36951   103.94869    29.210155    9.286663    3.163927]
bas 76, expnt(s) = [7.8682724 1.8812885 0.5442493]
bas 77, expnt(s) = [0.1687144]
bas 78, expnt(s) = [7.8682724 1.8812885 0.5442493]
bas 79, expnt(s) = [0.1687144]
bas 80, expnt(s) = [0.8]
bas 81, expnt(s) = [18.731137   2.8253937  0.6401217]
bas 82, expnt(s) = [0.1612778]
bas 83, expnt(s) = [1.1]
bas 84, expnt(s) = [18.731137   2.8253937  0.6401217]
bas 85, expnt(s) = [0.1612778]
bas 86, expnt(s) = [1.1]
bas 87, expnt(s) = [3047.5249    457.36951   103.94869    29.210155    9.286663    3.163927]
bas 88, expnt(s) = [7.8682724 1.8812885 0.5442493]
bas 89, expnt(s) = [0.1687144]
bas 90, expnt(s) = [7.8682724 1.8812885 0.5442493]
bas 91, expnt(s) = [0.1687144]
bas 92, expnt(s) = [0.8]
bas 93, expnt(s) = [18.731137   2.8253937  0.6401217]
bas 94, expnt(s) = [0.1612778]
bas 95, expnt(s) = [1.1]
bas 96, expnt(s) = [18.731137   2.8253937  0.6401217]
bas 97, expnt(s) = [0.1612778]
bas 98, expnt(s) = [1.1]
bas 99, expnt(s) = [18.731137   2.8253937  0.6401217]
bas 100, expnt(s) = [0.1612778]
bas 101, expnt(s) = [1.1]
CPU time:         0.88
arg.atm = [[  6  20   1  23   0   0]
 [  1  24   1  27   0   0]
 [  1  28   1  31   0   0]
 [  1  32   1  35   0   0]
 [  6  36   1  39   0   0]
 [  1  40   1  43   0   0]
 [  1  44   1  47   0   0]
 [  6  48   1  51   0   0]
 [  1  52   1  55   0   0]
 [  1  56   1  59   0   0]
 [  6  60   1  63   0   0]
 [  1  64   1  67   0   0]
 [  1  68   1  71   0   0]
 [  6  72   1  75   0   0]
 [  1  76   1  79   0   0]
 [  1  80   1  83   0   0]
 [  6  84   1  87   0   0]
 [  1  88   1  91   0   0]
 [  1  92   1  95   0   0]
 [  6  96   1  99   0   0]
 [  1 100   1 103   0   0]
 [  1 104   1 107   0   0]
 [  6 108   1 111   0   0]
 [  1 112   1 115   0   0]
 [  1 116   1 119   0   0]
 [  1 120   1 123   0   0]]
arg.bas = [[  0   0   6   1   0 134 140   0]
 [  0   0   3   1   0 146 149   0]
 [  0   0   1   1   0 152 153   0]
 [  0   1   3   1   0 154 157   0]
 [  0   1   1   1   0 160 161   0]
 [  0   2   1   1   0 162 163   0]
 [  1   0   3   1   0 124 127   0]
 [  1   0   1   1   0 130 131   0]
 [  1   1   1   1   0 132 133   0]
 [  2   0   3   1   0 124 127   0]
 [  2   0   1   1   0 130 131   0]
 [  2   1   1   1   0 132 133   0]
 [  3   0   3   1   0 124 127   0]
 [  3   0   1   1   0 130 131   0]
 [  3   1   1   1   0 132 133   0]
 [  4   0   6   1   0 134 140   0]
 [  4   0   3   1   0 146 149   0]
 [  4   0   1   1   0 152 153   0]
 [  4   1   3   1   0 154 157   0]
 [  4   1   1   1   0 160 161   0]
 [  4   2   1   1   0 162 163   0]
 [  5   0   3   1   0 124 127   0]
 [  5   0   1   1   0 130 131   0]
 [  5   1   1   1   0 132 133   0]
 [  6   0   3   1   0 124 127   0]
 [  6   0   1   1   0 130 131   0]
 [  6   1   1   1   0 132 133   0]
 [  7   0   6   1   0 134 140   0]
 [  7   0   3   1   0 146 149   0]
 [  7   0   1   1   0 152 153   0]
 [  7   1   3   1   0 154 157   0]
 [  7   1   1   1   0 160 161   0]
 [  7   2   1   1   0 162 163   0]
 [  8   0   3   1   0 124 127   0]
 [  8   0   1   1   0 130 131   0]
 [  8   1   1   1   0 132 133   0]
 [  9   0   3   1   0 124 127   0]
 [  9   0   1   1   0 130 131   0]
 [  9   1   1   1   0 132 133   0]
 [ 10   0   6   1   0 134 140   0]
 [ 10   0   3   1   0 146 149   0]
 [ 10   0   1   1   0 152 153   0]
 [ 10   1   3   1   0 154 157   0]
 [ 10   1   1   1   0 160 161   0]
 [ 10   2   1   1   0 162 163   0]
 [ 11   0   3   1   0 124 127   0]
 [ 11   0   1   1   0 130 131   0]
 [ 11   1   1   1   0 132 133   0]
 [ 12   0   3   1   0 124 127   0]
 [ 12   0   1   1   0 130 131   0]
 [ 12   1   1   1   0 132 133   0]
 [ 13   0   6   1   0 134 140   0]
 [ 13   0   3   1   0 146 149   0]
 [ 13   0   1   1   0 152 153   0]
 [ 13   1   3   1   0 154 157   0]
 [ 13   1   1   1   0 160 161   0]
 [ 13   2   1   1   0 162 163   0]
 [ 14   0   3   1   0 124 127   0]
 [ 14   0   1   1   0 130 131   0]
 [ 14   1   1   1   0 132 133   0]
 [ 15   0   3   1   0 124 127   0]
 [ 15   0   1   1   0 130 131   0]
 [ 15   1   1   1   0 132 133   0]
 [ 16   0   6   1   0 134 140   0]
 [ 16   0   3   1   0 146 149   0]
 [ 16   0   1   1   0 152 153   0]
 [ 16   1   3   1   0 154 157   0]
 [ 16   1   1   1   0 160 161   0]
 [ 16   2   1   1   0 162 163   0]
 [ 17   0   3   1   0 124 127   0]
 [ 17   0   1   1   0 130 131   0]
 [ 17   1   1   1   0 132 133   0]
 [ 18   0   3   1   0 124 127   0]
 [ 18   0   1   1   0 130 131   0]
 [ 18   1   1   1   0 132 133   0]
 [ 19   0   6   1   0 134 140   0]
 [ 19   0   3   1   0 146 149   0]
 [ 19   0   1   1   0 152 153   0]
 [ 19   1   3   1   0 154 157   0]
 [ 19   1   1   1   0 160 161   0]
 [ 19   2   1   1   0 162 163   0]
 [ 20   0   3   1   0 124 127   0]
 [ 20   0   1   1   0 130 131   0]
 [ 20   1   1   1   0 132 133   0]
 [ 21   0   3   1   0 124 127   0]
 [ 21   0   1   1   0 130 131   0]
 [ 21   1   1   1   0 132 133   0]
 [ 22   0   6   1   0 134 140   0]
 [ 22   0   3   1   0 146 149   0]
 [ 22   0   1   1   0 152 153   0]
 [ 22   1   3   1   0 154 157   0]
 [ 22   1   1   1   0 160 161   0]
 [ 22   2   1   1   0 162 163   0]
 [ 23   0   3   1   0 124 127   0]
 [ 23   0   1   1   0 130 131   0]
 [ 23   1   1   1   0 132 133   0]
 [ 24   0   3   1   0 124 127   0]
 [ 24   0   1   1   0 130 131   0]
 [ 24   1   1   1   0 132 133   0]
 [ 25   0   3   1   0 124 127   0]
 [ 25   0   1   1   0 130 131   0]
 [ 25   1   1   1   0 132 133   0]]
arg.env = [ 1.37036000e+02  0.00000000e+00  0.00000000e+00  0.00000000e+00
  0.00000000e+00  0.00000000e+00  0.00000000e+00  0.00000000e+00
  0.00000000e+00  0.00000000e+00  0.00000000e+00  0.00000000e+00
  0.00000000e+00  0.00000000e+00  0.00000000e+00  0.00000000e+00
  0.00000000e+00  0.00000000e+00  0.00000000e+00  0.00000000e+00
 -1.46653551e+01 -1.30519574e+00  1.34961840e+00  0.00000000e+00
 -1.39913759e+01 -3.21157035e+00  1.34961840e+00  0.00000000e+00
 -1.39913411e+01 -3.52021301e-01  3.00058046e+00  0.00000000e+00
 -1.66873621e+01 -1.30517083e+00  1.34961840e+00  0.00000000e+00
 -1.36952789e+01  6.66627914e-02 -1.02653262e+00  0.00000000e+00
 -1.43722750e+01  1.97196721e+00 -1.02838219e+00  0.00000000e+00
 -1.43662727e+01 -8.88644390e-01 -2.67749223e+00  0.00000000e+00
 -1.07851055e+01  7.12349270e-02 -1.02387327e+00  0.00000000e+00
 -1.01081116e+01 -1.83406948e+00 -1.02131137e+00  0.00000000e+00
 -1.01141119e+01  1.02715801e+00  6.26729880e-01  0.00000000e+00
 -9.81502741e+00  1.44220636e+00 -3.40053546e+00  0.00000000e+00
 -1.04921498e+01  3.34746500e+00 -3.40317425e+00  0.00000000e+00
 -1.04858934e+01  4.86193802e-01 -5.05113866e+00  0.00000000e+00
 -6.90485441e+00  1.44697253e+00 -3.39776433e+00  0.00000000e+00
 -6.22773366e+00 -4.58286648e-01 -3.39510671e+00  0.00000000e+00
 -6.23398799e+00  2.40300070e+00 -1.74717034e+00  0.00000000e+00
 -5.93477630e+00  2.81792171e+00 -5.77443935e+00  0.00000000e+00
 -6.61190136e+00  4.72317936e+00 -5.77709765e+00  0.00000000e+00
 -6.60563958e+00  1.86189178e+00 -7.42503360e+00  0.00000000e+00
 -3.02460330e+00  2.82269200e+00 -5.77166587e+00  0.00000000e+00
 -2.34747985e+00  9.17433782e-01 -5.76900988e+00  0.00000000e+00
 -2.35373959e+00  3.77871922e+00 -4.12107023e+00  0.00000000e+00
 -2.05452519e+00  4.19364529e+00 -8.14833852e+00  0.00000000e+00
 -2.73164755e+00  6.09890391e+00 -8.15099186e+00  0.00000000e+00
 -3.25218654e-02  4.19695683e+00 -8.14641313e+00  0.00000000e+00
 -2.72539119e+00  3.23762015e+00 -9.79893443e+00  0.00000000e+00
  1.87311370e+01  2.82539370e+00  6.40121700e-01  7.61926220e-01
  1.29237100e+00  1.47131900e+00  1.61277800e-01  6.42977783e-01
  1.10000000e+00  3.28643653e+00  3.04752490e+03  4.57369510e+02
  1.03948690e+02  2.92101550e+01  9.28666300e+00  3.16392700e+00
  1.90125588e+00  3.50751108e+00  5.66221808e+00  7.37052623e+00
  6.28928397e+00  2.17153894e+00  7.86827240e+00  1.88128850e+00
  5.44249300e-01 -1.41639039e+00 -6.52813326e-01  1.83055623e+00
  1.68714400e-01  6.65088040e-01  7.86827240e+00  1.88128850e+00
  5.44249300e-01  2.65263212e+00  2.03386926e+00  1.01504332e+00
  1.68714400e-01  3.15445679e-01  8.00000000e-01  1.76578110e+00]
ecpbas  = []


******** <class 'pyscf.scf.hf.RHF'> ********
method = RHF
initial guess = minao
damping factor = 0
level shift factor = 0
DIIS = <class 'pyscf.scf.diis.CDIIS'>
DIIS start cycle = 1
DIIS space = 8
SCF tol = 1e-09
SCF gradient tol = None
max. SCF cycles = 50
direct_scf = True
direct_scf_tol = 1e-13
chkfile to save SCF result = /home/liwei01/wsr/dftpart/test_2body/c8h18/tmphlqtnyy3
max_memory 4000 MB (current use 65 MB)
Set gradient conv threshold to 3.16228e-05
Nelec from initial guess = 65.964519602008
cond(S) = 2214.8294957993626
E1 = -1162.7514580249647  E_coul = 468.7583842494829
init E= -315.635239233564
    CPU time for initialize scf     17.32 sec, wall time      0.93 sec
  HOMO = -0.333522697782734  LUMO = 0.134775362620996
  mo_energy =
[-11.44150791 -11.4414354  -11.43961435 -11.43808116 -11.43660443
 -11.43556265 -11.43505608 -11.4349348   -1.69884449  -1.59967316
  -1.45421237  -1.28436957  -1.11450556  -0.98320061  -0.95403404
  -0.93771163  -0.71571215  -0.66568744  -0.60138944  -0.59512376
  -0.56400553  -0.55005275  -0.51893864  -0.49675029  -0.45328291
  -0.43987881  -0.43649212  -0.41176784  -0.41019786  -0.40471489
  -0.39774872  -0.39672205  -0.3335227    0.13477536   0.14286575
   0.15279065   0.18240893   0.18282032   0.19621161   0.21564143
   0.21928025   0.21967584   0.24674407   0.24762484   0.25596684
   0.25738634   0.27148651   0.2719076    0.27414361   0.27634031
   0.2847249    0.29252365   0.29614363   0.31132047   0.31427491
   0.32213052   0.35949512   0.36153957   0.58038543   0.60926983
   0.62171629   0.64889277   0.66514259   0.67259697   0.68853531
   0.68911913   0.69412582   0.70591097   0.7320472    0.75411677
   0.78193204   0.79895769   0.81921535   0.84286015   0.84930434
   0.88236838   0.90188267   0.93555198   0.9477437    0.97978522
   0.98591173   0.98878606   1.0133252    1.03405253   1.04927464
   1.04987299   1.05222889   1.07048433   1.07916979   1.08471546
   1.09040606   1.0926066    1.10366975   1.11188192   1.11360835
   1.12756976   1.12932298   1.13797805   1.16357153   1.17172793
   1.32339718   1.41284089   1.42120778   1.42731926   1.48881456
   1.52813644   1.59246542   1.5972299    1.62786645   1.67185852
   1.70087281   1.72553872   1.80914944   1.84640187   1.85289237
   1.85931698   1.86079868   1.86680709   1.88808847   1.88850712
   2.00162836   2.00426226   2.02998612   2.05048592   2.07304017
   2.07636706   2.13756854   2.14815126   2.15800313   2.25818573
   2.26867011   2.27021862   2.29247196   2.29527551   2.30252884
   2.30983852   2.32929944   2.334189     2.34082991   2.35487911
   2.40696603   2.41620821   2.44815718   2.46646143   2.47686209
   2.49658692   2.51029492   2.51915552   2.53334625   2.54166198
   2.55336991   2.56526323   2.5956507    2.64144924   2.65314765
   2.66635353   2.69770699   2.69945735   2.71571392   2.76743464
   2.78818228   2.88571021   2.89633547   2.90034527   2.90675466
   2.92713297   2.95177143   2.97085051   2.97126482   3.02118899
   3.06160644   3.09722773   3.10491986   3.13009004   3.15014782
   3.15302566   3.17841534   3.17852818   3.18190466   3.1940786
   3.20095336   3.20234232   3.22011308   3.22164805   3.50418574
   3.51908928   3.5494727    3.57279445   3.58357566   3.59710426
   3.62113299   3.63103275   3.66239154   3.69800615   3.72955942
   3.77573048   3.78236698   3.80383024   3.84168119   3.87279023
   3.88097449   3.88431462]
E1 = -1173.1472164360584  E_coul = 481.41295457475945
cycle= 1 E= -313.376427319382  delta_E= 2.26  |g|= 0.481  |ddm|= 3.98
    CPU time for cycle= 1      2.88 sec, wall time      0.16 sec
diis-norm(errvec)=1.05531
diis-c [-1.11368499  1.        ]
  HOMO = -0.362207703624982  LUMO = 0.230602607615479
  mo_energy =
[-11.16923546 -11.16923478 -11.16515548 -11.16462373 -11.16356114
 -11.16352591 -11.15238794 -11.15238748  -1.07369415  -1.04408394
  -0.99636636  -0.93360717  -0.86298318  -0.80237315  -0.78381118
  -0.77875251  -0.65198555  -0.62557308  -0.58533957  -0.57573094
  -0.55971473  -0.53837307  -0.52909797  -0.51008319  -0.49604804
  -0.47029235  -0.46843834  -0.45719882  -0.45679508  -0.44745035
  -0.44579277  -0.43697323  -0.3622077    0.23060261   0.24246916
   0.26071047   0.27110546   0.277948     0.29942144   0.30445213
   0.30985696   0.33093951   0.34005091   0.34326309   0.35069293
   0.35889406   0.36025294   0.36333941   0.36790571   0.38903746
   0.39383037   0.39515618   0.40413839   0.42638633   0.42918657
   0.48137378   0.50725256   0.50913187   0.67780888   0.72313126
   0.72940438   0.75232269   0.76019526   0.76483325   0.78000741
   0.78185471   0.82749437   0.84135249   0.85597509   0.85882228
   0.92659083   0.96127217   0.96733809   0.99318816   0.99844709
   1.02695407   1.04538252   1.07775523   1.09908981   1.10680379
   1.1185028    1.11955915   1.14308655   1.16616482   1.17369667
   1.17789234   1.18107758   1.19999829   1.20855565   1.21784436
   1.22142205   1.22229576   1.22402746   1.22910051   1.23938149
   1.25153636   1.25781647   1.26436308   1.27366564   1.28705838
   1.44551698   1.54334409   1.55708551   1.56725958   1.62870091
   1.63791404   1.69786572   1.73395702   1.7384805    1.77592068
   1.83359121   1.83866993   1.93213857   1.9707057    1.9710768
   1.98697307   1.99098641   2.00683268   2.01375191   2.01530141
   2.16971835   2.17123878   2.18681181   2.2003014    2.223898
   2.23395351   2.27106445   2.29388601   2.30617993   2.35800453
   2.35853681   2.41671254   2.41970338   2.42013638   2.43209377
   2.43715975   2.45493718   2.45807801   2.46196618   2.4841957
   2.53666085   2.5454845    2.56627453   2.57356576   2.59174318
   2.59812865   2.61405551   2.63538272   2.64566897   2.64990991
   2.66900852   2.67261612   2.72106127   2.7547514    2.77836697
   2.78134433   2.82243039   2.82584906   2.84394776   2.86202518
   2.91925526   3.02081781   3.03152583   3.03987597   3.04095201
   3.04550595   3.07288575   3.08646488   3.11923022   3.15455424
   3.17480253   3.22021089   3.23912733   3.2630078    3.26673008
   3.28742784   3.30046469   3.30691033   3.30996819   3.31359753
   3.31944097   3.33150685   3.35023949   3.35319708   3.63357017
   3.65023412   3.68500801   3.70662401   3.7203034    3.72949969
   3.75459719   3.76859993   3.79937095   3.83739516   3.86918948
   3.91671627   3.92340422   3.94652792   3.9832047    4.01547599
   4.02454671   4.02795618]
E1 = -1171.1087803506882  E_coul = 479.3021858956917
cycle= 2 E= -313.448759913079  delta_E= -0.0723  |g|= 0.126  |ddm|= 0.486
    CPU time for cycle= 2      2.29 sec, wall time      0.12 sec
diis-norm(errvec)=0.292366
diis-c [-0.07693146 -0.099861    1.099861  ]
  HOMO = -0.411202649025383  LUMO = 0.222112387561116
  mo_energy =
[-11.22932667 -11.22932576 -11.22775371 -11.22775173 -11.22493416
 -11.22437595 -11.22225693 -11.22225647  -1.10434326  -1.07401141
  -1.02389699  -0.95949771  -0.88657941  -0.82221295  -0.80222326
  -0.79728009  -0.67392943  -0.64715846  -0.60617195  -0.60264315
  -0.58257874  -0.56486057  -0.5600281   -0.53881162  -0.51779484
  -0.49972682  -0.48943777  -0.48676055  -0.47889998  -0.47844514
  -0.4767923   -0.46785254  -0.41120265   0.22211239   0.23566168
   0.25411401   0.26191132   0.27201603   0.29196667   0.29600879
   0.30391661   0.32346394   0.33525223   0.33651642   0.34267326
   0.34883165   0.35042737   0.35324284   0.36080663   0.37756801
   0.3779843    0.38412826   0.38811071   0.41067012   0.41698518
   0.45768399   0.48692226   0.48818881   0.66110448   0.69757521
   0.70647139   0.73626869   0.74240889   0.74414802   0.76191774
   0.7635702    0.80642857   0.81309707   0.83428841   0.83695765
   0.90510529   0.92781625   0.94585861   0.96004292   0.96756434
   0.99791517   1.01866045   1.05347223   1.07553436   1.08329044
   1.09685332   1.10016428   1.12304348   1.15232658   1.15931621
   1.16073689   1.16821933   1.18540631   1.195565     1.20291441
   1.20600403   1.2067526    1.20911406   1.21292044   1.22804253
   1.22933596   1.24841893   1.25411755   1.257554     1.26669921
   1.424607     1.52291094   1.53170939   1.53774136   1.60413032
   1.62015671   1.68130031   1.7134805    1.71661565   1.75882031
   1.81089019   1.82109361   1.91323827   1.94900083   1.95426107
   1.96755331   1.9742873    1.97967364   1.99589352   1.99602561
   2.13676758   2.14030211   2.15593717   2.17509957   2.19915682
   2.20450759   2.25241902   2.26701619   2.27847247   2.35864062
   2.35944297   2.38754876   2.40643045   2.40846366   2.4159595
   2.42258437   2.44124091   2.44786483   2.45231408   2.46909933
   2.52133601   2.52948828   2.55912878   2.56768831   2.57348383
   2.58688692   2.60895043   2.62669761   2.6306596    2.64440948
   2.65239988   2.65997038   2.70582437   2.74809781   2.7599696
   2.76637556   2.80693542   2.81201495   2.82962336   2.85659514
   2.90226001   3.00647237   3.01177237   3.02152585   3.02286121
   3.03174115   3.0624456    3.07150062   3.09681457   3.13766068
   3.16377864   3.20755859   3.22162497   3.24693141   3.2539646
   3.26925957   3.28788973   3.2936153    3.29482318   3.2963817
   3.30617545   3.31474876   3.33338314   3.33430362   3.62341629
   3.63901459   3.67102253   3.6927633    3.70439053   3.7169975
   3.74174336   3.75253465   3.78419543   3.82106746   3.85351256
   3.89908079   3.90771046   3.92888177   3.96567052   3.99767419
   4.00674941   4.00929513]
E1 = -1172.1582070819936  E_coul = 480.3464415203454
cycle= 3 E= -313.453931019731  delta_E= -0.00517  |g|= 0.046  |ddm|= 0.17
    CPU time for cycle= 3      2.42 sec, wall time      0.13 sec
diis-norm(errvec)=0.0998155
diis-c [-0.00157603 -0.08884315  0.22541121  0.86343194]
  HOMO = -0.398237818680307  LUMO = 0.226873099255182
  mo_energy =
[-11.20267623 -11.20267559 -11.20167829 -11.20120833 -11.20066071
 -11.20056284 -11.1976092  -11.19760875  -1.09016632  -1.05970349
  -1.01091279  -0.94714026  -0.87503435  -0.81195677  -0.79260896
  -0.78728546  -0.66432071  -0.63753121  -0.5974517   -0.5921499
  -0.57348409  -0.55271015  -0.55141444  -0.52896762  -0.50960912
  -0.4902968   -0.48187095  -0.47432449  -0.47108526  -0.47100805
  -0.4668345   -0.45805873  -0.39823782   0.2268731    0.24033112
   0.25906734   0.26735593   0.27642004   0.29742417   0.30140397
   0.30851912   0.32884334   0.3391981    0.34099312   0.34703642
   0.3544759    0.35572425   0.3597435    0.36586944   0.38412204
   0.38733335   0.39036075   0.39641818   0.41884128   0.42385406
   0.4690513    0.49712957   0.49832299   0.66807272   0.70651422
   0.71483215   0.74292669   0.751045     0.75123949   0.76926535
   0.77099735   0.81501514   0.82406942   0.84409666   0.84486734
   0.91390593   0.94145295   0.95495054   0.97396605   0.97981351
   1.00968742   1.02970361   1.06435084   1.08642827   1.09273551
   1.10682684   1.10940404   1.13284486   1.16044699   1.16715915
   1.16948519   1.17640883   1.1938077    1.20467526   1.21119914
   1.21452744   1.21558174   1.21762512   1.22156374   1.23566861
   1.2384537    1.25593851   1.26176874   1.26613264   1.27553583
   1.43466679   1.53178457   1.54354051   1.55065908   1.61569806
   1.62807932   1.68895801   1.72431284   1.7245856    1.76628244
   1.82120544   1.83006168   1.92271443   1.95827069   1.96368359
   1.97770004   1.98405441   1.99152232   2.00549739   2.0060669
   2.1505819    2.15382516   2.1685542    2.18659883   2.21107574
   2.21721492   2.26108127   2.27901316   2.29083669   2.36367507
   2.3643776    2.40041418   2.41502666   2.41662253   2.42578409
   2.43170998   2.45023649   2.45546389   2.4597346    2.47885421
   2.53052882   2.5393051    2.56613024   2.57453263   2.5850811
   2.59325029   2.61540226   2.63703094   2.63724282   2.6509187
   2.66323564   2.66744134   2.71510365   2.75480985   2.77048383
   2.77457588   2.8162448    2.82072565   2.83857448   2.86305133
   2.91212408   3.01602273   3.02188684   3.03264633   3.03276936
   3.03977188   3.07027941   3.0804408    3.10809235   3.14755307
   3.17186331   3.21640741   3.23175061   3.25722061   3.26148559
   3.27926844   3.29612018   3.30312141   3.30449573   3.30484342
   3.31509943   3.32446843   3.34301145   3.34447968   3.63230158
   3.64803833   3.6806617    3.70277927   3.71480559   3.72651143
   3.75124982   3.76306152   3.79441011   3.8311707    3.86326869
   3.90970668   3.91757441   3.93935879   3.97633742   4.00894003
   4.01720315   4.02075198]
E1 = -1171.7576432115764  E_coul = 479.9452661655358
cycle= 4 E= -313.454542504123  delta_E= -0.000611  |g|= 0.00419  |ddm|= 0.0485
    CPU time for cycle= 4      2.16 sec, wall time      0.12 sec
diis-norm(errvec)=0.00881372
diis-c [-3.54400528e-05  1.28496675e-02 -4.77238919e-02 -1.12833085e-01
  1.14770731e+00]
  HOMO = -0.39959500281242  LUMO = 0.226582321430693
  mo_energy =
[-11.20560228 -11.20560144 -11.20316498 -11.20314186 -11.20212194
 -11.20157651 -11.19817549 -11.19817502  -1.09087306  -1.06067908
  -1.01154428  -0.94777439  -0.87568376  -0.8126381   -0.79314667
  -0.78808136  -0.66488288  -0.63830127  -0.59798365  -0.59292609
  -0.57418884  -0.55358054  -0.55198022  -0.52978567  -0.51021991
  -0.49116995  -0.48256463  -0.47554892  -0.47195271  -0.47164439
  -0.46799767  -0.45900803  -0.399595     0.22658232   0.23997962
   0.25874285   0.26711691   0.27618093   0.29702519   0.30104118
   0.30814199   0.32846452   0.33888861   0.34074028   0.34675488
   0.3540815    0.3554681    0.35925117   0.36551238   0.38377673
   0.38679505   0.39000259   0.39575622   0.41826702   0.42329405
   0.4681856    0.49635077   0.49773832   0.66735699   0.70566285
   0.71400666   0.74240249   0.75032      0.75039486   0.76870156
   0.7704318    0.814346     0.82313488   0.84305693   0.84426772
   0.91334427   0.94030789   0.9542437    0.97264261   0.97875628
   1.00872194   1.02866853   1.06349382   1.08585353   1.09210446
   1.10623192   1.108522     1.13208976   1.15983858   1.16665872
   1.16898999   1.17572632   1.19321147   1.20391772   1.21068181
   1.21394976   1.21476433   1.21681065   1.22101754   1.23506056
   1.23768655   1.25532533   1.26113276   1.26550785   1.27476571
   1.43388325   1.53104536   1.54261589   1.54976492   1.61469452
   1.62748563   1.68829245   1.72364852   1.7238821    1.76565354
   1.82043823   1.82934722   1.9220518    1.95749667   1.96296177
   1.97683125   1.98304275   1.99063728   2.00475219   2.00529428
   2.14938163   2.15273865   2.16763456   2.18587583   2.20993071
   2.21622692   2.26050515   2.27813862   2.28996551   2.36318362
   2.36389431   2.39947128   2.41444214   2.41606296   2.42485065
   2.43103254   2.44938786   2.45492159   2.45917753   2.47789087
   2.5300066    2.53847836   2.56557416   2.57383683   2.58432684
   2.59264397   2.614801     2.63631944   2.63643832   2.65035025
   2.66235031   2.66683641   2.71435805   2.75420306   2.76983863
   2.77394357   2.81555605   2.81999229   2.83781271   2.86241566
   2.91139908   3.01519208   3.02126034   3.03184807   3.03202429
   3.03906439   3.06962633   3.07958578   3.10717862   3.14678385
   3.17111858   3.21564454   3.23096098   3.25643532   3.26088845
   3.2786902    3.29561689   3.30235392   3.30378636   3.3040715
   3.31436505   3.32375525   3.34228264   3.34366366   3.63163129
   3.64736735   3.68006674   3.70193855   3.7140533    3.7256432
   3.75041345   3.76216419   3.79358152   3.83055026   3.86274311
   3.90899254   3.91689903   3.93861994   3.97552787   4.00784493
   4.01666809   4.01971076]
E1 = -1171.7631981470079  E_coul = 479.9508134245208
cycle= 5 E= -313.45455018057  delta_E= -7.68e-06  |g|= 0.00108  |ddm|= 0.00835
    CPU time for cycle= 5      2.12 sec, wall time      0.12 sec
diis-norm(errvec)=0.00226974
diis-c [-2.70283639e-06  4.26728416e-03 -1.36967490e-02 -4.17360414e-02
  2.01589209e-01  8.49576297e-01]
  HOMO = -0.399707454292877  LUMO = 0.226559860833799
  mo_energy =
[-11.20497679 -11.20497595 -11.2030317  -11.20288303 -11.20247903
 -11.202059   -11.19852325 -11.1985228   -1.09093808  -1.0606031
  -1.01162742  -0.9478454   -0.87573647  -0.81264234  -0.79322446
  -0.78802625  -0.66491786  -0.63823163  -0.59802973  -0.59297557
  -0.57423318  -0.55369617  -0.55202863  -0.52984422  -0.51026055
  -0.49122704  -0.48256871  -0.47556655  -0.47189276  -0.47170751
  -0.46793963  -0.4590802   -0.39970745   0.22655986   0.23998107
   0.25870247   0.26710044   0.27616092   0.29700113   0.30106416
   0.30816207   0.32843215   0.33885771   0.34069881   0.34676637
   0.35412467   0.35544241   0.35923167   0.36548918   0.38375337
   0.38678774   0.38997788   0.39575319   0.41827379   0.42329909
   0.46817075   0.49637581   0.49764495   0.66734363   0.70560056
   0.71396458   0.74234605   0.7503254    0.75040057   0.76864795
   0.77039883   0.81425068   0.82308733   0.84310624   0.84424523
   0.9131969    0.94031154   0.95425317   0.9727409    0.97874033
   1.00871598   1.02867432   1.06355303   1.08578034   1.09201988
   1.10619978   1.10852394   1.13214547   1.15980366   1.16657437
   1.16892576   1.17570612   1.19319753   1.20390505   1.21055616
   1.21393918   1.21478766   1.21684716   1.22099483   1.23500171
   1.23769761   1.25528202   1.26109054   1.26548497   1.2747306
   1.43388012   1.5310217    1.54260139   1.5497352    1.61473395
   1.62742372   1.68827195   1.72362509   1.72377113   1.76562494
   1.8203938    1.82932117   1.92197312   1.95749706   1.96290004
   1.97683473   1.98312625   1.99060878   2.00470185   2.00524658
   2.14945229   2.15276573   2.16757948   2.18577219   2.21003726
   2.21621391   2.26043884   2.27809067   2.28992401   2.36311061
   2.36381916   2.39947348   2.41434176   2.41595941   2.42490539
   2.43096808   2.44942525   2.45481583   2.45908276   2.4779793
   2.52987983   2.53849836   2.56552569   2.57386656   2.58425618
   2.59264159   2.61479268   2.63636044   2.63642654   2.65032631
   2.66236671   2.66681602   2.71433959   2.75419068   2.76971715
   2.77391069   2.81552395   2.81998218   2.83781207   2.86242512
   2.9113709    3.01521773   3.02115217   3.03179044   3.03200286
   3.03905078   3.06957815   3.07963545   3.1071836    3.1467696
   3.17113706   3.2156431    3.2309481    3.25641136   3.26084412
   3.27856825   3.29551142   3.30234274   3.3037887    3.30404852
   3.31435482   3.32372804   3.34225194   3.34366432   3.63158702
   3.64732254   3.67995288   3.70194387   3.71401913   3.72568372
   3.750441     3.76220508   3.7935841    3.83045436   3.86260167
   3.90892907   3.91684066   3.93857283   3.97551311   4.00795945
   4.01649897   4.01978579]
E1 = -1171.7615059523723  E_coul = 479.94912085952444
cycle= 6 E= -313.454550550931  delta_E= -3.7e-07  |g|= 0.000266  |ddm|= 0.00136
    CPU time for cycle= 6      2.26 sec, wall time      0.12 sec
diis-norm(errvec)=0.000547546
diis-c [-1.19460564e-07 -5.13833021e-04  1.95951698e-03  3.90371573e-03
 -6.59880857e-02  6.75121504e-02  9.93126536e-01]
  HOMO = -0.399718086162364  LUMO = 0.226561384728248
  mo_energy =
[-11.2050361  -11.20503526 -11.20296536 -11.20286281 -11.20238583
 -11.20191953 -11.19846921 -11.19846875  -1.09092921  -1.06062613
  -1.01162455  -0.94784584  -0.87573799  -0.81265238  -0.79320806
  -0.78803871  -0.66490309  -0.63823915  -0.59801935  -0.59297516
  -0.57423291  -0.55369148  -0.55201743  -0.52983879  -0.51025074
  -0.49122371  -0.48256634  -0.47559086  -0.47189875  -0.47169004
  -0.46795489  -0.45907     -0.39971809   0.22656138   0.23997538
   0.25870204   0.26710742   0.2761639    0.29699919   0.30106044
   0.30815501   0.32843157   0.33885399   0.34070341   0.34676619
   0.35411956   0.3554497    0.35923403   0.36549181   0.38376052
   0.38679339   0.38998494   0.39575551   0.41827668   0.42329608
   0.46817643   0.49637394   0.49766434   0.66734699   0.7055971
   0.71396233   0.74234849   0.75032122   0.75039345   0.76865911
   0.77040109   0.8142608    0.82308334   0.843092     0.84424673
   0.91322261   0.94030442   0.95425324   0.97272857   0.97873611
   1.00872099   1.0286728    1.06355269   1.08581027   1.0920365
   1.10621401   1.1085228    1.1321382    1.1598041    1.16658179
   1.16893544   1.17571072   1.19319789   1.2039157    1.21058327
   1.21394657   1.21478233   1.21684337   1.22100587   1.23501405
   1.23768745   1.25529106   1.26110074   1.26548914   1.27473398
   1.43387688   1.53102398   1.54261064   1.549741     1.61472651
   1.62742759   1.68826933   1.72362445   1.72379062   1.76562265
   1.82039899   1.82932171   1.92198159   1.95749152   1.96291081
   1.97683121   1.98310837   1.99061362   2.00471032   2.0052555
   2.14944252   2.1527651    2.16759542   2.18579492   2.21001959
   2.21621756   2.26044667   2.27810142   2.28993305   2.36311216
   2.36382076   2.39947157   2.41435253   2.41596715   2.4248988
   2.43098315   2.44941647   2.45482115   2.45908702   2.47796497
   2.52990588   2.53849783   2.56553411   2.57385943   2.58426959
   2.59263849   2.61479132   2.63635095   2.63642618   2.65032612
   2.66236156   2.66681645   2.71434558   2.75419013   2.76974425
   2.77391256   2.81552446   2.819974     2.83780362   2.86242253
   2.91137212   3.01521509   3.02117691   3.03180634   3.03200315
   3.03905164   3.06958263   3.07962772   3.10718337   3.14676968
   3.17113366   3.21564074   3.23094874   3.25642108   3.26084875
   3.27858876   3.29553204   3.30233546   3.3037909    3.30404654
   3.31435878   3.32373135   3.34225771   3.34366179   3.63159236
   3.64732569   3.67997909   3.70194928   3.7140323    3.7256792
   3.75043814   3.76219911   3.79358708   3.83046995   3.86262566
   3.90894007   3.91684212   3.93857928   3.97551554   4.00794367
   4.01653785   4.01978044]
E1 = -1171.760730062659  E_coul = 479.94834493930136
cycle= 7 E= -313.45455058144  delta_E= -3.05e-08  |g|= 5.09e-05  |ddm|= 0.000503
    CPU time for cycle= 7      2.30 sec, wall time      0.12 sec
diis-norm(errvec)=0.000111196
diis-c [-4.04476984e-09 -1.44734049e-04  3.41227937e-04  1.90082110e-03
 -1.64237865e-03 -5.02493126e-02 -1.12905343e-01  1.16269972e+00]
  HOMO = -0.399731681883301  LUMO = 0.22655815802512
  mo_energy =
[-11.20504566 -11.20504482 -11.20298825 -11.20288195 -11.20241313
 -11.2019506  -11.19846623 -11.19846577  -1.09094148  -1.06063273
  -1.0116328   -0.94785391  -0.87574647  -0.81265963  -0.79321917
  -0.78804594  -0.66490903  -0.63824099  -0.59802241  -0.59298045
  -0.57423649  -0.5537012   -0.55202061  -0.52984474  -0.51025395
  -0.49122922  -0.48256897  -0.47559793  -0.47190157  -0.47169687
  -0.4679591   -0.45907885  -0.39973168   0.22655816   0.23997288
   0.25869748   0.26710419   0.27615995   0.29699468   0.3010593
   0.3081529    0.32842889   0.33885196   0.34070205   0.34676583
   0.35411902   0.35544693   0.35922855   0.36548741   0.38375685
   0.38678896   0.38998164   0.39574928   0.41827172   0.42329336
   0.46816743   0.49636842   0.49765516   0.66734092   0.70559027
   0.71395613   0.74234626   0.75031556   0.75039173   0.76865411
   0.77039776   0.81425481   0.82307738   0.84308588   0.8442437
   0.91321368   0.94029809   0.95424987   0.97271957   0.97872863
   1.00871184   1.02866389   1.06354848   1.08580181   1.09202906
   1.10620777   1.10851656   1.13213651   1.15980196   1.16657906
   1.16893323   1.17570734   1.19319652   1.20390808   1.21057411
   1.21394236   1.21477713   1.21683828   1.2210004    1.23500839
   1.23768149   1.25528578   1.26109514   1.26548453   1.27472734
   1.43387266   1.53101753   1.54260262   1.54973306   1.61472183
   1.62742262   1.68826451   1.72361845   1.72378306   1.76561699
   1.82039247   1.82931676   1.92197631   1.95748637   1.96290356
   1.97682617   1.98310477   1.99060583   2.00470269   2.00524778
   2.14943605   2.15275706   2.16758488   2.18578405   2.21001419
   2.21621029   2.26043973   2.27809313   2.28992433   2.36311015
   2.36381883   2.39946396   2.41434895   2.41596532   2.42489337
   2.43097556   2.44941294   2.45481952   2.45908507   2.47796088
   2.52989654   2.53849162   2.56552804   2.57385608   2.58426016
   2.59263516   2.61478769   2.63634695   2.63642253   2.65032277
   2.66235712   2.66681221   2.71433868   2.75418629   2.76973379
   2.77390733   2.8155194    2.81997119   2.83780056   2.86241897
   2.91136687   3.01520976   3.02116696   3.03179754   3.03199775
   3.03904728   3.06957924   3.0796236    3.107178     3.14676395
   3.17112944   3.21563721   3.23094279   3.25641307   3.26084453
   3.27858058   3.29552386   3.30233313   3.30378523   3.3040424
   3.31435264   3.32372547   3.34225153   3.34365706   3.63158895
   3.64732319   3.67997063   3.70194319   3.71402485   3.72567478
   3.75043345   3.7621958    3.7935814    3.83046527   3.86261896
   3.90893544   3.91684032   3.93857439   3.97551138   4.00793965
   4.01652651   4.01977397]
E1 = -1171.760851605035  E_coul = 479.94846648042216
cycle= 8 E= -313.454550582695  delta_E= -1.26e-09  |g|= 1.2e-05  |ddm|= 0.000127
    CPU time for cycle= 8      2.29 sec, wall time      0.12 sec
diis-norm(errvec)=2.61587e-05
diis-c [-3.16535465e-10 -1.94041270e-05  2.37543392e-05  3.62536491e-04
  1.53463069e-03 -1.37060345e-02 -5.30801794e-02  2.44204301e-01
  8.20680395e-01]
  HOMO = -0.399730422031949  LUMO = 0.226558794129184
  mo_energy =
[-11.20504533 -11.20504449 -11.20298421 -11.20287841 -11.20240852
 -11.20194548 -11.19847606 -11.1984756   -1.09093982  -1.06063302
  -1.01163346  -0.94785465  -0.87574705  -0.81265999  -0.79321751
  -0.78804556  -0.6649075   -0.63824078  -0.5980226   -0.59298102
  -0.57423772  -0.55370099  -0.55202111  -0.52984497  -0.51025441
  -0.49122942  -0.48256907  -0.47559892  -0.47190103  -0.47169525
  -0.46795869  -0.45907695  -0.39973042   0.22655879   0.23997266
   0.25869718   0.26710494   0.27616044   0.29699441   0.30105908
   0.30815257   0.3284279    0.33885088   0.34070121   0.34676592
   0.35411935   0.35544746   0.35922872   0.36548793   0.38375771
   0.38678908   0.38998222   0.39574989   0.41827255   0.42329277
   0.46816807   0.49636895   0.49765587   0.66734148   0.70559024
   0.71395605   0.74234547   0.75031597   0.75039108   0.76865537
   0.77039792   0.81425418   0.82307668   0.84308638   0.84424359
   0.91321429   0.94029723   0.95425009   0.97272088   0.97872825
   1.00871291   1.02866464   1.06354922   1.08580375   1.09202937
   1.10620901   1.10851673   1.13213599   1.15980007   1.16657703
   1.16893185   1.17570657   1.19319511   1.20390865   1.2105751
   1.21394286   1.21477712   1.21683824   1.22100165   1.23500791
   1.23768172   1.25528543   1.26109474   1.26548502   1.27472775
   1.43387243   1.53101798   1.54260329   1.54973367   1.61472124
   1.62742226   1.68826435   1.72361903   1.7237829    1.76561771
   1.82039248   1.82931703   1.92197607   1.95748658   1.96290433
   1.97682609   1.98310465   1.99060603   2.00470382   2.00524875
   2.14943569   2.15275742   2.16758606   2.18578585   2.21001466
   2.21621011   2.26044084   2.27809364   2.28992526   2.36310824
   2.36381687   2.39946431   2.41434747   2.41596281   2.42489424
   2.43097667   2.44941289   2.4548167    2.4590825    2.47796146
   2.52989826   2.53849272   2.56552924   2.57385665   2.58426116
   2.59263565   2.61478815   2.63634639   2.63642284   2.65032279
   2.66235654   2.66681266   2.71433984   2.75418677   2.76973549
   2.77390784   2.81551947   2.8199697    2.83779927   2.86241952
   2.91136694   3.01521011   3.02116858   3.03179834   3.03199795
   3.03904697   3.06957776   3.07962388   3.10717722   3.14676426
   3.17112984   3.21563663   3.23094313   3.25641435   3.26084436
   3.27858132   3.29552524   3.30233156   3.30378613   3.30404167
   3.31435331   3.32372594   3.34225194   3.34365674   3.63158765
   3.64732129   3.67997137   3.70194346   3.71402595   3.72567487
   3.75043369   3.76219521   3.79358151   3.83046434   3.86261852
   3.90893451   3.91683785   3.93857365   3.97551077   4.00793991
   4.0165285    4.01977507]
E1 = -1171.7608504912782  E_coul = 479.9484653666175
cycle= 9 E= -313.454550582743  delta_E= -4.8e-11  |g|= 3.04e-06  |ddm|= 1.76e-05
    CPU time for cycle= 9      2.35 sec, wall time      0.12 sec
  HOMO = -0.399730583803825  LUMO = 0.226558795037867
  mo_energy =
[-11.20504499 -11.20504415 -11.20298496 -11.20287897 -11.20240949
 -11.20194664 -11.19847483 -11.19847437  -1.09094009  -1.06063293
  -1.0116334   -0.9478546   -0.87574699  -0.81265989  -0.7932177
  -0.78804546  -0.66490766  -0.63824066  -0.59802256  -0.59298096
  -0.57423756  -0.55370109  -0.55202107  -0.52984493  -0.51025436
  -0.49122933  -0.48256901  -0.47559878  -0.47190095  -0.47169544
  -0.46795849  -0.45907701  -0.39973058   0.2265588    0.23997275
   0.25869719   0.26710487   0.27616041   0.29699444   0.30105916
   0.30815266   0.32842798   0.33885098   0.34070128   0.34676599
   0.35411944   0.35544741   0.3592287    0.36548791   0.38375764
   0.3867891    0.38998216   0.39574988   0.41827252   0.42329291
   0.46816795   0.49636894   0.49765566   0.66734149   0.70559028
   0.71395607   0.74234554   0.75031603   0.75039121   0.76865521
   0.7703979    0.81425425   0.82307686   0.84308644   0.84424362
   0.91321416   0.94029742   0.9542501    0.97272082   0.97872833
   1.0087128    1.02866453   1.06354919   1.08580343   1.09202928
   1.10620885   1.10851674   1.13213613   1.15980029   1.16657721
   1.16893199   1.1757067    1.19319529   1.20390862   1.21057493
   1.21394284   1.21477718   1.21683834   1.22100151   1.23500798
   1.23768175   1.25528549   1.26109481   1.26548502   1.27472773
   1.4338725    1.53101797   1.54260325   1.54973359   1.61472142
   1.62742231   1.6882644    1.723619     1.72378292   1.76561766
   1.8203925    1.82931705   1.92197612   1.95748661   1.96290427
   1.97682617   1.98310482   1.99060601   2.00470371   2.00524866
   2.14943581   2.1527574    2.1675859    2.18578557   2.21001473
   2.21621016   2.26044071   2.27809357   2.28992514   2.36310843
   2.36381706   2.39946426   2.41434763   2.4159631    2.42489426
   2.43097656   2.44941302   2.45481702   2.4590828    2.47796155
   2.529898     2.53849267   2.56552915   2.57385673   2.58426098
   2.59263571   2.6147882    2.63634654   2.63642291   2.65032287
   2.66235666   2.66681269   2.71433976   2.75418682   2.76973524
   2.77390782   2.81551948   2.81996992   2.83779947   2.86241961
   2.91136697   3.01521017   3.02116832   3.03179823   3.03199796
   3.03904706   3.06957798   3.079624     3.10717734   3.14676426
   3.17112992   3.21563677   3.23094312   3.25641424   3.26084442
   3.27858117   3.29552505   3.3023318    3.30378613   3.30404179
   3.31435328   3.32372592   3.34225193   3.34365683   3.63158785
   3.64732156   3.67997125   3.70194352   3.71402586   3.725675
   3.75043379   3.7621954    3.79358159   3.83046445   3.86261852
   3.90893464   3.91683819   3.93857378   3.97551092   4.00794005
   4.01652818   4.01977506]
E1 = -1171.7608569514273  E_coul = 479.9484718267604
Extra cycle  E= -313.45455058275  delta_E= -6.14e-12  |g|= 1.26e-06  |ddm|= 5.6e-06
    CPU time for scf_cycle     40.50 sec, wall time      2.17 sec
    CPU time for SCF     40.51 sec, wall time      2.17 sec
converged SCF energy = -313.45455058275
