#INFO: **** input file is /home/liwei01/wsr/dftpart/mp_example/32ane/32ane_subsys/32ane_3.py ****
from dftpart import scfeda
import numpy as np
from QCKit import logger
                     
subeda = scfeda.EDA()
subeda.method = ["hf", "6-311gss"]
subeda.gjf = '32ane_subsys/32ane_3.gjf'
subeda.output =  subeda.gjf[:-4]
subatm_E, subE, conv = subeda.kernel()
atom_E = np.zeros(98)
resultlog = '32ane-result_3.log'
with open(resultlog,'a') as g:
    logger.slog(g, "## center atom energies in subsystem 3:")
    cen_intot = [13, 14, 15, 16, 36, 62, 63, 64, 65, 66, 67, 68]
    cen_insub = [5, 6, 7, 8, 16, 25, 26, 27, 28, 29, 30, 31]
    for i in range(len(cen_intot)):                        
        atom_E[cen_intot[i]-1] = subatm_E[cen_insub[i]-1]                        
        logger.slog(g, "%d %.10f", cen_intot[i], atom_E[cen_intot[i]-1])
#INFO: ******************** input file end ********************


System: uname_result(system='Linux', node='node13', release='3.10.0-693.el7.x86_64', version='#1 SMP Tue Aug 22 21:09:27 UTC 2017', machine='x86_64', processor='x86_64')  Threads 24
Python 3.6.4 |Anaconda, Inc.| (default, Jan 16 2018, 18:10:19) 
[GCC 7.2.0]
numpy 1.14.0  scipy 1.0.0
Date: Wed Sep 11 20:03:13 2019
PySCF version 1.5.4
PySCF path  /home/liwei01/liaokang/anaconda3/lib/python3.6/site-packages/pyscf

[CONFIG] conf_file None
[INPUT] verbose = 4
[INPUT] num. atoms = 38
[INPUT] num. electrons = 98
[INPUT] charge = 0
[INPUT] spin (= nelec alpha-beta = 2S) = 0
[INPUT] symmetry False subgroup None
[INPUT] Mole.unit = angstrom
[INPUT]  1 C      9.586692000000   0.397040000000   0.000135000000 AA   18.116222320559   0.750296860497   0.000255113027 Bohr
[INPUT]  2 C      8.306546000000  -0.440654000000  -0.000153000000 AA   15.697096981101  -0.832715375694  -0.000289128097 Bohr
[INPUT]  3 C      7.030512000000   0.403292000000   0.000129000000 AA   13.285742195468   0.762111428228   0.000243774670 Bohr
[INPUT]  4 C      5.750363000000  -0.434398000000  -0.000156000000 AA   10.866611186832  -0.820893249059  -0.000294797275 Bohr
[INPUT]  5 C      4.474329000000   0.409546000000   0.000126000000 AA    8.455256401199   0.773929775411   0.000238105492 Bohr
[INPUT]  6 C      3.194180000000  -0.428143000000  -0.000156000000 AA    6.036125392563  -0.809073012150  -0.000294797275 Bohr
[INPUT]  7 C      1.918145000000   0.415800000000   0.000124000000 AA    3.624768717204   0.785748122594   0.000234326039 Bohr
[INPUT]  8 C      0.638000000000  -0.421895000000  -0.000149000000 AA    1.205645267473  -0.797266003323  -0.000281569193 Bohr
[INPUT]  9 C     -0.638038000000   0.422037000000   0.000110000000 AA   -1.205717077065   0.797534344433   0.000207869874 Bohr
[INPUT] 10 C     -1.918178000000  -0.415658000000  -0.000065000000 AA   -3.624831078166  -0.785479781484  -0.000122832198 Bohr
[INPUT] 11 C     -3.194218000000   0.428261000000  -0.000059000000 AA   -6.036197202156   0.809295999832  -0.000111493841 Bohr
[INPUT] 12 C     -4.474353000000  -0.409444000000  -0.000063000000 AA   -8.455301754626  -0.773737023346  -0.000119052746 Bohr
[INPUT] 13 H     10.479153580000  -0.193224590000  -0.000061530000 AA   19.802730283455  -0.365141555631  -0.000116274848 Bohr
[INPUT] 14 H     -5.366826910000   0.180801980000  -0.000049710000 AA  -10.141833017846   0.341666224979  -0.000093938286 Bohr
[INPUT] 15 H     -4.475936000000  -1.063266000000   0.870548000000 AA   -8.458293191081  -2.009281537562   1.645097298288 Bohr
[INPUT] 16 H      0.636403000000  -1.075973000000   0.870268000000 AA    1.202627374852  -2.033294287427   1.644568174973 Bohr
[INPUT] 17 H      9.588298000000   1.051132000000  -0.870269000000 AA   18.119257220715   1.986351600766  -1.644570064699 Bohr
[INPUT] 18 H      9.588292000000   1.050544000000   0.870980000000 AA   18.119245882358   1.985240441805   1.645913659974 Bohr
[INPUT] 19 H      8.304951000000  -1.094160000000  -0.870998000000 AA   15.694082867933  -2.067662736454  -1.645947675044 Bohr
[INPUT] 20 H      8.304945000000  -1.094748000000   0.870250000000 AA   15.694071529576  -2.068773895415   1.644534159903 Bohr
[INPUT] 21 H      7.032112000000   1.056799000000   0.870973000000 AA   13.288765757267   1.997060678714   1.645900431891 Bohr
[INPUT] 22 H      7.032116000000   1.057386000000  -0.870274000000 AA   13.288773316172   1.998169947949  -1.644579513330 Bohr
[INPUT] 23 H      5.748766000000  -1.087906000000  -0.871001000000 AA   10.863593294211  -2.055844389271  -1.645953344222 Bohr
[INPUT] 24 H      5.748762000000  -1.088493000000   0.870246000000 AA   10.863585735307  -2.056953658506   1.644526600998 Bohr
[INPUT] 25 H      4.475930000000   1.063640000000  -0.870278000000 AA    8.458281852724   2.009988295132  -1.644587072234 Bohr
[INPUT] 26 H      4.475929000000   1.063056000000   0.870968000000 AA    8.458279962998   2.008884695076   1.645890983260 Bohr
[INPUT] 27 H      3.192581000000  -1.081654000000  -0.870997000000 AA    6.033103720490  -2.044029821540  -1.645945785318 Bohr
[INPUT] 28 H      3.192579000000  -1.082235000000   0.870250000000 AA    6.033099941038  -2.045127752419   1.644534159903 Bohr
[INPUT] 29 H      1.919744000000   1.069316000000   0.870962000000 AA    3.627790389277   2.020714380615   1.645879644903 Bohr
[INPUT] 30 H      1.919742000000   1.069887000000  -0.870286000000 AA    3.627786609825   2.021793414233  -1.644602190043 Bohr
[INPUT] 31 H      0.636410000000  -1.075422000000  -0.870979000000 AA    1.202640602934  -2.032253048332  -1.645911770248 Bohr
[INPUT] 32 H     -0.636465000000   1.076076000000  -0.870338000000 AA   -1.202744537871   2.033488929217  -1.644700455802 Bohr
[INPUT] 33 H     -0.636417000000   1.075615000000   0.870904000000 AA   -1.202653831017   2.032617765474   1.645770040788 Bohr
[INPUT] 34 H     -1.919713000000  -1.069374000000  -0.870755000000 AA   -3.627731807767  -2.020823984731  -1.645488471596 Bohr
[INPUT] 35 H     -1.919821000000  -1.069558000000   0.870487000000 AA   -3.627935898189  -2.021171694338   1.644982024994 Bohr
[INPUT] 36 H     -3.192634000000   1.082072000000   0.870560000000 AA   -6.033203875975   2.044819727060   1.645119975001 Bohr
[INPUT] 37 H     -3.192634000000   1.082069000000  -0.870681000000 AA   -6.033203875975   2.044814057882  -1.645348631862 Bohr
[INPUT] 38 H     -4.475948000000  -1.063238000000  -0.870696000000 AA   -8.458315867795  -2.009228625230  -1.645376977754 Bohr

nuclear repulsion = 672.479111832782
number of shells = 200
number of NR pGTOs = 580
number of NR cGTOs = 372
basis = 6-311gss
ecp = {}
CPU time:         2.92


******** <class 'pyscf.scf.hf.RHF'> flags ********
method = RHF
initial guess = minao
damping factor = 0
level shift factor = 0
DIIS = <class 'pyscf.scf.diis.CDIIS'>
DIIS start cycle = 1
DIIS space = 8
SCF tol = 1e-09
SCF gradient tol = None
max. SCF cycles = 50
direct_scf = True
direct_scf_tol = 1e-13
chkfile to save SCF result = /home/liwei01/wsr/dftpart/mp_example/32ane/tmp4x77vpy0
max_memory 4000 MB (current use 62 MB)
Set gradient conv threshold to 3.16228e-05
init E= -472.87255735591
  HOMO = -0.344076220021351  LUMO = 0.093623548638579
cycle= 1 E= -469.571116159018  delta_E=  3.3  |g|= 0.584  |ddm|= 4.37
  HOMO = -0.382741863156712  LUMO = 0.159231241945182
cycle= 2 E= -469.680641689594  delta_E= -0.11  |g|= 0.153  |ddm|= 0.601
  HOMO = -0.428117639106378  LUMO = 0.154640210381515
cycle= 3 E= -469.689233481574  delta_E= -0.00859  |g|= 0.0571  |ddm|= 0.208
  HOMO = -0.415943444292778  LUMO = 0.158062841733179
cycle= 4 E= -469.690199096978  delta_E= -0.000966  |g|= 0.00624  |ddm|= 0.0532
  HOMO = -0.417021959097896  LUMO = 0.158002030053393
cycle= 5 E= -469.690218209848  delta_E= -1.91e-05  |g|= 0.0017  |ddm|= 0.0117
  HOMO = -0.417257794139977  LUMO = 0.157978749488386
cycle= 6 E= -469.690219144309  delta_E= -9.34e-07  |g|= 0.00042  |ddm|= 0.00193
  HOMO = -0.417253775588019  LUMO = 0.157980251561606
cycle= 7 E= -469.690219227697  delta_E= -8.34e-08  |g|= 7.24e-05  |ddm|= 0.000794
  HOMO = -0.417263988333225  LUMO = 0.157978463128481
cycle= 8 E= -469.690219230434  delta_E= -2.74e-09  |g|= 1.52e-05  |ddm|= 0.000179
  HOMO = -0.417263613257906  LUMO = 0.157978474139506
cycle= 9 E= -469.690219230506  delta_E= -7.19e-11  |g|= 4.24e-06  |ddm|= 2.02e-05
  HOMO = -0.417263934190671  LUMO = 0.157978453352261
Extra cycle  E= -469.690219230516  delta_E= -1.02e-11  |g|= 1.73e-06  |ddm|= 7.04e-06
converged SCF energy = -469.690219230516
