 Entering Gaussian System, Link 0=g16
 Input=32ane_5.gjf
 Output=32ane_5.log
 Initial command:
 /home/soft/g16/l1.exe "/tmp/liwei01/gaussian/liaokang/Gau-199843.inp" -scrdir="/tmp/liwei01/gaussian/liaokang/"
 Entering Link 1 = /home/soft/g16/l1.exe PID=    199845.
  
 Copyright (c) 1988,1990,1992,1993,1995,1998,2003,2009,2016,
            Gaussian, Inc.  All Rights Reserved.
  
 This is part of the Gaussian(R) 16 program.  It is based on
 the Gaussian(R) 09 system (copyright 2009, Gaussian, Inc.),
 the Gaussian(R) 03 system (copyright 2003, Gaussian, Inc.),
 the Gaussian(R) 98 system (copyright 1998, Gaussian, Inc.),
 the Gaussian(R) 94 system (copyright 1995, Gaussian, Inc.),
 the Gaussian 92(TM) system (copyright 1992, Gaussian, Inc.),
 the Gaussian 90(TM) system (copyright 1990, Gaussian, Inc.),
 the Gaussian 88(TM) system (copyright 1988, Gaussian, Inc.),
 the Gaussian 86(TM) system (copyright 1986, Carnegie Mellon
 University), and the Gaussian 82(TM) system (copyright 1983,
 Carnegie Mellon University). Gaussian is a federally registered
 trademark of Gaussian, Inc.
  
 This software contains proprietary and confidential information,
 including trade secrets, belonging to Gaussian, Inc.
  
 This software is provided under written license and may be
 used, copied, transmitted, or stored only in accord with that
 written license.
  
 The following legend is applicable only to US Government
 contracts under FAR:
  
                    RESTRICTED RIGHTS LEGEND
  
 Use, reproduction and disclosure by the US Government is
 subject to restrictions as set forth in subparagraphs (a)
 and (c) of the Commercial Computer Software - Restricted
 Rights clause in FAR 52.227-19.
  
 Gaussian, Inc.
 340 Quinnipiac St., Bldg. 40, Wallingford CT 06492
  
  
 ---------------------------------------------------------------
 Warning -- This program may not be used in any manner that
 competes with the business of Gaussian, Inc. or will provide
 assistance to any competitor of Gaussian, Inc.  The licensee
 of this program is prohibited from giving any competitor of
 Gaussian, Inc. access to this program.  By using this program,
 the user acknowledges that Gaussian, Inc. is engaged in the
 business of creating and licensing software in the field of
 computational chemistry and represents and warrants to the
 licensee that it is not a competitor of Gaussian, Inc. and that
 it will not use this program in any manner prohibited above.
 ---------------------------------------------------------------
  

 Cite this work as:
 Gaussian 16, Revision A.03,
 M. J. Frisch, G. W. Trucks, H. B. Schlegel, G. E. Scuseria, 
 M. A. Robb, J. R. Cheeseman, G. Scalmani, V. Barone, 
 G. A. Petersson, H. Nakatsuji, X. Li, M. Caricato, A. V. Marenich, 
 J. Bloino, B. G. Janesko, R. Gomperts, B. Mennucci, H. P. Hratchian, 
 J. V. Ortiz, A. F. Izmaylov, J. L. Sonnenberg, D. Williams-Young, 
 F. Ding, F. Lipparini, F. Egidi, J. Goings, B. Peng, A. Petrone, 
 T. Henderson, D. Ranasinghe, V. G. Zakrzewski, J. Gao, N. Rega, 
 G. Zheng, W. Liang, M. Hada, M. Ehara, K. Toyota, R. Fukuda, 
 J. Hasegawa, M. Ishida, T. Nakajima, Y. Honda, O. Kitao, H. Nakai, 
 T. Vreven, K. Throssell, J. A. Montgomery, Jr., J. E. Peralta, 
 F. Ogliaro, M. J. Bearpark, J. J. Heyd, E. N. Brothers, K. N. Kudin, 
 V. N. Staroverov, T. A. Keith, R. Kobayashi, J. Normand, 
 K. Raghavachari, A. P. Rendell, J. C. Burant, S. S. Iyengar, 
 J. Tomasi, M. Cossi, J. M. Millam, M. Klene, C. Adamo, R. Cammi, 
 J. W. Ochterski, R. L. Martin, K. Morokuma, O. Farkas, 
 J. B. Foresman, and D. J. Fox, Gaussian, Inc., Wallingford CT, 2016.
 
 ******************************************
 Gaussian 16:  ES64L-G16RevA.03 25-Dec-2016
                29-Aug-2019 
 ******************************************
 %chk=32ane_5.chk
 %nproc=6
 Will use up to    6 processors via shared memory.
 ---------------------------
 #p hf/6-31g(d) 5d 7f nosymm
 ---------------------------
 1/38=1,172=1/1;
 2/12=2,15=1,17=6,18=5,40=1/2;
 3/5=1,6=6,7=1,8=11,11=9,25=1,30=1/1,2,3;
 4//1;
 5/5=2,38=5/2;
 6/7=2,8=2,9=2,10=2,28=1/1;
 99/5=1,9=1/99;
 Leave Link    1 at Thu Aug 29 20:24:39 2019, MaxMem=           0 cpu:               0.4 elap:               0.1
 (Enter /home/soft/g16/l101.exe)
 --------------
 Atom number=38
 --------------
 Symbolic Z-matrix:
 Charge =  0 Multiplicity = 1
 c                    -0.63804   0.42204   0.00011 
 c                    -1.91818  -0.41566  -0.00007 
 c                    -3.19422   0.42826  -0.00006 
 c                    -4.47435  -0.40944  -0.00006 
 c                    -5.75039   0.43448  -0.00004 
 c                    -7.03052  -0.40323   0.00003 
 c                    -8.30656   0.44069  -0.00019 
 c                    -9.58669  -0.39702   0.00005 
 c                    -10.86272   0.44691  -0.00015 
 c                    -12.14284  -0.39081   0.00017 
 c                    -13.41887   0.45312  -0.00028 
 c                    -14.69897  -0.38462   0.00021 
 h                     0.25443  -0.16821  -0.00007 
 h                    -15.59143   0.20565  -0.00009 
 h                    -14.70057  -1.03793   0.8712 
 h                    -4.47594  -1.06327   0.87055 
 h                    -0.63647   1.07608  -0.87034 
 h                    -0.63642   1.07561   0.8709 
 h                    -1.91971  -1.06937  -0.87076 
 h                    -1.91982  -1.06956   0.87049 
 h                    -3.19263   1.08207   0.87056 
 h                    -3.19263   1.08207  -0.87068 
 h                    -4.47595  -1.06324  -0.8707 
 h                    -5.74883   1.08826  -0.87068 
 h                    -5.74878   1.08831   0.87056 
 h                    -7.03207  -1.05719  -0.87048 
 h                    -7.03216  -1.05688   0.87077 
 h                    -8.30497   1.09475   0.87025 
 h                    -8.30499   1.09425  -0.871 
 h                    -9.58829  -1.05106  -0.8704 
 h                    -9.58827  -1.0506    0.87085 
 h                    -10.86117   1.10044  -0.87098 
 h                    -10.8611   1.10098   0.87027 
 h                    -12.1444  -1.04502  -0.87016 
 h                    -12.14447  -1.04422   0.87109 
 h                    -13.41728   1.10742   0.86998 
 h                    -13.41731   1.10643  -0.87128 
 h                    -14.70062  -1.03888  -0.87006 
 
 ITRead=  0  0  0  0  0  0  0  0  0  0  0  0  0  0  0  0  0  0  0  0
 ITRead=  0  0  0  0  0  0  0  0  0  0  0  0  0  0  0  0  0  0
 MicOpt= -1 -1 -1 -1 -1 -1 -1 -1 -1 -1 -1 -1 -1 -1 -1 -1 -1 -1 -1 -1
 MicOpt= -1 -1 -1 -1 -1 -1 -1 -1 -1 -1 -1 -1 -1 -1 -1 -1 -1 -1
 NAtoms=     38 NQM=       38 NQMF=       0 NMMI=      0 NMMIF=      0
                NMic=       0 NMicF=      0.
                    Isotopes and Nuclear Properties:
 (Nuclear quadrupole moments (NQMom) in fm**2, nuclear magnetic moments (NMagM)
  in nuclear magnetons)

  Atom         1           2           3           4           5           6           7           8           9          10
 IAtWgt=          12          12          12          12          12          12          12          12          12          12
 AtmWgt=  12.0000000  12.0000000  12.0000000  12.0000000  12.0000000  12.0000000  12.0000000  12.0000000  12.0000000  12.0000000
 NucSpn=           0           0           0           0           0           0           0           0           0           0
 AtZEff=  -0.0000000  -0.0000000  -0.0000000  -0.0000000  -0.0000000  -0.0000000  -0.0000000  -0.0000000  -0.0000000  -0.0000000
 NQMom=    0.0000000   0.0000000   0.0000000   0.0000000   0.0000000   0.0000000   0.0000000   0.0000000   0.0000000   0.0000000
 NMagM=    0.0000000   0.0000000   0.0000000   0.0000000   0.0000000   0.0000000   0.0000000   0.0000000   0.0000000   0.0000000
 AtZNuc=   6.0000000   6.0000000   6.0000000   6.0000000   6.0000000   6.0000000   6.0000000   6.0000000   6.0000000   6.0000000

  Atom        11          12          13          14          15          16          17          18          19          20
 IAtWgt=          12          12           1           1           1           1           1           1           1           1
 AtmWgt=  12.0000000  12.0000000   1.0078250   1.0078250   1.0078250   1.0078250   1.0078250   1.0078250   1.0078250   1.0078250
 NucSpn=           0           0           1           1           1           1           1           1           1           1
 AtZEff=  -0.0000000  -0.0000000  -0.0000000  -0.0000000  -0.0000000  -0.0000000  -0.0000000  -0.0000000  -0.0000000  -0.0000000
 NQMom=    0.0000000   0.0000000   0.0000000   0.0000000   0.0000000   0.0000000   0.0000000   0.0000000   0.0000000   0.0000000
 NMagM=    0.0000000   0.0000000   2.7928460   2.7928460   2.7928460   2.7928460   2.7928460   2.7928460   2.7928460   2.7928460
 AtZNuc=   6.0000000   6.0000000   1.0000000   1.0000000   1.0000000   1.0000000   1.0000000   1.0000000   1.0000000   1.0000000

  Atom        21          22          23          24          25          26          27          28          29          30
 IAtWgt=           1           1           1           1           1           1           1           1           1           1
 AtmWgt=   1.0078250   1.0078250   1.0078250   1.0078250   1.0078250   1.0078250   1.0078250   1.0078250   1.0078250   1.0078250
 NucSpn=           1           1           1           1           1           1           1           1           1           1
 AtZEff=  -0.0000000  -0.0000000  -0.0000000  -0.0000000  -0.0000000  -0.0000000  -0.0000000  -0.0000000  -0.0000000  -0.0000000
 NQMom=    0.0000000   0.0000000   0.0000000   0.0000000   0.0000000   0.0000000   0.0000000   0.0000000   0.0000000   0.0000000
 NMagM=    2.7928460   2.7928460   2.7928460   2.7928460   2.7928460   2.7928460   2.7928460   2.7928460   2.7928460   2.7928460
 AtZNuc=   1.0000000   1.0000000   1.0000000   1.0000000   1.0000000   1.0000000   1.0000000   1.0000000   1.0000000   1.0000000

  Atom        31          32          33          34          35          36          37          38
 IAtWgt=           1           1           1           1           1           1           1           1
 AtmWgt=   1.0078250   1.0078250   1.0078250   1.0078250   1.0078250   1.0078250   1.0078250   1.0078250
 NucSpn=           1           1           1           1           1           1           1           1
 AtZEff=  -0.0000000  -0.0000000  -0.0000000  -0.0000000  -0.0000000  -0.0000000  -0.0000000  -0.0000000
 NQMom=    0.0000000   0.0000000   0.0000000   0.0000000   0.0000000   0.0000000   0.0000000   0.0000000
 NMagM=    2.7928460   2.7928460   2.7928460   2.7928460   2.7928460   2.7928460   2.7928460   2.7928460
 AtZNuc=   1.0000000   1.0000000   1.0000000   1.0000000   1.0000000   1.0000000   1.0000000   1.0000000
 Leave Link  101 at Thu Aug 29 20:24:39 2019, MaxMem=   280000000 cpu:               0.6 elap:               0.1
 (Enter /home/soft/g16/l202.exe)
                          Input orientation:                          
 ---------------------------------------------------------------------
 Center     Atomic      Atomic             Coordinates (Angstroms)
 Number     Number       Type             X           Y           Z
 ---------------------------------------------------------------------
      1          6           0       -0.638038    0.422037    0.000110
      2          6           0       -1.918178   -0.415658   -0.000065
      3          6           0       -3.194218    0.428261   -0.000059
      4          6           0       -4.474353   -0.409444   -0.000063
      5          6           0       -5.750393    0.434477   -0.000044
      6          6           0       -7.030525   -0.403230    0.000030
      7          6           0       -8.306562    0.440692   -0.000190
      8          6           0       -9.586689   -0.397022    0.000053
      9          6           0      -10.862723    0.446905   -0.000154
     10          6           0      -12.142844   -0.390814    0.000168
     11          6           0      -13.418867    0.453124   -0.000280
     12          6           0      -14.698968   -0.384621    0.000211
     13          1           0        0.254432   -0.168215   -0.000071
     14          1           0      -15.591426    0.205649   -0.000093
     15          1           0      -14.700574   -1.037926    0.871197
     16          1           0       -4.475936   -1.063266    0.870548
     17          1           0       -0.636465    1.076076   -0.870338
     18          1           0       -0.636417    1.075615    0.870904
     19          1           0       -1.919713   -1.069374   -0.870755
     20          1           0       -1.919821   -1.069558    0.870487
     21          1           0       -3.192634    1.082072    0.870560
     22          1           0       -3.192634    1.082069   -0.870681
     23          1           0       -4.475948   -1.063238   -0.870696
     24          1           0       -5.748833    1.088263   -0.870682
     25          1           0       -5.748776    1.088306    0.870562
     26          1           0       -7.032066   -1.057190   -0.870476
     27          1           0       -7.032158   -1.056883    0.870768
     28          1           0       -8.304973    1.094747    0.870246
     29          1           0       -8.304988    1.094252   -0.870997
     30          1           0       -9.588293   -1.051059   -0.870396
     31          1           0       -9.588266   -1.050596    0.870850
     32          1           0      -10.861174    1.100442   -0.870978
     33          1           0      -10.861102    1.100977    0.870268
     34          1           0      -12.144398   -1.045015   -0.870156
     35          1           0      -12.144475   -1.044215    0.871092
     36          1           0      -13.417282    1.107415    0.869976
     37          1           0      -13.417312    1.106429   -0.871276
     38          1           0      -14.700616   -1.038881   -0.870057
 ---------------------------------------------------------------------
                    Distance matrix (angstroms):
                    1          2          3          4          5
     1  C    0.000000
     2  C    1.529866   0.000000
     3  C    2.556188   1.529862   0.000000
     4  C    3.925388   2.556183   1.529868   0.000000
     5  C    5.112370   3.925379   2.556183   1.529863   0.000000
     6  C    6.445538   5.112362   3.925383   2.556180   1.529866
     7  C    7.668547   6.445524   5.112359   3.925373   2.556177
     8  C    8.986057   7.668534   6.445524   5.112351   3.925374
     9  C   10.224715   8.986039   7.668528   6.445510   5.112345
    10  C   11.533486  10.224696   8.986033   7.668514   6.445505
    11  C   12.780867  11.533457  10.224679   8.986009   7.668497
    12  C   14.084049  12.780828  11.533432  10.224645   8.985984
    13  H    1.070000   2.186655   3.499853   4.734934   6.034995
    14  H   14.954954  13.687357  12.399207  11.134076   9.843693
    15  H   14.164929  12.827157  11.632069  10.282494   9.112232
    16  H    4.206334   2.778397   2.150677   1.088783   2.150676
    17  H    1.088783   2.150682   2.778336   4.206368   5.226980
    18  H    1.088783   2.150673   2.778487   4.206392   5.227079
    19  H    2.150675   1.088783   2.150671   2.778452   4.206402
    20  H    2.150670   1.088783   2.150674   2.778352   4.206332
    21  H    2.778361   2.150679   1.088783   2.150676   2.778392
    22  H    2.778467   2.150673   1.088784   2.150672   2.778402
    23  H    4.206412   2.778407   2.150677   1.088784   2.150673
    24  H    5.227080   4.206384   2.778425   2.150675   1.088783
    25  H    5.226973   4.206350   2.778382   2.150674   1.088784
    26  H    6.620395   5.226952   4.206337   2.778325   2.150676
    27  H    6.620424   5.227075   4.206397   2.778469   2.150672
    28  H    7.745422   6.620417   5.226993   4.206385   2.778352
    29  H    7.745503   6.620400   5.227050   4.206351   2.778456
    30  H    9.112346   7.745442   6.620428   5.227000   4.206401
    31  H    9.112267   7.745443   6.620374   5.227014   4.206325
    32  H   10.282584   9.112312   7.745485   6.620403   5.227056
    33  H   10.282469   9.112275   7.745394   6.620378   5.226951
    34  H   11.632108  10.282447   9.112263   7.745360   6.620369
    35  H   11.632136  10.282565   9.112310   7.745490   6.620400
    36  H   12.827139  11.632116  10.282473   9.112289   7.745384
    37  H   12.827219  11.632104  10.282538   9.112266   7.745464
    38  H   14.165012  12.827159  11.632136  10.282487   9.112310
                    6          7          8          9         10
     6  C    0.000000
     7  C    1.529861   0.000000
     8  C    2.556172   1.529866   0.000000
     9  C    3.925363   2.556169   1.529861   0.000000
    10  C    5.112334   3.925361   2.556163   1.529864   0.000000
    11  C    6.445483   5.112320   3.925345   2.556152   1.529858
    12  C    7.668466   6.445463   5.112294   3.925329   2.556132
    13  H    7.288747   8.582621   9.843780  11.134159  12.399274
    14  H    8.582527   7.288655   6.034905   4.734854   3.499784
    15  H    7.745413   6.620349   5.226994   4.206314   2.778386
    16  H    2.778376   4.206396   5.226991   6.620407   7.745401
    17  H    6.620415   7.745402   9.112305  10.282482  11.632124
    18  H    6.620425   7.745518   9.112322  10.282575  11.632130
    19  H    5.227085   6.620425   7.745507   9.112325  10.282575
    20  H    5.226948   6.620377   7.745374   9.112254  10.282429
    21  H    4.206347   5.227029   6.620381   7.745440   9.112257
    22  H    4.206383   5.226986   6.620410   7.745419   9.112301
    23  H    2.778424   4.206327   5.227018   6.620368   7.745441
    24  H    2.150680   2.778324   4.206351   5.226952   6.620380
    25  H    2.150671   2.778468   4.206372   5.227045   6.620384
    26  H    1.088782   2.150672   2.778442   4.206387   5.227057
    27  H    1.088784   2.150675   2.778343   4.206318   5.226921
    28  H    2.150681   1.088783   2.150676   2.778377   4.206326
    29  H    2.150673   1.088783   2.150671   2.778387   4.206363
    30  H    2.778399   2.150678   1.088783   2.150672   2.778405
    31  H    2.778390   2.150678   1.088783   2.150674   2.778357
    32  H    4.206371   2.778414   2.150676   1.088783   2.150678
    33  H    4.206337   2.778371   2.150675   1.088782   2.150669
    34  H    5.226931   4.206323   2.778315   2.150679   1.088782
    35  H    5.227054   4.206383   2.778459   2.150674   1.088781
    36  H    6.620387   5.226965   4.206369   2.778340   2.150686
    37  H    6.620370   5.227022   4.206335   2.778444   2.150679
    38  H    7.745412   6.620403   5.226980   4.206390   2.778395
                   11         12         13         14         15
    11  C    0.000000
    12  C    1.529861   0.000000
    13  H   13.687409  14.954966   0.000000
    14  H    2.186609   1.070000  15.850268   0.000000
    15  H    2.150692   1.088773  15.005589   1.760466   0.000000
    16  H    9.112288  10.282433   4.892389  11.221510  10.224669
    17  H   12.827115  14.164938   1.760489  15.005527  14.328332
    18  H   12.827217  14.164947   1.760489  15.005592  14.222080
    19  H   11.632122  12.827191   2.509399  13.758615  12.899062
    20  H   11.632061  12.827046   2.509515  13.758519  12.780792
    21  H   10.282499  11.632043   3.768750  12.460185  11.701584
    22  H   10.282461  11.632083   3.768744  12.460180  11.830520
    23  H    9.112232  10.282468   4.892397  11.221492  10.371972
    24  H    7.745348   9.112231   6.194828   9.920362   9.364213
    25  H    7.745458   9.112242   6.194784   9.920428   9.200845
    26  H    6.620386   7.745439   7.391951   8.695687   7.863829
    27  H    6.620340   7.745307   7.392055   8.695600   7.668439
    28  H    5.226988   6.620322   8.695743   7.391914   6.741810
    29  H    5.226945   6.620351   8.695746   7.391906   6.963113
    30  H    4.206301   5.226958   9.920490   6.194703   5.400809
    31  H    4.206370   5.226931   9.920474   6.194726   5.112324
    32  H    2.778296   4.206310  11.221616   4.892278   4.727450
    33  H    2.778440   4.206330  11.221561   4.892352   4.395049
    34  H    2.150669   2.778396  12.460209   3.768710   3.092959
    35  H    2.150672   2.778297  12.460305   3.768633   2.556107
    36  H    1.088781   2.150670  13.758633   2.509404   2.499866
    37  H    1.088781   2.150665  13.758644   2.509410   3.046511
    38  H    2.150691   1.088772  15.005612   1.760464   1.741254
                   16         17         18         19         20
    16  H    0.000000
    17  H    4.727474   0.000000
    18  H    4.395079   1.741242   0.000000
    19  H    3.092968   2.499936   3.046507   0.000000
    20  H    2.556123   3.046509   2.499779   1.741242   0.000000
    21  H    2.499868   3.092695   2.556225   3.046510   2.499913
    22  H    3.046507   2.556176   3.093122   2.499807   3.046509
    23  H    1.741244   4.395258   4.727564   2.556242   3.092821
    24  H    3.046510   5.112383   5.400933   4.395174   4.727493
    25  H    2.499877   5.400612   5.112375   4.727525   4.395142
    26  H    3.092734   6.741998   6.963159   5.112368   5.400570
    27  H    2.556230   6.963178   6.741888   5.400940   5.112353
    28  H    4.395287   7.863587   7.668580   6.963192   6.741987
    29  H    4.727526   7.668545   7.863940   6.741885   6.963131
    30  H    5.400669   9.201083   9.364345   7.668602   7.863617
    31  H    5.112346   9.364252   9.200890   7.863857   7.668468
    32  H    6.963175  10.224738  10.372098   9.200969   9.364262
    33  H    6.741980  10.371766  10.224716   9.364295   9.200963
    34  H    7.863567  11.701775  11.830553  10.224714  10.371712
    35  H    7.668563  11.830575  11.701670  10.372098  10.224685
    36  H    9.201061  12.898797  12.780905  11.830581  11.701744
    37  H    9.364280  12.780883  12.899125  11.701662  11.830510
    38  H   10.371807  14.222285  14.328424  12.780939  12.898804
                   21         22         23         24         25
    21  H    0.000000
    22  H    1.741241   0.000000
    23  H    3.046510   2.499847   0.000000
    24  H    3.092914   2.556207   2.499839   0.000000
    25  H    2.556150   3.092867   3.046508   1.741244   0.000000
    26  H    4.727461   4.395187   2.556125   2.499931   3.046506
    27  H    4.395119   4.727547   3.093048   3.046510   2.499781
    28  H    5.112355   5.400648   4.727495   3.092689   2.556205
    29  H    5.400864   5.112369   4.395032   2.556162   3.093102
    30  H    6.963162   6.742009   5.112360   4.395242   4.727548
    31  H    6.741838   6.963139   5.400827   4.727462   4.395064
    32  H    7.863828   7.668562   6.741856   5.112356   5.400900
    33  H    7.668491   7.863629   6.963115   5.400589   5.112342
    34  H    9.364223   9.201009   7.668472   6.741968   6.963127
    35  H    9.200900   9.364311   7.863873   6.963151   6.741855
    36  H   10.224679  10.371787   9.364247   7.863547   7.668530
    37  H   10.372012  10.224707   9.200839   7.668501   7.863890
    38  H   11.830547  11.701798  10.224697   9.201041   9.364300
                   26         27         28         29         30
    26  H    0.000000
    27  H    1.741244   0.000000
    28  H    3.046512   2.499914   0.000000
    29  H    2.499807   3.046510   1.741243   0.000000
    30  H    2.556234   3.092816   3.046511   2.499846   0.000000
    31  H    3.092963   2.556116   2.499868   3.046507   1.741246
    32  H    4.395161   4.727483   3.092904   2.556193   2.499837
    33  H    4.727514   4.395131   2.556137   3.092858   3.046508
    34  H    5.112347   5.400551   4.727448   4.395172   2.556112
    35  H    5.400922   5.112333   4.395103   4.727534   3.093040
    36  H    6.963165   6.741958   5.112325   5.400621   4.727479
    37  H    6.741855   6.963105   5.400837   5.112339   4.395013
    38  H    7.668572   7.863590   6.963137   6.741982   5.112338
                   31         32         33         34         35
    31  H    0.000000
    32  H    3.046510   0.000000
    33  H    2.499876   1.741246   0.000000
    34  H    3.092724   2.499930   3.046507   0.000000
    35  H    2.556217   3.046510   2.499779   1.741248   0.000000
    36  H    4.395267   3.092678   2.556188   3.046514   2.499910
    37  H    4.727510   2.556145   3.093091   2.499805   3.046511
    38  H    5.400650   4.395227   4.727535   2.556225   3.092812
                   36         37         38
    36  H    0.000000
    37  H    1.741252   0.000000
    38  H    3.046514   2.499845   0.000000
 Symmetry turned off by external request.
 Stoichiometry    C12H26
 Framework group  C1[X(C12H26)]
 Deg. of freedom   108
 Full point group                 C1      NOp   1
 Rotational constants (GHZ):           7.1253876           0.1477876           0.1463217
 Leave Link  202 at Thu Aug 29 20:24:39 2019, MaxMem=   280000000 cpu:               0.1 elap:               0.0
 (Enter /home/soft/g16/l301.exe)
 Standard basis: 6-31G(d) (5D, 7F)
 Ernie: Thresh=  0.10000D-02 Tol=  0.10000D-05 Strict=F.
   220 basis functions,   440 primitive gaussians,   232 cartesian basis functions
    49 alpha electrons       49 beta electrons
       nuclear repulsion energy       672.4820926666 Hartrees.
 IExCor=    0 DFT=F Ex=HF Corr=None ExCW=0 ScaHFX=  1.000000
 ScaDFX=  1.000000  1.000000  1.000000  1.000000 ScalE2=  1.000000  1.000000
 IRadAn=      5 IRanWt=     -1 IRanGd=            0 ICorTp=0 IEmpDi=  4
 NAtoms=   38 NActive=   38 NUniq=   38 SFac= 1.00D+00 NAtFMM=   60 NAOKFM=F Big=F
 Integral buffers will be    131072 words long.
 Raffenetti 1 integral format.
 Two-electron integral symmetry is turned off.
 Leave Link  301 at Thu Aug 29 20:24:39 2019, MaxMem=   280000000 cpu:               0.3 elap:               0.1
 (Enter /home/soft/g16/l302.exe)
 NPDir=0 NMtPBC=     1 NCelOv=     1 NCel=       1 NClECP=     1 NCelD=      1
         NCelK=      1 NCelE2=     1 NClLst=     1 CellRange=     0.0.
 One-electron integrals computed using PRISM.
 NBasis=   220 RedAO= T EigKep=  2.75D-03  NBF=   220
 NBsUse=   220 1.00D-06 EigRej= -1.00D+00 NBFU=   220
 Leave Link  302 at Thu Aug 29 20:24:39 2019, MaxMem=   280000000 cpu:               0.8 elap:               0.1
 (Enter /home/soft/g16/l303.exe)
 DipDrv:  MaxL=1.
 Leave Link  303 at Thu Aug 29 20:24:39 2019, MaxMem=   280000000 cpu:               0.2 elap:               0.1
 (Enter /home/soft/g16/l401.exe)
 ExpMin= 1.61D-01 ExpMax= 3.05D+03 ExpMxC= 4.57D+02 IAcc=3 IRadAn=         5 AccDes= 0.00D+00
 Harris functional with IExCor=  205 and IRadAn=       5 diagonalized for initial guess.
 HarFok:  IExCor=  205 AccDes= 0.00D+00 IRadAn=         5 IDoV= 1 UseB2=F ITyADJ=14
 ICtDFT=  3500011 ScaDFX=  1.000000  1.000000  1.000000  1.000000
 FoFCou: FMM=F IPFlag=           0 FMFlag=      100000 FMFlg1=           0
         NFxFlg=           0 DoJE=T BraDBF=F KetDBF=T FulRan=T
         wScrn=  0.000000 ICntrl=       500 IOpCl=  0 I1Cent=   200000004 NGrid=           0
         NMat0=    1 NMatS0=      1 NMatT0=    0 NMatD0=    1 NMtDS0=    0 NMtDT0=    0
 Symmetry not used in FoFCou.
 Harris En= -470.840286169811    
 JPrj=0 DoOrth=F DoCkMO=F.
 Leave Link  401 at Thu Aug 29 20:24:41 2019, MaxMem=   280000000 cpu:               7.4 elap:               1.3
 (Enter /home/soft/g16/l502.exe)
 Two-electron integral symmetry not used.
 Closed shell SCF:
 Using DIIS extrapolation, IDIIS=  1040.
 NGot=   280000000 LenX=   279888450 LenY=   279834185
 Requested convergence on RMS density matrix=1.00D-08 within 128 cycles.
 Requested convergence on MAX density matrix=1.00D-06.
 Requested convergence on             energy=1.00D-06.
 No special actions if energy rises.
 Fock matrices will be formed incrementally for  20 cycles.
 Integral accuracy reduced to 1.0D-05 until final iterations.

 Cycle   1  Pass 0  IDiag  1:
 FoFJK:  IHMeth= 1 ICntrl=       0 DoSepK=F KAlg= 0 I1Cent=           0 FoldK=F
 IRaf= 710000000 NMat=       1 IRICut=       1 DoRegI=T DoRafI=F ISym2E= 0 IDoP0=0 IntGTp=1.
 FoFCou: FMM=F IPFlag=           0 FMFlag=      100000 FMFlg1=           0
         NFxFlg=           0 DoJE=F BraDBF=F KetDBF=F FulRan=T
         wScrn=  0.000000 ICntrl=         0 IOpCl=  0 I1Cent=           0 NGrid=           0
         NMat0=    1 NMatS0=      1 NMatT0=    0 NMatD0=    1 NMtDS0=    0 NMtDT0=    0
 Symmetry not used in FoFCou.
 E= -468.801533630848    
 DIIS: error= 6.54D-02 at cycle   1 NSaved=   1.
 NSaved= 1 IEnMin= 1 EnMin= -468.801533630848     IErMin= 1 ErrMin= 6.54D-02
 ErrMax= 6.54D-02  0.00D+00 EMaxC= 1.00D-01 BMatC= 7.66D-01 BMatP= 7.66D-01
 IDIUse=3 WtCom= 3.46D-01 WtEn= 6.54D-01
 Coeff-Com:  0.100D+01
 Coeff-En:   0.100D+01
 Coeff:      0.100D+01
 Gap=     0.639 Goal=   None    Shift=    0.000
 GapD=    0.639 DampG=2.000 DampE=0.500 DampFc=1.0000 IDamp=-1.
 RMSDP=4.84D-03 MaxDP=1.22D-01              OVMax= 1.34D-01

 Cycle   2  Pass 0  IDiag  1:
 RMSU=  4.70D-03    CP:  9.46D-01
 E= -469.455435963948     Delta-E=       -0.653902333099 Rises=F Damp=F
 DIIS: error= 2.31D-02 at cycle   2 NSaved=   2.
 NSaved= 2 IEnMin= 2 EnMin= -469.455435963948     IErMin= 2 ErrMin= 2.31D-02
 ErrMax= 2.31D-02  0.00D+00 EMaxC= 1.00D-01 BMatC= 1.18D-01 BMatP= 7.66D-01
 IDIUse=3 WtCom= 7.69D-01 WtEn= 2.31D-01
 Coeff-Com:  0.253D+00 0.747D+00
 Coeff-En:   0.000D+00 0.100D+01
 Coeff:      0.194D+00 0.806D+00
 Gap=     0.659 Goal=   None    Shift=    0.000
 RMSDP=1.63D-03 MaxDP=3.22D-02 DE=-6.54D-01 OVMax= 4.34D-02

 Cycle   3  Pass 0  IDiag  1:
 RMSU=  8.36D-04    CP:  9.61D-01  7.11D-01
 E= -469.569137585986     Delta-E=       -0.113701622039 Rises=F Damp=F
 DIIS: error= 4.00D-03 at cycle   3 NSaved=   3.
 NSaved= 3 IEnMin= 3 EnMin= -469.569137585986     IErMin= 3 ErrMin= 4.00D-03
 ErrMax= 4.00D-03  0.00D+00 EMaxC= 1.00D-01 BMatC= 2.62D-03 BMatP= 1.18D-01
 IDIUse=3 WtCom= 9.60D-01 WtEn= 4.00D-02
 Coeff-Com: -0.310D-01 0.594D-01 0.972D+00
 Coeff-En:   0.000D+00 0.000D+00 0.100D+01
 Coeff:     -0.297D-01 0.570D-01 0.973D+00
 Gap=     0.640 Goal=   None    Shift=    0.000
 RMSDP=2.39D-04 MaxDP=6.79D-03 DE=-1.14D-01 OVMax= 8.00D-03

 Cycle   4  Pass 0  IDiag  1:
 RMSU=  1.12D-04    CP:  9.59D-01  7.54D-01  1.05D+00
 E= -469.572384341859     Delta-E=       -0.003246755873 Rises=F Damp=F
 DIIS: error= 5.41D-04 at cycle   4 NSaved=   4.
 NSaved= 4 IEnMin= 4 EnMin= -469.572384341859     IErMin= 4 ErrMin= 5.41D-04
 ErrMax= 5.41D-04  0.00D+00 EMaxC= 1.00D-01 BMatC= 5.53D-05 BMatP= 2.62D-03
 IDIUse=3 WtCom= 9.95D-01 WtEn= 5.41D-03
 Coeff-Com: -0.514D-03-0.197D-01-0.803D-01 0.110D+01
 Coeff-En:   0.000D+00 0.000D+00 0.000D+00 0.100D+01
 Coeff:     -0.511D-03-0.196D-01-0.798D-01 0.110D+01
 Gap=     0.641 Goal=   None    Shift=    0.000
 RMSDP=5.88D-05 MaxDP=1.23D-03 DE=-3.25D-03 OVMax= 1.80D-03

 Cycle   5  Pass 0  IDiag  1:
 RMSU=  3.72D-05    CP:  9.59D-01  7.55D-01  1.09D+00  1.23D+00
 E= -469.572475481148     Delta-E=       -0.000091139289 Rises=F Damp=F
 DIIS: error= 1.90D-04 at cycle   5 NSaved=   5.
 NSaved= 5 IEnMin= 5 EnMin= -469.572475481148     IErMin= 5 ErrMin= 1.90D-04
 ErrMax= 1.90D-04  0.00D+00 EMaxC= 1.00D-01 BMatC= 6.66D-06 BMatP= 5.53D-05
 IDIUse=3 WtCom= 9.98D-01 WtEn= 1.90D-03
 Coeff-Com:  0.223D-02-0.937D-02-0.910D-01 0.234D+00 0.864D+00
 Coeff-En:   0.000D+00 0.000D+00 0.000D+00 0.000D+00 0.100D+01
 Coeff:      0.222D-02-0.935D-02-0.908D-01 0.234D+00 0.864D+00
 Gap=     0.642 Goal=   None    Shift=    0.000
 RMSDP=1.63D-05 MaxDP=4.00D-04 DE=-9.11D-05 OVMax= 4.66D-04

 Cycle   6  Pass 0  IDiag  1:
 RMSU=  7.19D-06    CP:  9.59D-01  7.55D-01  1.10D+00  1.35D+00  9.72D-01
 E= -469.572484165376     Delta-E=       -0.000008684229 Rises=F Damp=F
 DIIS: error= 2.14D-05 at cycle   6 NSaved=   6.
 NSaved= 6 IEnMin= 6 EnMin= -469.572484165376     IErMin= 6 ErrMin= 2.14D-05
 ErrMax= 2.14D-05  0.00D+00 EMaxC= 1.00D-01 BMatC= 1.07D-07 BMatP= 6.66D-06
 IDIUse=1 WtCom= 1.00D+00 WtEn= 0.00D+00
 Coeff-Com:  0.128D-03 0.103D-03-0.147D-02-0.339D-01 0.330D-01 0.100D+01
 Coeff:      0.128D-03 0.103D-03-0.147D-02-0.339D-01 0.330D-01 0.100D+01
 Gap=     0.642 Goal=   None    Shift=    0.000
 RMSDP=3.34D-06 MaxDP=6.75D-05 DE=-8.68D-06 OVMax= 9.66D-05

 Initial convergence to 1.0D-05 achieved.  Increase integral accuracy.
 Cycle   7  Pass 1  IDiag  1:
 E= -469.572490430571     Delta-E=       -0.000006265195 Rises=F Damp=F
 DIIS: error= 1.66D-05 at cycle   1 NSaved=   1.
 NSaved= 1 IEnMin= 1 EnMin= -469.572490430571     IErMin= 1 ErrMin= 1.66D-05
 ErrMax= 1.66D-05  0.00D+00 EMaxC= 1.00D-01 BMatC= 2.53D-08 BMatP= 2.53D-08
 IDIUse=1 WtCom= 1.00D+00 WtEn= 0.00D+00
 Coeff-Com:  0.100D+01
 Coeff:      0.100D+01
 Gap=     0.642 Goal=   None    Shift=    0.000
 RMSDP=3.34D-06 MaxDP=6.75D-05 DE=-6.27D-06 OVMax= 2.44D-05

 Cycle   8  Pass 1  IDiag  1:
 RMSU=  2.33D-06    CP:  1.00D+00
 E= -469.572490450166     Delta-E=       -0.000000019595 Rises=F Damp=F
 DIIS: error= 1.75D-06 at cycle   2 NSaved=   2.
 NSaved= 2 IEnMin= 2 EnMin= -469.572490450166     IErMin= 2 ErrMin= 1.75D-06
 ErrMax= 1.75D-06  0.00D+00 EMaxC= 1.00D-01 BMatC= 5.66D-10 BMatP= 2.53D-08
 IDIUse=1 WtCom= 1.00D+00 WtEn= 0.00D+00
 Coeff-Com: -0.166D-01 0.102D+01
 Coeff:     -0.166D-01 0.102D+01
 Gap=     0.642 Goal=   None    Shift=    0.000
 RMSDP=2.58D-07 MaxDP=3.98D-06 DE=-1.96D-08 OVMax= 6.47D-06

 Cycle   9  Pass 1  IDiag  1:
 RMSU=  1.96D-07    CP:  1.00D+00  1.07D+00
 E= -469.572490451163     Delta-E=       -0.000000000997 Rises=F Damp=F
 DIIS: error= 6.89D-07 at cycle   3 NSaved=   3.
 NSaved= 3 IEnMin= 3 EnMin= -469.572490451163     IErMin= 3 ErrMin= 6.89D-07
 ErrMax= 6.89D-07  0.00D+00 EMaxC= 1.00D-01 BMatC= 1.01D-10 BMatP= 5.66D-10
 IDIUse=1 WtCom= 1.00D+00 WtEn= 0.00D+00
 Coeff-Com: -0.226D-01 0.156D+00 0.867D+00
 Coeff:     -0.226D-01 0.156D+00 0.867D+00
 Gap=     0.642 Goal=   None    Shift=    0.000
 RMSDP=7.56D-08 MaxDP=1.43D-06 DE=-9.97D-10 OVMax= 2.51D-06

 Cycle  10  Pass 1  IDiag  1:
 RMSU=  5.92D-08    CP:  1.00D+00  1.08D+00  1.20D+00
 E= -469.572490451336     Delta-E=       -0.000000000173 Rises=F Damp=F
 DIIS: error= 2.53D-07 at cycle   4 NSaved=   4.
 NSaved= 4 IEnMin= 4 EnMin= -469.572490451336     IErMin= 4 ErrMin= 2.53D-07
 ErrMax= 2.53D-07  0.00D+00 EMaxC= 1.00D-01 BMatC= 1.24D-11 BMatP= 1.01D-10
 IDIUse=1 WtCom= 1.00D+00 WtEn= 0.00D+00
 Coeff-Com:  0.541D-02-0.172D+00-0.116D+00 0.128D+01
 Coeff:      0.541D-02-0.172D+00-0.116D+00 0.128D+01
 Gap=     0.642 Goal=   None    Shift=    0.000
 RMSDP=5.22D-08 MaxDP=1.24D-06 DE=-1.73D-10 OVMax= 1.79D-06

 Cycle  11  Pass 1  IDiag  1:
 RMSU=  1.25D-08    CP:  1.00D+00  1.09D+00  1.43D+00  1.35D+00
 E= -469.572490451367     Delta-E=       -0.000000000031 Rises=F Damp=F
 DIIS: error= 4.31D-08 at cycle   5 NSaved=   5.
 NSaved= 5 IEnMin= 5 EnMin= -469.572490451367     IErMin= 5 ErrMin= 4.31D-08
 ErrMax= 4.31D-08  0.00D+00 EMaxC= 1.00D-01 BMatC= 2.65D-13 BMatP= 1.24D-11
 IDIUse=1 WtCom= 1.00D+00 WtEn= 0.00D+00
 Coeff-Com:  0.968D-03-0.149D-01-0.295D-01 0.812D-01 0.962D+00
 Coeff:      0.968D-03-0.149D-01-0.295D-01 0.812D-01 0.962D+00
 Gap=     0.642 Goal=   None    Shift=    0.000
 RMSDP=4.46D-09 MaxDP=7.55D-08 DE=-3.09D-11 OVMax= 1.68D-07

 SCF Done:  E(RHF) =  -469.572490451     A.U. after   11 cycles
            NFock= 11  Conv=0.45D-08     -V/T= 1.9989
 KE= 4.700735738006D+02 PE=-2.436905029629D+03 EE= 8.247768727101D+02
 Leave Link  502 at Thu Aug 29 20:24:45 2019, MaxMem=   280000000 cpu:              25.9 elap:               4.3
 (Enter /home/soft/g16/l601.exe)
 Copying SCF densities to generalized density rwf, IOpCl= 0 IROHF=0.

 **********************************************************************

            Population analysis using the SCF density.

 **********************************************************************

 Alpha  occ. eigenvalues --  -11.20977 -11.20976 -11.20839 -11.20838 -11.20813
 Alpha  occ. eigenvalues --  -11.20800 -11.20778 -11.20757 -11.20735 -11.20713
 Alpha  occ. eigenvalues --  -11.20215 -11.20215  -1.09581  -1.08151  -1.05764
 Alpha  occ. eigenvalues --   -1.02497  -0.98448  -0.93754  -0.88658  -0.83681
 Alpha  occ. eigenvalues --   -0.79907  -0.78944  -0.78365  -0.78257  -0.66145
 Alpha  occ. eigenvalues --   -0.64851  -0.62752  -0.60016  -0.59478  -0.59296
 Alpha  occ. eigenvalues --   -0.56909  -0.56871  -0.56422  -0.53921  -0.53618
 Alpha  occ. eigenvalues --   -0.51336  -0.50917  -0.50613  -0.48438  -0.48211
 Alpha  occ. eigenvalues --   -0.46748  -0.46652  -0.45927  -0.45880  -0.45772
 Alpha  occ. eigenvalues --   -0.45771  -0.45730  -0.45387  -0.41562
 Alpha virt. eigenvalues --    0.22655   0.23296   0.24219   0.25496   0.25794
 Alpha virt. eigenvalues --    0.26599   0.27471   0.27536   0.28435   0.30142
 Alpha virt. eigenvalues --    0.30320   0.31445   0.32920   0.33148   0.33583
 Alpha virt. eigenvalues --    0.33903   0.34340   0.34713   0.35240   0.35377
 Alpha virt. eigenvalues --    0.36095   0.36482   0.36708   0.37235   0.38080
 Alpha virt. eigenvalues --    0.38303   0.38386   0.39002   0.39321   0.41590
 Alpha virt. eigenvalues --    0.42172   0.43733   0.44843   0.45875   0.49420
 Alpha virt. eigenvalues --    0.53302   0.54123   0.66592   0.68988   0.70098
 Alpha virt. eigenvalues --    0.72143   0.75328   0.75486   0.76684   0.76710
 Alpha virt. eigenvalues --    0.77043   0.77465   0.79001   0.79537   0.80615
 Alpha virt. eigenvalues --    0.82683   0.86425   0.86907   0.87135   0.89554
 Alpha virt. eigenvalues --    0.93943   0.94859   0.96192   0.97719   0.98689
 Alpha virt. eigenvalues --    0.99514   1.02348   1.02680   1.02809   1.07200
 Alpha virt. eigenvalues --    1.08190   1.10099   1.11310   1.12418   1.12708
 Alpha virt. eigenvalues --    1.12745   1.14385   1.14915   1.15382   1.17671
 Alpha virt. eigenvalues --    1.18475   1.19251   1.20126   1.20323   1.21007
 Alpha virt. eigenvalues --    1.21158   1.21694   1.22562   1.22565   1.22643
 Alpha virt. eigenvalues --    1.22958   1.23365   1.23447   1.23482   1.23971
 Alpha virt. eigenvalues --    1.24057   1.25978   1.26068   1.27207   1.28122
 Alpha virt. eigenvalues --    1.28314   1.29081   1.34802   1.38357   1.47723
 Alpha virt. eigenvalues --    1.54558   1.56349   1.62607   1.64353   1.67397
 Alpha virt. eigenvalues --    1.71040   1.72612   1.73676   1.75130   1.75364
 Alpha virt. eigenvalues --    1.78811   1.78971   1.84403   1.87396   1.91416
 Alpha virt. eigenvalues --    1.95080   1.96681   2.02900   2.07622   2.10572
 Alpha virt. eigenvalues --    2.14548   2.16027   2.20262   2.20614   2.23474
 Alpha virt. eigenvalues --    2.24420   2.24987   2.25438   2.26147   2.26969
 Alpha virt. eigenvalues --    2.29286   2.29430   2.30631   2.32617   2.34029
 Alpha virt. eigenvalues --    2.34242   2.35330   2.38197   2.38639   2.38765
 Alpha virt. eigenvalues --    2.40528   2.43520   2.47855   2.48278   2.55696
 Alpha virt. eigenvalues --    2.58843   2.60095   2.62899   2.62902   2.67185
 Alpha virt. eigenvalues --    2.68313   2.68458   2.72571   2.73679   2.76620
 Alpha virt. eigenvalues --    2.77546   2.78106   2.81180   2.81322   2.86848
 Alpha virt. eigenvalues --    2.92562   2.93931   2.95570   3.00226   3.00768
 Alpha virt. eigenvalues --    3.03954   3.06507   3.13946   3.18454   3.24115
 Alpha virt. eigenvalues --    3.24467
          Condensed to atoms (all electrons):
               1          2          3          4          5          6
     1  C    5.108137   0.342034  -0.055954   0.003931  -0.000079   0.000001
     2  C    0.342034   5.072303   0.354188  -0.052444   0.003884  -0.000072
     3  C   -0.055954   0.354188   5.088609   0.357317  -0.052399   0.003872
     4  C    0.003931  -0.052444   0.357317   5.079320   0.356939  -0.052413
     5  C   -0.000079   0.003884  -0.052399   0.356939   5.079738   0.357061
     6  C    0.000001  -0.000072   0.003872  -0.052413   0.357061   5.079652
     7  C   -0.000000   0.000001  -0.000072   0.003876  -0.052447   0.357026
     8  C    0.000000  -0.000000   0.000001  -0.000072   0.003876  -0.052448
     9  C   -0.000000   0.000000  -0.000000   0.000001  -0.000072   0.003876
    10  C    0.000000  -0.000000   0.000000  -0.000000   0.000001  -0.000072
    11  C    0.000000   0.000000  -0.000000   0.000000  -0.000000   0.000001
    12  C    0.000000   0.000000   0.000000  -0.000000   0.000000  -0.000000
    13  H    0.395845  -0.033568   0.004061  -0.000081   0.000001  -0.000000
    14  H    0.000000   0.000000  -0.000000   0.000000  -0.000000   0.000000
    15  H    0.000000   0.000000  -0.000000  -0.000000  -0.000000  -0.000000
    16  H   -0.000056  -0.003157  -0.041701   0.397142  -0.041651  -0.003208
    17  H    0.391714  -0.041276  -0.003784  -0.000076  -0.000001  -0.000000
    18  H    0.391714  -0.041275  -0.003782  -0.000076  -0.000001  -0.000000
    19  H   -0.041166   0.399219  -0.043242  -0.003200  -0.000064  -0.000001
    20  H   -0.041167   0.399221  -0.043245  -0.003201  -0.000064  -0.000001
    21  H   -0.002874  -0.041796   0.396410  -0.041662  -0.003221  -0.000059
    22  H   -0.002874  -0.041793   0.396407  -0.041660  -0.003221  -0.000059
    23  H   -0.000056  -0.003157  -0.041700   0.397141  -0.041650  -0.003209
    24  H   -0.000000  -0.000057  -0.003220  -0.041679   0.397123  -0.041655
    25  H   -0.000000  -0.000057  -0.003220  -0.041678   0.397121  -0.041652
    26  H    0.000000  -0.000001  -0.000058  -0.003210  -0.041675   0.397132
    27  H    0.000000  -0.000001  -0.000059  -0.003209  -0.041672   0.397131
    28  H   -0.000000   0.000000  -0.000001  -0.000059  -0.003210  -0.041665
    29  H   -0.000000   0.000000  -0.000001  -0.000059  -0.003210  -0.041662
    30  H   -0.000000  -0.000000   0.000000  -0.000001  -0.000059  -0.003208
    31  H   -0.000000  -0.000000   0.000000  -0.000001  -0.000059  -0.003209
    32  H   -0.000000  -0.000000  -0.000000   0.000000  -0.000001  -0.000059
    33  H   -0.000000  -0.000000  -0.000000   0.000000  -0.000001  -0.000059
    34  H   -0.000000  -0.000000  -0.000000  -0.000000   0.000000  -0.000001
    35  H   -0.000000  -0.000000  -0.000000  -0.000000   0.000000  -0.000001
    36  H    0.000000  -0.000000  -0.000000  -0.000000  -0.000000   0.000000
    37  H    0.000000  -0.000000  -0.000000  -0.000000  -0.000000   0.000000
    38  H    0.000000   0.000000  -0.000000  -0.000000  -0.000000  -0.000000
               7          8          9         10         11         12
     1  C   -0.000000   0.000000  -0.000000   0.000000   0.000000   0.000000
     2  C    0.000001  -0.000000   0.000000  -0.000000   0.000000   0.000000
     3  C   -0.000072   0.000001  -0.000000   0.000000  -0.000000   0.000000
     4  C    0.003876  -0.000072   0.000001  -0.000000   0.000000  -0.000000
     5  C   -0.052447   0.003876  -0.000072   0.000001  -0.000000   0.000000
     6  C    0.357026  -0.052448   0.003876  -0.000072   0.000001  -0.000000
     7  C    5.079654   0.357061  -0.052415   0.003872  -0.000072   0.000001
     8  C    0.357061   5.079741   0.356939  -0.052402   0.003884  -0.000079
     9  C   -0.052415   0.356939   5.079324   0.357317  -0.052449   0.003932
    10  C    0.003872  -0.052402   0.357317   5.088618   0.354187  -0.055964
    11  C   -0.000072   0.003884  -0.052449   0.354187   5.072305   0.342036
    12  C    0.000001  -0.000079   0.003932  -0.055964   0.342036   5.108142
    13  H    0.000000  -0.000000   0.000000  -0.000000   0.000000   0.000000
    14  H   -0.000000   0.000001  -0.000081   0.004062  -0.033573   0.395845
    15  H   -0.000000  -0.000001  -0.000076  -0.003784  -0.041272   0.391716
    16  H   -0.000059  -0.000001   0.000000  -0.000000  -0.000000  -0.000000
    17  H   -0.000000  -0.000000  -0.000000  -0.000000   0.000000   0.000000
    18  H   -0.000000  -0.000000  -0.000000  -0.000000   0.000000   0.000000
    19  H    0.000000  -0.000000  -0.000000  -0.000000  -0.000000   0.000000
    20  H    0.000000  -0.000000  -0.000000  -0.000000  -0.000000   0.000000
    21  H   -0.000001   0.000000  -0.000000  -0.000000  -0.000000  -0.000000
    22  H   -0.000001   0.000000  -0.000000  -0.000000  -0.000000  -0.000000
    23  H   -0.000059  -0.000001   0.000000  -0.000000  -0.000000  -0.000000
    24  H   -0.003209  -0.000059  -0.000001   0.000000  -0.000000  -0.000000
    25  H   -0.003209  -0.000059  -0.000001   0.000000  -0.000000  -0.000000
    26  H   -0.041663  -0.003210  -0.000059  -0.000001   0.000000  -0.000000
    27  H   -0.041664  -0.003211  -0.000059  -0.000001   0.000000  -0.000000
    28  H    0.397133  -0.041674  -0.003210  -0.000058  -0.000001   0.000000
    29  H    0.397131  -0.041673  -0.003210  -0.000058  -0.000001   0.000000
    30  H   -0.041652   0.397122  -0.041678  -0.003221  -0.000057  -0.000000
    31  H   -0.041654   0.397123  -0.041679  -0.003220  -0.000057  -0.000000
    32  H   -0.003209  -0.041650   0.397144  -0.041702  -0.003158  -0.000056
    33  H   -0.003209  -0.041650   0.397142  -0.041699  -0.003157  -0.000056
    34  H   -0.000059  -0.003222  -0.041662   0.396411  -0.041794  -0.002874
    35  H   -0.000059  -0.003221  -0.041658   0.396410  -0.041795  -0.002875
    36  H   -0.000001  -0.000063  -0.003201  -0.043243   0.399223  -0.041167
    37  H   -0.000001  -0.000064  -0.003201  -0.043241   0.399221  -0.041166
    38  H   -0.000000  -0.000001  -0.000076  -0.003783  -0.041271   0.391716
              13         14         15         16         17         18
     1  C    0.395845   0.000000   0.000000  -0.000056   0.391714   0.391714
     2  C   -0.033568   0.000000   0.000000  -0.003157  -0.041276  -0.041275
     3  C    0.004061  -0.000000  -0.000000  -0.041701  -0.003784  -0.003782
     4  C   -0.000081   0.000000  -0.000000   0.397142  -0.000076  -0.000076
     5  C    0.000001  -0.000000  -0.000000  -0.041651  -0.000001  -0.000001
     6  C   -0.000000   0.000000  -0.000000  -0.003208  -0.000000  -0.000000
     7  C    0.000000  -0.000000  -0.000000  -0.000059  -0.000000  -0.000000
     8  C   -0.000000   0.000001  -0.000001  -0.000001  -0.000000  -0.000000
     9  C    0.000000  -0.000081  -0.000076   0.000000  -0.000000  -0.000000
    10  C   -0.000000   0.004062  -0.003784  -0.000000  -0.000000  -0.000000
    11  C    0.000000  -0.033573  -0.041272  -0.000000   0.000000   0.000000
    12  C    0.000000   0.395845   0.391716  -0.000000   0.000000   0.000000
    13  H    0.522288   0.000000   0.000000   0.000001  -0.027163  -0.027162
    14  H    0.000000   0.522303  -0.027164   0.000000   0.000000   0.000000
    15  H    0.000000  -0.027164   0.551170   0.000000   0.000000   0.000000
    16  H    0.000001   0.000000   0.000000   0.561612  -0.000001   0.000014
    17  H   -0.027163   0.000000   0.000000  -0.000001   0.551179  -0.032507
    18  H   -0.027162   0.000000   0.000000   0.000014  -0.032507   0.551179
    19  H   -0.002333   0.000000   0.000000   0.000231  -0.003349   0.004559
    20  H   -0.002331   0.000000   0.000000   0.002367   0.004559  -0.003352
    21  H   -0.000057  -0.000000   0.000000  -0.002915   0.000132   0.002803
    22  H   -0.000057  -0.000000  -0.000000   0.004510   0.002804   0.000132
    23  H    0.000001   0.000000   0.000000  -0.033137   0.000014  -0.000001
    24  H    0.000000  -0.000000   0.000000   0.004497  -0.000002   0.000000
    25  H    0.000000  -0.000000  -0.000000  -0.002888   0.000000  -0.000002
    26  H    0.000000  -0.000000  -0.000000   0.000264   0.000000  -0.000000
    27  H    0.000000  -0.000000  -0.000000   0.002264  -0.000000   0.000000
    28  H   -0.000000   0.000000   0.000000   0.000017  -0.000000  -0.000000
    29  H   -0.000000   0.000000  -0.000000  -0.000004  -0.000000  -0.000000
    30  H   -0.000000   0.000000   0.000000   0.000001  -0.000000   0.000000
    31  H   -0.000000   0.000000  -0.000002  -0.000002   0.000000  -0.000000
    32  H    0.000000   0.000001  -0.000001  -0.000000   0.000000   0.000000
    33  H    0.000000   0.000001   0.000014   0.000000   0.000000   0.000000
    34  H   -0.000000  -0.000057   0.000132   0.000000   0.000000  -0.000000
    35  H   -0.000000  -0.000057   0.002804  -0.000000  -0.000000   0.000000
    36  H    0.000000  -0.002333  -0.003350  -0.000000   0.000000   0.000000
    37  H    0.000000  -0.002332   0.004559   0.000000   0.000000   0.000000
    38  H    0.000000  -0.027164  -0.032504   0.000000   0.000000   0.000000
              19         20         21         22         23         24
     1  C   -0.041166  -0.041167  -0.002874  -0.002874  -0.000056  -0.000000
     2  C    0.399219   0.399221  -0.041796  -0.041793  -0.003157  -0.000057
     3  C   -0.043242  -0.043245   0.396410   0.396407  -0.041700  -0.003220
     4  C   -0.003200  -0.003201  -0.041662  -0.041660   0.397141  -0.041679
     5  C   -0.000064  -0.000064  -0.003221  -0.003221  -0.041650   0.397123
     6  C   -0.000001  -0.000001  -0.000059  -0.000059  -0.003209  -0.041655
     7  C    0.000000   0.000000  -0.000001  -0.000001  -0.000059  -0.003209
     8  C   -0.000000  -0.000000   0.000000   0.000000  -0.000001  -0.000059
     9  C   -0.000000  -0.000000  -0.000000  -0.000000   0.000000  -0.000001
    10  C   -0.000000  -0.000000  -0.000000  -0.000000  -0.000000   0.000000
    11  C   -0.000000  -0.000000  -0.000000  -0.000000  -0.000000  -0.000000
    12  C    0.000000   0.000000  -0.000000  -0.000000  -0.000000  -0.000000
    13  H   -0.002333  -0.002331  -0.000057  -0.000057   0.000001   0.000000
    14  H    0.000000   0.000000  -0.000000  -0.000000   0.000000  -0.000000
    15  H    0.000000   0.000000   0.000000  -0.000000   0.000000   0.000000
    16  H    0.000231   0.002367  -0.002915   0.004510  -0.033137   0.004497
    17  H   -0.003349   0.004559   0.000132   0.002804   0.000014  -0.000002
    18  H    0.004559  -0.003352   0.002803   0.000132  -0.000001   0.000000
    19  H    0.563203  -0.033748   0.004598  -0.003099   0.002366   0.000017
    20  H   -0.033748   0.563204  -0.003097   0.004598   0.000231  -0.000003
    21  H    0.004598  -0.003097   0.562986  -0.033460   0.004510   0.000262
    22  H   -0.003099   0.004598  -0.033460   0.562986  -0.002916   0.002271
    23  H    0.002366   0.000231   0.004510  -0.002916   0.561612  -0.002889
    24  H    0.000017  -0.000003   0.000262   0.002271  -0.002889   0.561950
    25  H   -0.000003   0.000017   0.002271   0.000262   0.004497  -0.033156
    26  H   -0.000002   0.000001  -0.000004   0.000017   0.002265  -0.002883
    27  H    0.000001  -0.000002   0.000017  -0.000004   0.000264   0.004498
    28  H   -0.000000   0.000000  -0.000002   0.000001  -0.000004   0.000266
    29  H    0.000000  -0.000000   0.000001  -0.000002   0.000017   0.002263
    30  H   -0.000000   0.000000  -0.000000   0.000000  -0.000002   0.000017
    31  H    0.000000  -0.000000   0.000000  -0.000000   0.000001  -0.000004
    32  H   -0.000000   0.000000   0.000000  -0.000000   0.000000  -0.000002
    33  H    0.000000  -0.000000  -0.000000   0.000000  -0.000000   0.000001
    34  H    0.000000   0.000000   0.000000  -0.000000  -0.000000   0.000000
    35  H    0.000000   0.000000  -0.000000   0.000000   0.000000  -0.000000
    36  H   -0.000000   0.000000   0.000000   0.000000   0.000000   0.000000
    37  H    0.000000  -0.000000   0.000000   0.000000  -0.000000  -0.000000
    38  H    0.000000   0.000000  -0.000000   0.000000   0.000000  -0.000000
              25         26         27         28         29         30
     1  C   -0.000000   0.000000   0.000000  -0.000000  -0.000000  -0.000000
     2  C   -0.000057  -0.000001  -0.000001   0.000000   0.000000  -0.000000
     3  C   -0.003220  -0.000058  -0.000059  -0.000001  -0.000001   0.000000
     4  C   -0.041678  -0.003210  -0.003209  -0.000059  -0.000059  -0.000001
     5  C    0.397121  -0.041675  -0.041672  -0.003210  -0.003210  -0.000059
     6  C   -0.041652   0.397132   0.397131  -0.041665  -0.041662  -0.003208
     7  C   -0.003209  -0.041663  -0.041664   0.397133   0.397131  -0.041652
     8  C   -0.000059  -0.003210  -0.003211  -0.041674  -0.041673   0.397122
     9  C   -0.000001  -0.000059  -0.000059  -0.003210  -0.003210  -0.041678
    10  C    0.000000  -0.000001  -0.000001  -0.000058  -0.000058  -0.003221
    11  C   -0.000000   0.000000   0.000000  -0.000001  -0.000001  -0.000057
    12  C   -0.000000  -0.000000  -0.000000   0.000000   0.000000  -0.000000
    13  H    0.000000   0.000000   0.000000  -0.000000  -0.000000  -0.000000
    14  H   -0.000000  -0.000000  -0.000000   0.000000   0.000000   0.000000
    15  H   -0.000000  -0.000000  -0.000000   0.000000  -0.000000   0.000000
    16  H   -0.002888   0.000264   0.002264   0.000017  -0.000004   0.000001
    17  H    0.000000   0.000000  -0.000000  -0.000000  -0.000000  -0.000000
    18  H   -0.000002  -0.000000   0.000000  -0.000000  -0.000000   0.000000
    19  H   -0.000003  -0.000002   0.000001  -0.000000   0.000000  -0.000000
    20  H    0.000017   0.000001  -0.000002   0.000000  -0.000000   0.000000
    21  H    0.002271  -0.000004   0.000017  -0.000002   0.000001  -0.000000
    22  H    0.000262   0.000017  -0.000004   0.000001  -0.000002   0.000000
    23  H    0.004497   0.002265   0.000264  -0.000004   0.000017  -0.000002
    24  H   -0.033156  -0.002883   0.004498   0.000266   0.002263   0.000017
    25  H    0.561951   0.004498  -0.002886   0.002263   0.000266  -0.000004
    26  H    0.004498   0.561952  -0.033147   0.004497  -0.002884   0.002263
    27  H   -0.002886  -0.033147   0.561952  -0.002882   0.004497   0.000266
    28  H    0.002263   0.004497  -0.002882   0.561952  -0.033147   0.004498
    29  H    0.000266  -0.002884   0.004497  -0.033147   0.561952  -0.002885
    30  H   -0.000004   0.002263   0.000266   0.004498  -0.002885   0.561949
    31  H    0.000017   0.000266   0.002263  -0.002884   0.004498  -0.033156
    32  H    0.000001   0.000017  -0.000004   0.000264   0.002264  -0.002889
    33  H   -0.000002  -0.000004   0.000017   0.002265   0.000264   0.004497
    34  H   -0.000000  -0.000002   0.000001  -0.000004   0.000017   0.002271
    35  H    0.000000   0.000001  -0.000002   0.000017  -0.000004   0.000262
    36  H   -0.000000  -0.000000   0.000000  -0.000002   0.000001  -0.000003
    37  H    0.000000   0.000000  -0.000000   0.000001  -0.000002   0.000017
    38  H    0.000000  -0.000000  -0.000000  -0.000000   0.000000  -0.000002
              31         32         33         34         35         36
     1  C   -0.000000  -0.000000  -0.000000  -0.000000  -0.000000   0.000000
     2  C   -0.000000  -0.000000  -0.000000  -0.000000  -0.000000  -0.000000
     3  C    0.000000  -0.000000  -0.000000  -0.000000  -0.000000  -0.000000
     4  C   -0.000001   0.000000   0.000000  -0.000000  -0.000000  -0.000000
     5  C   -0.000059  -0.000001  -0.000001   0.000000   0.000000  -0.000000
     6  C   -0.003209  -0.000059  -0.000059  -0.000001  -0.000001   0.000000
     7  C   -0.041654  -0.003209  -0.003209  -0.000059  -0.000059  -0.000001
     8  C    0.397123  -0.041650  -0.041650  -0.003222  -0.003221  -0.000063
     9  C   -0.041679   0.397144   0.397142  -0.041662  -0.041658  -0.003201
    10  C   -0.003220  -0.041702  -0.041699   0.396411   0.396410  -0.043243
    11  C   -0.000057  -0.003158  -0.003157  -0.041794  -0.041795   0.399223
    12  C   -0.000000  -0.000056  -0.000056  -0.002874  -0.002875  -0.041167
    13  H   -0.000000   0.000000   0.000000  -0.000000  -0.000000   0.000000
    14  H    0.000000   0.000001   0.000001  -0.000057  -0.000057  -0.002333
    15  H   -0.000002  -0.000001   0.000014   0.000132   0.002804  -0.003350
    16  H   -0.000002  -0.000000   0.000000   0.000000  -0.000000  -0.000000
    17  H    0.000000   0.000000   0.000000   0.000000  -0.000000   0.000000
    18  H   -0.000000   0.000000   0.000000  -0.000000   0.000000   0.000000
    19  H    0.000000  -0.000000   0.000000   0.000000   0.000000  -0.000000
    20  H   -0.000000   0.000000  -0.000000   0.000000   0.000000   0.000000
    21  H    0.000000   0.000000  -0.000000   0.000000  -0.000000   0.000000
    22  H   -0.000000  -0.000000   0.000000  -0.000000   0.000000   0.000000
    23  H    0.000001   0.000000  -0.000000  -0.000000   0.000000   0.000000
    24  H   -0.000004  -0.000002   0.000001   0.000000  -0.000000   0.000000
    25  H    0.000017   0.000001  -0.000002  -0.000000   0.000000  -0.000000
    26  H    0.000266   0.000017  -0.000004  -0.000002   0.000001  -0.000000
    27  H    0.002263  -0.000004   0.000017   0.000001  -0.000002   0.000000
    28  H   -0.002884   0.000264   0.002265  -0.000004   0.000017  -0.000002
    29  H    0.004498   0.002264   0.000264   0.000017  -0.000004   0.000001
    30  H   -0.033156  -0.002889   0.004497   0.002271   0.000262  -0.000003
    31  H    0.561950   0.004497  -0.002888   0.000262   0.002270   0.000017
    32  H    0.004497   0.561610  -0.033137  -0.002914   0.004510   0.000231
    33  H   -0.002888  -0.033137   0.561610   0.004510  -0.002917   0.002366
    34  H    0.000262  -0.002914   0.004510   0.562981  -0.033459   0.004598
    35  H    0.002270   0.004510  -0.002917  -0.033459   0.562981  -0.003097
    36  H    0.000017   0.000231   0.002366   0.004598  -0.003097   0.563197
    37  H   -0.000003   0.002366   0.000231  -0.003098   0.004598  -0.033747
    38  H    0.000000   0.000014  -0.000001   0.002803   0.000132   0.004559
              37         38
     1  C    0.000000   0.000000
     2  C   -0.000000   0.000000
     3  C   -0.000000  -0.000000
     4  C   -0.000000  -0.000000
     5  C   -0.000000  -0.000000
     6  C    0.000000  -0.000000
     7  C   -0.000001  -0.000000
     8  C   -0.000064  -0.000001
     9  C   -0.003201  -0.000076
    10  C   -0.043241  -0.003783
    11  C    0.399221  -0.041271
    12  C   -0.041166   0.391716
    13  H    0.000000   0.000000
    14  H   -0.002332  -0.027164
    15  H    0.004559  -0.032504
    16  H    0.000000   0.000000
    17  H    0.000000   0.000000
    18  H    0.000000   0.000000
    19  H    0.000000   0.000000
    20  H   -0.000000   0.000000
    21  H    0.000000  -0.000000
    22  H    0.000000   0.000000
    23  H   -0.000000   0.000000
    24  H   -0.000000  -0.000000
    25  H    0.000000   0.000000
    26  H    0.000000  -0.000000
    27  H   -0.000000  -0.000000
    28  H    0.000001  -0.000000
    29  H   -0.000002   0.000000
    30  H    0.000017  -0.000002
    31  H   -0.000003   0.000000
    32  H    0.002366   0.000014
    33  H    0.000231  -0.000001
    34  H   -0.003098   0.002803
    35  H    0.004598   0.000132
    36  H   -0.033747   0.004559
    37  H    0.563197  -0.003350
    38  H   -0.003350   0.551171
 Mulliken charges:
               1
     1  C   -0.489150
     2  C   -0.312197
     3  C   -0.308428
     4  C   -0.310887
     5  C   -0.310988
     6  C   -0.311040
     7  C   -0.311040
     8  C   -0.310988
     9  C   -0.310888
    10  C   -0.308428
    11  C   -0.312199
    12  C   -0.489151
    13  H    0.170555
    14  H    0.170548
    15  H    0.157758
    16  H    0.155861
    17  H    0.157755
    18  H    0.157755
    19  H    0.156012
    20  H    0.156012
    21  H    0.155157
    22  H    0.155158
    23  H    0.155861
    24  H    0.155653
    25  H    0.155654
    26  H    0.155628
    27  H    0.155628
    28  H    0.155628
    29  H    0.155629
    30  H    0.155654
    31  H    0.155653
    32  H    0.155861
    33  H    0.155862
    34  H    0.155159
    35  H    0.155159
    36  H    0.156014
    37  H    0.156015
    38  H    0.157758
 Sum of Mulliken charges =  -0.00000
 Mulliken charges with hydrogens summed into heavy atoms:
               1
     1  C   -0.003085
     2  C   -0.000173
     3  C    0.001886
     4  C    0.000835
     5  C    0.000319
     6  C    0.000217
     7  C    0.000216
     8  C    0.000319
     9  C    0.000835
    10  C    0.001889
    11  C   -0.000171
    12  C   -0.003087
 Electronic spatial extent (au):  <R**2>=          28096.9724
 Charge=             -0.0000 electrons
 Dipole moment (field-independent basis, Debye):
    X=             -0.0001    Y=              0.0000    Z=             -0.0000  Tot=              0.0001
 Quadrupole moment (field-independent basis, Debye-Ang):
   XX=            -85.1309   YY=            -83.4640   ZZ=            -80.8845
   XY=             -0.8979   XZ=              0.0004   YZ=              0.0005
 Traceless Quadrupole moment (field-independent basis, Debye-Ang):
   XX=             -1.9711   YY=             -0.3042   ZZ=              2.2753
   XY=             -0.8979   XZ=              0.0004   YZ=              0.0005
 Octapole moment (field-independent basis, Debye-Ang**2):
  XXX=           1958.4999  YYY=             -4.6888  ZZZ=              0.0051  XYY=            640.0120
  XXY=             12.1767  XXZ=             -0.0070  XZZ=            620.2637  YZZ=             -1.5147
  YYZ=              0.0012  XYZ=             -0.0059
 Hexadecapole moment (field-independent basis, Debye-Ang**3):
 XXXX=         -40393.4994 YYYY=           -290.1898 ZZZZ=           -165.0481 XXXY=           -293.3392
 XXXZ=              0.1250 YYYX=            -37.2425 YYYZ=              0.0159 ZZZX=             -0.0329
 ZZZY=              0.0079 XXYY=          -6663.8408 XXZZ=          -6457.4455 YYZZ=            -68.6945
 XXYZ=              0.0728 YYXZ=             -0.0065 ZZXY=             -9.1949
 N-N= 6.724820926666D+02 E-N=-2.436905026973D+03  KE= 4.700735738006D+02
 No NMR shielding tensors so no spin-rotation constants.
 Leave Link  601 at Thu Aug 29 20:24:45 2019, MaxMem=   280000000 cpu:               0.7 elap:               0.1
 (Enter /home/soft/g16/l9999.exe)
 1\1\GINC-NODE18\SP\RHF\6-31G(d)\C12H26\ROOT\29-Aug-2019\0\\#p hf/6-31g
 (d) 5d 7f nosymm\\Atom number=38\\0,1\C,0,-0.638038,0.422037,0.00011\C
 ,0,-1.918178,-0.415658,-0.000065\C,0,-3.194218,0.428261,-0.000059\C,0,
 -4.474353,-0.409444,-0.000063\C,0,-5.750393,0.434477,-0.000044\C,0,-7.
 030525,-0.40323,0.00003\C,0,-8.306562,0.440692,-0.00019\C,0,-9.586689,
 -0.397022,0.000053\C,0,-10.862723,0.446905,-0.000154\C,0,-12.142844,-0
 .390814,0.000168\C,0,-13.418867,0.453124,-0.00028\C,0,-14.698968,-0.38
 4621,0.000211\H,0,0.25443193,-0.16821497,-0.00007115\H,0,-15.59142625,
 0.20564858,-0.00009324\H,0,-14.700574,-1.037926,0.871197\H,0,-4.475936
 ,-1.063266,0.870548\H,0,-0.636465,1.076076,-0.870338\H,0,-0.636417,1.0
 75615,0.870904\H,0,-1.919713,-1.069374,-0.870755\H,0,-1.919821,-1.0695
 58,0.870487\H,0,-3.192634,1.082072,0.87056\H,0,-3.192634,1.082069,-0.8
 70681\H,0,-4.475948,-1.063238,-0.870696\H,0,-5.748833,1.088263,-0.8706
 82\H,0,-5.748776,1.088306,0.870562\H,0,-7.032066,-1.05719,-0.870476\H,
 0,-7.032158,-1.056883,0.870768\H,0,-8.304973,1.094747,0.870246\H,0,-8.
 304988,1.094252,-0.870997\H,0,-9.588293,-1.051059,-0.870396\H,0,-9.588
 266,-1.050596,0.87085\H,0,-10.861174,1.100442,-0.870978\H,0,-10.861102
 ,1.100977,0.870268\H,0,-12.144398,-1.045015,-0.870156\H,0,-12.144475,-
 1.044215,0.871092\H,0,-13.417282,1.107415,0.869976\H,0,-13.417312,1.10
 6429,-0.871276\H,0,-14.700616,-1.038881,-0.870057\\Version=ES64L-G16Re
 vA.03\HF=-469.5724905\RMSD=4.464e-09\Dipole=-0.00002,0.0000013,-0.0000
 133\Quadrupole=-1.4654732,-0.2261793,1.6916525,-0.6675951,0.0002983,0.
 0003779\PG=C01 [X(C12H26)]\\@


 IF AT FIRST YOU DON'T SUCCEED, TRY, TRY AGAIN.
 THEN GIVE UP;
 THERE'S NO USE BEING A DAMN FOOL ABOUT IT.

                                 -- W. C. FIELDS
 Job cpu time:       0 days  0 hours  0 minutes 36.5 seconds.
 Elapsed time:       0 days  0 hours  0 minutes  6.3 seconds.
 File lengths (MBytes):  RWF=     88 Int=      0 D2E=      0 Chk=      8 Scr=      8
 Normal termination of Gaussian 16 at Thu Aug 29 20:24:45 2019.
