 Entering Gaussian System, Link 0=g16
 Input=32ane_11.gjf
 Output=32ane_11.log
 Initial command:
 /home/soft/g16/l1.exe "/tmp/liwei01/gaussian/liaokang/Gau-200194.inp" -scrdir="/tmp/liwei01/gaussian/liaokang/"
 Entering Link 1 = /home/soft/g16/l1.exe PID=    200195.
  
 Copyright (c) 1988,1990,1992,1993,1995,1998,2003,2009,2016,
            Gaussian, Inc.  All Rights Reserved.
  
 This is part of the Gaussian(R) 16 program.  It is based on
 the Gaussian(R) 09 system (copyright 2009, Gaussian, Inc.),
 the Gaussian(R) 03 system (copyright 2003, Gaussian, Inc.),
 the Gaussian(R) 98 system (copyright 1998, Gaussian, Inc.),
 the Gaussian(R) 94 system (copyright 1995, Gaussian, Inc.),
 the Gaussian 92(TM) system (copyright 1992, Gaussian, Inc.),
 the Gaussian 90(TM) system (copyright 1990, Gaussian, Inc.),
 the Gaussian 88(TM) system (copyright 1988, Gaussian, Inc.),
 the Gaussian 86(TM) system (copyright 1986, Carnegie Mellon
 University), and the Gaussian 82(TM) system (copyright 1983,
 Carnegie Mellon University). Gaussian is a federally registered
 trademark of Gaussian, Inc.
  
 This software contains proprietary and confidential information,
 including trade secrets, belonging to Gaussian, Inc.
  
 This software is provided under written license and may be
 used, copied, transmitted, or stored only in accord with that
 written license.
  
 The following legend is applicable only to US Government
 contracts under FAR:
  
                    RESTRICTED RIGHTS LEGEND
  
 Use, reproduction and disclosure by the US Government is
 subject to restrictions as set forth in subparagraphs (a)
 and (c) of the Commercial Computer Software - Restricted
 Rights clause in FAR 52.227-19.
  
 Gaussian, Inc.
 340 Quinnipiac St., Bldg. 40, Wallingford CT 06492
  
  
 ---------------------------------------------------------------
 Warning -- This program may not be used in any manner that
 competes with the business of Gaussian, Inc. or will provide
 assistance to any competitor of Gaussian, Inc.  The licensee
 of this program is prohibited from giving any competitor of
 Gaussian, Inc. access to this program.  By using this program,
 the user acknowledges that Gaussian, Inc. is engaged in the
 business of creating and licensing software in the field of
 computational chemistry and represents and warrants to the
 licensee that it is not a competitor of Gaussian, Inc. and that
 it will not use this program in any manner prohibited above.
 ---------------------------------------------------------------
  

 Cite this work as:
 Gaussian 16, Revision A.03,
 M. J. Frisch, G. W. Trucks, H. B. Schlegel, G. E. Scuseria, 
 M. A. Robb, J. R. Cheeseman, G. Scalmani, V. Barone, 
 G. A. Petersson, H. Nakatsuji, X. Li, M. Caricato, A. V. Marenich, 
 J. Bloino, B. G. Janesko, R. Gomperts, B. Mennucci, H. P. Hratchian, 
 J. V. Ortiz, A. F. Izmaylov, J. L. Sonnenberg, D. Williams-Young, 
 F. Ding, F. Lipparini, F. Egidi, J. Goings, B. Peng, A. Petrone, 
 T. Henderson, D. Ranasinghe, V. G. Zakrzewski, J. Gao, N. Rega, 
 G. Zheng, W. Liang, M. Hada, M. Ehara, K. Toyota, R. Fukuda, 
 J. Hasegawa, M. Ishida, T. Nakajima, Y. Honda, O. Kitao, H. Nakai, 
 T. Vreven, K. Throssell, J. A. Montgomery, Jr., J. E. Peralta, 
 F. Ogliaro, M. J. Bearpark, J. J. Heyd, E. N. Brothers, K. N. Kudin, 
 V. N. Staroverov, T. A. Keith, R. Kobayashi, J. Normand, 
 K. Raghavachari, A. P. Rendell, J. C. Burant, S. S. Iyengar, 
 J. Tomasi, M. Cossi, J. M. Millam, M. Klene, C. Adamo, R. Cammi, 
 J. W. Ochterski, R. L. Martin, K. Morokuma, O. Farkas, 
 J. B. Foresman, and D. J. Fox, Gaussian, Inc., Wallingford CT, 2016.
 
 ******************************************
 Gaussian 16:  ES64L-G16RevA.03 25-Dec-2016
                29-Aug-2019 
 ******************************************
 %chk=32ane_11.chk
 %nproc=6
 Will use up to    6 processors via shared memory.
 ---------------------------
 #p hf/6-31g(d) 5d 7f nosymm
 ---------------------------
 1/38=1,172=1/1;
 2/12=2,15=1,17=6,18=5,40=1/2;
 3/5=1,6=6,7=1,8=11,11=9,25=1,30=1/1,2,3;
 4//1;
 5/5=2,38=5/2;
 6/7=2,8=2,9=2,10=2,28=1/1;
 99/5=1,9=1/99;
 Leave Link    1 at Thu Aug 29 20:24:46 2019, MaxMem=           0 cpu:               0.3 elap:               0.1
 (Enter /home/soft/g16/l101.exe)
 --------------
 Atom number=26
 --------------
 Symbolic Z-matrix:
 Charge =  0 Multiplicity = 1
 c                    -5.75039   0.43448  -0.00004 
 c                    -7.03052  -0.40323   0.00003 
 c                    -8.30656   0.44069  -0.00019 
 c                    -9.58669  -0.39702   0.00005 
 c                    -10.86272   0.44691  -0.00015 
 c                    -12.14284  -0.39081   0.00017 
 c                    -13.41887   0.45312  -0.00028 
 c                    -14.69897  -0.38462   0.00021 
 h                    -4.85792  -0.15577  -0.00006 
 h                    -15.59143   0.20565  -0.00009 
 h                    -14.70057  -1.03793   0.8712 
 h                    -5.74883   1.08826  -0.87068 
 h                    -5.74878   1.08831   0.87056 
 h                    -7.03207  -1.05719  -0.87048 
 h                    -7.03216  -1.05688   0.87077 
 h                    -8.30497   1.09475   0.87025 
 h                    -8.30499   1.09425  -0.871 
 h                    -9.58829  -1.05106  -0.8704 
 h                    -9.58827  -1.0506    0.87085 
 h                    -10.86117   1.10044  -0.87098 
 h                    -10.8611   1.10098   0.87027 
 h                    -12.1444  -1.04502  -0.87016 
 h                    -12.14447  -1.04422   0.87109 
 h                    -13.41728   1.10742   0.86998 
 h                    -13.41731   1.10643  -0.87128 
 h                    -14.70062  -1.03888  -0.87006 
 
 ITRead=  0  0  0  0  0  0  0  0  0  0  0  0  0  0  0  0  0  0  0  0
 ITRead=  0  0  0  0  0  0
 MicOpt= -1 -1 -1 -1 -1 -1 -1 -1 -1 -1 -1 -1 -1 -1 -1 -1 -1 -1 -1 -1
 MicOpt= -1 -1 -1 -1 -1 -1
 NAtoms=     26 NQM=       26 NQMF=       0 NMMI=      0 NMMIF=      0
                NMic=       0 NMicF=      0.
                    Isotopes and Nuclear Properties:
 (Nuclear quadrupole moments (NQMom) in fm**2, nuclear magnetic moments (NMagM)
  in nuclear magnetons)

  Atom         1           2           3           4           5           6           7           8           9          10
 IAtWgt=          12          12          12          12          12          12          12          12           1           1
 AtmWgt=  12.0000000  12.0000000  12.0000000  12.0000000  12.0000000  12.0000000  12.0000000  12.0000000   1.0078250   1.0078250
 NucSpn=           0           0           0           0           0           0           0           0           1           1
 AtZEff=  -0.0000000  -0.0000000  -0.0000000  -0.0000000  -0.0000000  -0.0000000  -0.0000000  -0.0000000  -0.0000000  -0.0000000
 NQMom=    0.0000000   0.0000000   0.0000000   0.0000000   0.0000000   0.0000000   0.0000000   0.0000000   0.0000000   0.0000000
 NMagM=    0.0000000   0.0000000   0.0000000   0.0000000   0.0000000   0.0000000   0.0000000   0.0000000   2.7928460   2.7928460
 AtZNuc=   6.0000000   6.0000000   6.0000000   6.0000000   6.0000000   6.0000000   6.0000000   6.0000000   1.0000000   1.0000000

  Atom        11          12          13          14          15          16          17          18          19          20
 IAtWgt=           1           1           1           1           1           1           1           1           1           1
 AtmWgt=   1.0078250   1.0078250   1.0078250   1.0078250   1.0078250   1.0078250   1.0078250   1.0078250   1.0078250   1.0078250
 NucSpn=           1           1           1           1           1           1           1           1           1           1
 AtZEff=  -0.0000000  -0.0000000  -0.0000000  -0.0000000  -0.0000000  -0.0000000  -0.0000000  -0.0000000  -0.0000000  -0.0000000
 NQMom=    0.0000000   0.0000000   0.0000000   0.0000000   0.0000000   0.0000000   0.0000000   0.0000000   0.0000000   0.0000000
 NMagM=    2.7928460   2.7928460   2.7928460   2.7928460   2.7928460   2.7928460   2.7928460   2.7928460   2.7928460   2.7928460
 AtZNuc=   1.0000000   1.0000000   1.0000000   1.0000000   1.0000000   1.0000000   1.0000000   1.0000000   1.0000000   1.0000000

  Atom        21          22          23          24          25          26
 IAtWgt=           1           1           1           1           1           1
 AtmWgt=   1.0078250   1.0078250   1.0078250   1.0078250   1.0078250   1.0078250
 NucSpn=           1           1           1           1           1           1
 AtZEff=  -0.0000000  -0.0000000  -0.0000000  -0.0000000  -0.0000000  -0.0000000
 NQMom=    0.0000000   0.0000000   0.0000000   0.0000000   0.0000000   0.0000000
 NMagM=    2.7928460   2.7928460   2.7928460   2.7928460   2.7928460   2.7928460
 AtZNuc=   1.0000000   1.0000000   1.0000000   1.0000000   1.0000000   1.0000000
 Leave Link  101 at Thu Aug 29 20:24:46 2019, MaxMem=   280000000 cpu:               0.5 elap:               0.1
 (Enter /home/soft/g16/l202.exe)
                          Input orientation:                          
 ---------------------------------------------------------------------
 Center     Atomic      Atomic             Coordinates (Angstroms)
 Number     Number       Type             X           Y           Z
 ---------------------------------------------------------------------
      1          6           0       -5.750393    0.434477   -0.000044
      2          6           0       -7.030525   -0.403230    0.000030
      3          6           0       -8.306562    0.440692   -0.000190
      4          6           0       -9.586689   -0.397022    0.000053
      5          6           0      -10.862723    0.446905   -0.000154
      6          6           0      -12.142844   -0.390814    0.000168
      7          6           0      -13.418867    0.453124   -0.000280
      8          6           0      -14.698968   -0.384621    0.000211
      9          1           0       -4.857919   -0.155769   -0.000057
     10          1           0      -15.591426    0.205649   -0.000093
     11          1           0      -14.700574   -1.037926    0.871197
     12          1           0       -5.748833    1.088263   -0.870682
     13          1           0       -5.748776    1.088306    0.870562
     14          1           0       -7.032066   -1.057190   -0.870476
     15          1           0       -7.032158   -1.056883    0.870768
     16          1           0       -8.304973    1.094747    0.870246
     17          1           0       -8.304988    1.094252   -0.870997
     18          1           0       -9.588293   -1.051059   -0.870396
     19          1           0       -9.588266   -1.050596    0.870850
     20          1           0      -10.861174    1.100442   -0.870978
     21          1           0      -10.861102    1.100977    0.870268
     22          1           0      -12.144398   -1.045015   -0.870156
     23          1           0      -12.144475   -1.044215    0.871092
     24          1           0      -13.417282    1.107415    0.869976
     25          1           0      -13.417312    1.106429   -0.871276
     26          1           0      -14.700616   -1.038881   -0.870057
 ---------------------------------------------------------------------
                    Distance matrix (angstroms):
                    1          2          3          4          5
     1  C    0.000000
     2  C    1.529866   0.000000
     3  C    2.556177   1.529861   0.000000
     4  C    3.925374   2.556172   1.529866   0.000000
     5  C    5.112345   3.925363   2.556169   1.529861   0.000000
     6  C    6.445505   5.112334   3.925361   2.556163   1.529864
     7  C    7.668497   6.445483   5.112320   3.925345   2.556152
     8  C    8.985984   7.668466   6.445463   5.112294   3.925329
     9  H    1.070000   2.186653   3.499843   4.734920   6.034972
    10  H    9.843693   8.582527   7.288655   6.034905   4.734854
    11  H    9.112232   7.745413   6.620349   5.226994   4.206314
    12  H    1.088783   2.150680   2.778324   4.206351   5.226952
    13  H    1.088784   2.150671   2.778468   4.206372   5.227045
    14  H    2.150676   1.088782   2.150672   2.778442   4.206387
    15  H    2.150672   1.088784   2.150675   2.778343   4.206318
    16  H    2.778352   2.150681   1.088783   2.150676   2.778377
    17  H    2.778456   2.150673   1.088783   2.150671   2.778387
    18  H    4.206401   2.778399   2.150678   1.088783   2.150672
    19  H    4.206325   2.778390   2.150678   1.088783   2.150674
    20  H    5.227056   4.206371   2.778414   2.150676   1.088783
    21  H    5.226951   4.206337   2.778371   2.150675   1.088782
    22  H    6.620369   5.226931   4.206323   2.778315   2.150679
    23  H    6.620400   5.227054   4.206383   2.778459   2.150674
    24  H    7.745384   6.620387   5.226965   4.206369   2.778340
    25  H    7.745464   6.620370   5.227022   4.206335   2.778444
    26  H    9.112310   7.745412   6.620403   5.226980   4.206390
                    6          7          8          9         10
     6  C    0.000000
     7  C    1.529858   0.000000
     8  C    2.556132   1.529861   0.000000
     9  H    7.288716   8.582574   9.843710   0.000000
    10  H    3.499784   2.186609   1.070000  10.739590   0.000000
    11  H    2.778386   2.150692   1.088773   9.920441   1.760466
    12  H    6.620380   7.745348   9.112231   1.760492   9.920362
    13  H    6.620384   7.745458   9.112242   1.760490   9.920428
    14  H    5.227057   6.620386   7.745439   2.509403   8.695687
    15  H    5.226921   6.620340   7.745307   2.509513   8.695600
    16  H    4.206326   5.226988   6.620322   3.768740   7.391914
    17  H    4.206363   5.226945   6.620351   3.768736   7.391906
    18  H    2.778405   4.206301   5.226958   4.892389   6.194703
    19  H    2.778357   4.206370   5.226931   4.892379   6.194726
    20  H    2.150678   2.778296   4.206310   6.194807   4.892278
    21  H    2.150669   2.778440   4.206330   6.194762   4.892352
    22  H    1.088782   2.150669   2.778396   7.391928   3.768710
    23  H    1.088781   2.150672   2.778297   7.392032   3.768633
    24  H    2.150686   1.088781   2.150670   8.695705   2.509404
    25  H    2.150679   1.088781   2.150665   8.695710   2.509410
    26  H    2.778395   2.150691   1.088772   9.920457   1.760464
                   11         12         13         14         15
    11  H    0.000000
    12  H    9.364213   0.000000
    13  H    9.200845   1.741244   0.000000
    14  H    7.863829   2.499931   3.046506   0.000000
    15  H    7.668439   3.046510   2.499781   1.741244   0.000000
    16  H    6.741810   3.092689   2.556205   3.046512   2.499914
    17  H    6.963113   2.556162   3.093102   2.499807   3.046510
    18  H    5.400809   4.395242   4.727548   2.556234   3.092816
    19  H    5.112324   4.727462   4.395064   3.092963   2.556116
    20  H    4.727450   5.112356   5.400900   4.395161   4.727483
    21  H    4.395049   5.400589   5.112342   4.727514   4.395131
    22  H    3.092959   6.741968   6.963127   5.112347   5.400551
    23  H    2.556107   6.963151   6.741855   5.400922   5.112333
    24  H    2.499866   7.863547   7.668530   6.963165   6.741958
    25  H    3.046511   7.668501   7.863890   6.741855   6.963105
    26  H    1.741254   9.201041   9.364300   7.668572   7.863590
                   16         17         18         19         20
    16  H    0.000000
    17  H    1.741243   0.000000
    18  H    3.046511   2.499846   0.000000
    19  H    2.499868   3.046507   1.741246   0.000000
    20  H    3.092904   2.556193   2.499837   3.046510   0.000000
    21  H    2.556137   3.092858   3.046508   2.499876   1.741246
    22  H    4.727448   4.395172   2.556112   3.092724   2.499930
    23  H    4.395103   4.727534   3.093040   2.556217   3.046510
    24  H    5.112325   5.400621   4.727479   4.395267   3.092678
    25  H    5.400837   5.112339   4.395013   4.727510   2.556145
    26  H    6.963137   6.741982   5.112338   5.400650   4.395227
                   21         22         23         24         25
    21  H    0.000000
    22  H    3.046507   0.000000
    23  H    2.499779   1.741248   0.000000
    24  H    2.556188   3.046514   2.499910   0.000000
    25  H    3.093091   2.499805   3.046511   1.741252   0.000000
    26  H    4.727535   2.556225   3.092812   3.046514   2.499845
                   26
    26  H    0.000000
 Symmetry turned off by external request.
 Stoichiometry    C8H18
 Framework group  C1[X(C8H18)]
 Deg. of freedom    72
 Full point group                 C1      NOp   1
 Rotational constants (GHZ):          10.8431697           0.4891869           0.4789130
 Leave Link  202 at Thu Aug 29 20:24:46 2019, MaxMem=   280000000 cpu:               0.1 elap:               0.0
 (Enter /home/soft/g16/l301.exe)
 Standard basis: 6-31G(d) (5D, 7F)
 Ernie: Thresh=  0.10000D-02 Tol=  0.10000D-05 Strict=F.
   148 basis functions,   296 primitive gaussians,   156 cartesian basis functions
    33 alpha electrons       33 beta electrons
       nuclear repulsion energy       375.1515361266 Hartrees.
 IExCor=    0 DFT=F Ex=HF Corr=None ExCW=0 ScaHFX=  1.000000
 ScaDFX=  1.000000  1.000000  1.000000  1.000000 ScalE2=  1.000000  1.000000
 IRadAn=      5 IRanWt=     -1 IRanGd=            0 ICorTp=0 IEmpDi=  4
 NAtoms=   26 NActive=   26 NUniq=   26 SFac= 1.00D+00 NAtFMM=   60 NAOKFM=F Big=F
 Integral buffers will be    131072 words long.
 Raffenetti 1 integral format.
 Two-electron integral symmetry is turned off.
 Leave Link  301 at Thu Aug 29 20:24:46 2019, MaxMem=   280000000 cpu:               0.3 elap:               0.1
 (Enter /home/soft/g16/l302.exe)
 NPDir=0 NMtPBC=     1 NCelOv=     1 NCel=       1 NClECP=     1 NCelD=      1
         NCelK=      1 NCelE2=     1 NClLst=     1 CellRange=     0.0.
 One-electron integrals computed using PRISM.
 NBasis=   148 RedAO= T EigKep=  2.99D-03  NBF=   148
 NBsUse=   148 1.00D-06 EigRej= -1.00D+00 NBFU=   148
 Leave Link  302 at Thu Aug 29 20:24:46 2019, MaxMem=   280000000 cpu:               0.6 elap:               0.1
 (Enter /home/soft/g16/l303.exe)
 DipDrv:  MaxL=1.
 Leave Link  303 at Thu Aug 29 20:24:46 2019, MaxMem=   280000000 cpu:               0.2 elap:               0.0
 (Enter /home/soft/g16/l401.exe)
 ExpMin= 1.61D-01 ExpMax= 3.05D+03 ExpMxC= 4.57D+02 IAcc=3 IRadAn=         5 AccDes= 0.00D+00
 Harris functional with IExCor=  205 and IRadAn=       5 diagonalized for initial guess.
 HarFok:  IExCor=  205 AccDes= 0.00D+00 IRadAn=         5 IDoV= 1 UseB2=F ITyADJ=14
 ICtDFT=  3500011 ScaDFX=  1.000000  1.000000  1.000000  1.000000
 FoFCou: FMM=F IPFlag=           0 FMFlag=      100000 FMFlg1=           0
         NFxFlg=           0 DoJE=T BraDBF=F KetDBF=T FulRan=T
         wScrn=  0.000000 ICntrl=       500 IOpCl=  0 I1Cent=   200000004 NGrid=           0
         NMat0=    1 NMatS0=      1 NMatT0=    0 NMatD0=    1 NMtDS0=    0 NMtDT0=    0
 Symmetry not used in FoFCou.
 Harris En= -314.305278794189    
 JPrj=0 DoOrth=F DoCkMO=F.
 Leave Link  401 at Thu Aug 29 20:24:47 2019, MaxMem=   280000000 cpu:               4.5 elap:               0.8
 (Enter /home/soft/g16/l502.exe)
 Keep R1 ints in memory in canonical form, NReq=62727728.
 FoFCou: FMM=F IPFlag=           0 FMFlag=           0 FMFlg1=           0
         NFxFlg=           0 DoJE=F BraDBF=F KetDBF=F FulRan=T
         wScrn=  0.000000 ICntrl=       600 IOpCl=  0 I1Cent=           0 NGrid=           0
         NMat0=    1 NMatS0=  11026 NMatT0=    0 NMatD0=    1 NMtDS0=    0 NMtDT0=    0
 Symmetry not used in FoFCou.
 Two-electron integral symmetry not used.
 Closed shell SCF:
 Using DIIS extrapolation, IDIIS=  1040.
 NGot=   280000000 LenX=   219156783 LenY=   219132006
 Requested convergence on RMS density matrix=1.00D-08 within 128 cycles.
 Requested convergence on MAX density matrix=1.00D-06.
 Requested convergence on             energy=1.00D-06.
 No special actions if energy rises.

 Cycle   1  Pass 1  IDiag  1:
 E= -312.897588253700    
 DIIS: error= 6.71D-02 at cycle   1 NSaved=   1.
 NSaved= 1 IEnMin= 1 EnMin= -312.897588253700     IErMin= 1 ErrMin= 6.71D-02
 ErrMax= 6.71D-02  0.00D+00 EMaxC= 1.00D-01 BMatC= 5.30D-01 BMatP= 5.30D-01
 IDIUse=3 WtCom= 3.29D-01 WtEn= 6.71D-01
 Coeff-Com:  0.100D+01
 Coeff-En:   0.100D+01
 Coeff:      0.100D+01
 Gap=     0.645 Goal=   None    Shift=    0.000
 GapD=    0.645 DampG=2.000 DampE=0.500 DampFc=1.0000 IDamp=-1.
 RMSDP=5.92D-03 MaxDP=1.22D-01              OVMax= 1.34D-01

 Cycle   2  Pass 1  IDiag  1:
 E= -313.350565596087     Delta-E=       -0.452977342387 Rises=F Damp=F
 DIIS: error= 2.38D-02 at cycle   2 NSaved=   2.
 NSaved= 2 IEnMin= 2 EnMin= -313.350565596087     IErMin= 2 ErrMin= 2.38D-02
 ErrMax= 2.38D-02  0.00D+00 EMaxC= 1.00D-01 BMatC= 8.49D-02 BMatP= 5.30D-01
 IDIUse=3 WtCom= 7.62D-01 WtEn= 2.38D-01
 Coeff-Com:  0.258D+00 0.742D+00
 Coeff-En:   0.000D+00 0.100D+01
 Coeff:      0.196D+00 0.804D+00
 Gap=     0.675 Goal=   None    Shift=    0.000
 RMSDP=2.03D-03 MaxDP=3.21D-02 DE=-4.53D-01 OVMax= 4.47D-02

 Cycle   3  Pass 1  IDiag  1:
 E= -313.432000667439     Delta-E=       -0.081435071353 Rises=F Damp=F
 DIIS: error= 4.17D-03 at cycle   3 NSaved=   3.
 NSaved= 3 IEnMin= 3 EnMin= -313.432000667439     IErMin= 3 ErrMin= 4.17D-03
 ErrMax= 4.17D-03  0.00D+00 EMaxC= 1.00D-01 BMatC= 1.91D-03 BMatP= 8.49D-02
 IDIUse=3 WtCom= 9.58D-01 WtEn= 4.17D-02
 Coeff-Com: -0.306D-01 0.626D-01 0.968D+00
 Coeff-En:   0.000D+00 0.000D+00 0.100D+01
 Coeff:     -0.293D-01 0.599D-01 0.969D+00
 Gap=     0.655 Goal=   None    Shift=    0.000
 RMSDP=2.98D-04 MaxDP=6.62D-03 DE=-8.14D-02 OVMax= 8.28D-03

 Cycle   4  Pass 1  IDiag  1:
 E= -313.434338673921     Delta-E=       -0.002338006482 Rises=F Damp=F
 DIIS: error= 6.27D-04 at cycle   4 NSaved=   4.
 NSaved= 4 IEnMin= 4 EnMin= -313.434338673921     IErMin= 4 ErrMin= 6.27D-04
 ErrMax= 6.27D-04  0.00D+00 EMaxC= 1.00D-01 BMatC= 3.92D-05 BMatP= 1.91D-03
 IDIUse=3 WtCom= 9.94D-01 WtEn= 6.27D-03
 Coeff-Com: -0.121D-02-0.191D-01-0.633D-01 0.108D+01
 Coeff-En:   0.000D+00 0.000D+00 0.000D+00 0.100D+01
 Coeff:     -0.120D-02-0.190D-01-0.629D-01 0.108D+01
 Gap=     0.656 Goal=   None    Shift=    0.000
 RMSDP=7.26D-05 MaxDP=1.15D-03 DE=-2.34D-03 OVMax= 1.91D-03

 Cycle   5  Pass 1  IDiag  1:
 E= -313.434402940117     Delta-E=       -0.000064266196 Rises=F Damp=F
 DIIS: error= 2.14D-04 at cycle   5 NSaved=   5.
 NSaved= 5 IEnMin= 5 EnMin= -313.434402940117     IErMin= 5 ErrMin= 2.14D-04
 ErrMax= 2.14D-04  0.00D+00 EMaxC= 1.00D-01 BMatC= 4.67D-06 BMatP= 3.92D-05
 IDIUse=3 WtCom= 9.98D-01 WtEn= 2.14D-03
 Coeff-Com:  0.214D-02-0.934D-02-0.883D-01 0.214D+00 0.881D+00
 Coeff-En:   0.000D+00 0.000D+00 0.000D+00 0.000D+00 0.100D+01
 Coeff:      0.214D-02-0.932D-02-0.881D-01 0.214D+00 0.882D+00
 Gap=     0.657 Goal=   None    Shift=    0.000
 RMSDP=2.07D-05 MaxDP=3.47D-04 DE=-6.43D-05 OVMax= 5.00D-04

 Cycle   6  Pass 1  IDiag  1:
 E= -313.434409257560     Delta-E=       -0.000006317443 Rises=F Damp=F
 DIIS: error= 2.55D-05 at cycle   6 NSaved=   6.
 NSaved= 6 IEnMin= 6 EnMin= -313.434409257560     IErMin= 6 ErrMin= 2.55D-05
 ErrMax= 2.55D-05  0.00D+00 EMaxC= 1.00D-01 BMatC= 9.17D-08 BMatP= 4.67D-06
 IDIUse=1 WtCom= 1.00D+00 WtEn= 0.00D+00
 Coeff-Com:  0.205D-03-0.112D-03-0.409D-02-0.312D-01 0.563D-01 0.979D+00
 Coeff:      0.205D-03-0.112D-03-0.409D-02-0.312D-01 0.563D-01 0.979D+00
 Gap=     0.657 Goal=   None    Shift=    0.000
 RMSDP=4.36D-06 MaxDP=6.57D-05 DE=-6.32D-06 OVMax= 9.90D-05

 Cycle   7  Pass 1  IDiag  1:
 E= -313.434409415787     Delta-E=       -0.000000158227 Rises=F Damp=F
 DIIS: error= 5.36D-06 at cycle   7 NSaved=   7.
 NSaved= 7 IEnMin= 7 EnMin= -313.434409415787     IErMin= 7 ErrMin= 5.36D-06
 ErrMax= 5.36D-06  0.00D+00 EMaxC= 1.00D-01 BMatC= 3.71D-09 BMatP= 9.17D-08
 IDIUse=1 WtCom= 1.00D+00 WtEn= 0.00D+00
 Coeff-Com: -0.441D-04 0.248D-03 0.233D-02-0.816D-02-0.228D-01 0.464D-01
 Coeff-Com:  0.982D+00
 Coeff:     -0.441D-04 0.248D-03 0.233D-02-0.816D-02-0.228D-01 0.464D-01
 Coeff:      0.982D+00
 Gap=     0.657 Goal=   None    Shift=    0.000
 RMSDP=8.94D-07 MaxDP=1.36D-05 DE=-1.58D-07 OVMax= 2.30D-05

 Cycle   8  Pass 1  IDiag  1:
 E= -313.434409422137     Delta-E=       -0.000000006349 Rises=F Damp=F
 DIIS: error= 1.90D-06 at cycle   8 NSaved=   8.
 NSaved= 8 IEnMin= 8 EnMin= -313.434409422137     IErMin= 8 ErrMin= 1.90D-06
 ErrMax= 1.90D-06  0.00D+00 EMaxC= 1.00D-01 BMatC= 3.78D-10 BMatP= 3.71D-09
 IDIUse=1 WtCom= 1.00D+00 WtEn= 0.00D+00
 Coeff-Com: -0.175D-04 0.319D-04 0.536D-03 0.143D-02-0.623D-02-0.679D-01
 Coeff-Com:  0.109D+00 0.963D+00
 Coeff:     -0.175D-04 0.319D-04 0.536D-03 0.143D-02-0.623D-02-0.679D-01
 Coeff:      0.109D+00 0.963D+00
 Gap=     0.657 Goal=   None    Shift=    0.000
 RMSDP=2.82D-07 MaxDP=3.88D-06 DE=-6.35D-09 OVMax= 7.01D-06

 Cycle   9  Pass 1  IDiag  1:
 E= -313.434409422817     Delta-E=       -0.000000000680 Rises=F Damp=F
 DIIS: error= 4.38D-07 at cycle   9 NSaved=   9.
 NSaved= 9 IEnMin= 9 EnMin= -313.434409422817     IErMin= 9 ErrMin= 4.38D-07
 ErrMax= 4.38D-07  0.00D+00 EMaxC= 1.00D-01 BMatC= 2.37D-11 BMatP= 3.78D-10
 IDIUse=1 WtCom= 1.00D+00 WtEn= 0.00D+00
 Coeff-Com:  0.428D-05-0.201D-04-0.204D-03 0.496D-03 0.221D-02 0.144D-02
 Coeff-Com: -0.792D-01-0.734D-01 0.115D+01
 Coeff:      0.428D-05-0.201D-04-0.204D-03 0.496D-03 0.221D-02 0.144D-02
 Coeff:     -0.792D-01-0.734D-01 0.115D+01
 Gap=     0.657 Goal=   None    Shift=    0.000
 RMSDP=8.95D-08 MaxDP=1.41D-06 DE=-6.80D-10 OVMax= 2.75D-06

 Cycle  10  Pass 1  IDiag  1:
 E= -313.434409422879     Delta-E=       -0.000000000062 Rises=F Damp=F
 DIIS: error= 6.94D-08 at cycle  10 NSaved=  10.
 NSaved=10 IEnMin=10 EnMin= -313.434409422879     IErMin=10 ErrMin= 6.94D-08
 ErrMax= 6.94D-08  0.00D+00 EMaxC= 1.00D-01 BMatC= 1.08D-12 BMatP= 2.37D-11
 IDIUse=1 WtCom= 1.00D+00 WtEn= 0.00D+00
 Coeff-Com:  0.697D-06-0.757D-06-0.213D-04-0.116D-03 0.274D-03 0.415D-02
 Coeff-Com: -0.260D-02-0.558D-01-0.549D-01 0.111D+01
 Coeff:      0.697D-06-0.757D-06-0.213D-04-0.116D-03 0.274D-03 0.415D-02
 Coeff:     -0.260D-02-0.558D-01-0.549D-01 0.111D+01
 Gap=     0.657 Goal=   None    Shift=    0.000
 RMSDP=1.82D-08 MaxDP=2.67D-07 DE=-6.21D-11 OVMax= 5.31D-07

 Cycle  11  Pass 1  IDiag  1:
 E= -313.434409422883     Delta-E=       -0.000000000004 Rises=F Damp=F
 DIIS: error= 1.74D-08 at cycle  11 NSaved=  11.
 NSaved=11 IEnMin=11 EnMin= -313.434409422883     IErMin=11 ErrMin= 1.74D-08
 ErrMax= 1.74D-08  0.00D+00 EMaxC= 1.00D-01 BMatC= 6.13D-14 BMatP= 1.08D-12
 IDIUse=1 WtCom= 1.00D+00 WtEn= 0.00D+00
 Coeff-Com: -0.105D-06 0.783D-06 0.592D-05-0.298D-04-0.654D-04 0.323D-03
 Coeff-Com:  0.297D-02-0.222D-02-0.495D-01 0.991D-01 0.949D+00
 Coeff:     -0.105D-06 0.783D-06 0.592D-05-0.298D-04-0.654D-04 0.323D-03
 Coeff:      0.297D-02-0.222D-02-0.495D-01 0.991D-01 0.949D+00
 Gap=     0.657 Goal=   None    Shift=    0.000
 RMSDP=2.71D-09 MaxDP=4.66D-08 DE=-4.32D-12 OVMax= 8.78D-08

 SCF Done:  E(RHF) =  -313.434409423     A.U. after   11 cycles
            NFock= 11  Conv=0.27D-08     -V/T= 1.9989
 KE= 3.137848690191D+02 PE=-1.479009576488D+03 EE= 4.766387619193D+02
 Leave Link  502 at Thu Aug 29 20:24:48 2019, MaxMem=   280000000 cpu:               5.4 elap:               1.6
 (Enter /home/soft/g16/l601.exe)
 Copying SCF densities to generalized density rwf, IOpCl= 0 IROHF=0.

 **********************************************************************

            Population analysis using the SCF density.

 **********************************************************************

 Alpha  occ. eigenvalues --  -11.20997 -11.20997 -11.20880 -11.20859 -11.20822
 Alpha  occ. eigenvalues --  -11.20784 -11.20231 -11.20230  -1.09112  -1.06137
 Alpha  occ. eigenvalues --   -1.01351  -0.95098  -0.87953  -0.81431  -0.78745
 Alpha  occ. eigenvalues --   -0.78486  -0.65717  -0.63069  -0.59944  -0.59081
 Alpha  occ. eigenvalues --   -0.57811  -0.56729  -0.54470  -0.53194  -0.50193
 Alpha  occ. eigenvalues --   -0.49751  -0.49198  -0.47229  -0.46654  -0.45961
 Alpha  occ. eigenvalues --   -0.45810  -0.45578  -0.42857
 Alpha virt. eigenvalues --    0.22822   0.23895   0.25713   0.26335   0.27080
 Alpha virt. eigenvalues --    0.29450   0.29604   0.30288   0.32635   0.33500
 Alpha virt. eigenvalues --    0.33519   0.34467   0.34903   0.35326   0.35604
 Alpha virt. eigenvalues --    0.35872   0.37214   0.37735   0.38161   0.40397
 Alpha virt. eigenvalues --    0.41895   0.42266   0.47247   0.49521   0.49895
 Alpha virt. eigenvalues --    0.68443   0.69013   0.70404   0.75257   0.75554
 Alpha virt. eigenvalues --    0.76538   0.77113   0.78642   0.82635   0.82825
 Alpha virt. eigenvalues --    0.84751   0.86131   0.93031   0.94630   0.97232
 Alpha virt. eigenvalues --    0.97333   0.98982   1.02146   1.04455   1.09190
 Alpha virt. eigenvalues --    1.10963   1.11767   1.12252   1.14418   1.14701
 Alpha virt. eigenvalues --    1.18114   1.18440   1.19710   1.20334   1.20357
 Alpha virt. eigenvalues --    1.22232   1.22306   1.22554   1.22681   1.23192
 Alpha virt. eigenvalues --    1.23635   1.24147   1.25889   1.26119   1.27835
 Alpha virt. eigenvalues --    1.28445   1.31809   1.46665   1.52665   1.62852
 Alpha virt. eigenvalues --    1.65435   1.69242   1.73006   1.73021   1.76624
 Alpha virt. eigenvalues --    1.77861   1.85097   1.89665   1.98222   1.98569
 Alpha virt. eigenvalues --    2.09115   2.11488   2.19323   2.23116   2.25060
 Alpha virt. eigenvalues --    2.25226   2.25955   2.27932   2.28718   2.29269
 Alpha virt. eigenvalues --    2.31695   2.32565   2.36038   2.37547   2.39408
 Alpha virt. eigenvalues --    2.46081   2.49079   2.56608   2.60481   2.62402
 Alpha virt. eigenvalues --    2.64956   2.66382   2.71925   2.72864   2.73905
 Alpha virt. eigenvalues --    2.79729   2.79938   2.83087   2.92880   2.93492
 Alpha virt. eigenvalues --    3.00497   3.01372   3.08171   3.19092   3.22270
          Condensed to atoms (all electrons):
               1          2          3          4          5          6
     1  C    5.108104   0.342026  -0.055941   0.003930  -0.000079   0.000001
     2  C    0.342026   5.072361   0.354124  -0.052428   0.003882  -0.000072
     3  C   -0.055941   0.354124   5.088762   0.357242  -0.052344   0.003866
     4  C    0.003930  -0.052428   0.357242   5.079624   0.356732  -0.052345
     5  C   -0.000079   0.003882  -0.052344   0.356732   5.079626   0.357241
     6  C    0.000001  -0.000072   0.003866  -0.052345   0.357241   5.088768
     7  C   -0.000000   0.000001  -0.000072   0.003882  -0.052432   0.354123
     8  C    0.000000  -0.000000   0.000001  -0.000079   0.003930  -0.055948
     9  H    0.395856  -0.033563   0.004060  -0.000081   0.000001  -0.000000
    10  H   -0.000000   0.000000  -0.000000   0.000001  -0.000081   0.004061
    11  H   -0.000000  -0.000000  -0.000000  -0.000001  -0.000076  -0.003785
    12  H    0.391720  -0.041278  -0.003785  -0.000076  -0.000001  -0.000000
    13  H    0.391719  -0.041277  -0.003784  -0.000076  -0.000001  -0.000000
    14  H   -0.041154   0.399227  -0.043250  -0.003201  -0.000064  -0.000001
    15  H   -0.041155   0.399229  -0.043253  -0.003202  -0.000064  -0.000001
    16  H   -0.002871  -0.041779   0.396422  -0.041672  -0.003220  -0.000059
    17  H   -0.002871  -0.041776   0.396419  -0.041671  -0.003220  -0.000059
    18  H   -0.000056  -0.003152  -0.041680   0.397147  -0.041661  -0.003217
    19  H   -0.000056  -0.003153  -0.041681   0.397148  -0.041661  -0.003216
    20  H   -0.000000  -0.000057  -0.003216  -0.041661   0.397149  -0.041682
    21  H   -0.000000  -0.000057  -0.003217  -0.041660   0.397147  -0.041679
    22  H    0.000000  -0.000001  -0.000059  -0.003220  -0.041672   0.396423
    23  H    0.000000  -0.000001  -0.000059  -0.003220  -0.041669   0.396421
    24  H   -0.000000   0.000000  -0.000001  -0.000063  -0.003201  -0.043251
    25  H   -0.000000   0.000000  -0.000001  -0.000064  -0.003202  -0.043249
    26  H   -0.000000  -0.000000  -0.000000  -0.000001  -0.000076  -0.003785
               7          8          9         10         11         12
     1  C   -0.000000   0.000000   0.395856  -0.000000  -0.000000   0.391720
     2  C    0.000001  -0.000000  -0.033563   0.000000  -0.000000  -0.041278
     3  C   -0.000072   0.000001   0.004060  -0.000000  -0.000000  -0.003785
     4  C    0.003882  -0.000079  -0.000081   0.000001  -0.000001  -0.000076
     5  C   -0.052432   0.003930   0.000001  -0.000081  -0.000076  -0.000001
     6  C    0.354123  -0.055948  -0.000000   0.004061  -0.003785  -0.000000
     7  C    5.072361   0.342028   0.000000  -0.033568  -0.041274  -0.000000
     8  C    0.342028   5.108107  -0.000000   0.395856   0.391721  -0.000000
     9  H    0.000000  -0.000000   0.522174   0.000000  -0.000000  -0.027153
    10  H   -0.033568   0.395856   0.000000   0.522188  -0.027155  -0.000000
    11  H   -0.041274   0.391721  -0.000000  -0.027155   0.551111   0.000000
    12  H   -0.000000  -0.000000  -0.027153  -0.000000   0.000000   0.551120
    13  H   -0.000000  -0.000000  -0.027153  -0.000000  -0.000000  -0.032503
    14  H    0.000000  -0.000000  -0.002333  -0.000000  -0.000000  -0.003349
    15  H    0.000000  -0.000000  -0.002331  -0.000000  -0.000000   0.004558
    16  H   -0.000001   0.000000  -0.000057   0.000000   0.000000   0.000132
    17  H   -0.000001   0.000000  -0.000057   0.000000  -0.000000   0.002803
    18  H   -0.000057  -0.000000   0.000001   0.000000   0.000000   0.000014
    19  H   -0.000057  -0.000000   0.000001   0.000000  -0.000002  -0.000001
    20  H   -0.003153  -0.000056   0.000000   0.000001  -0.000001  -0.000002
    21  H   -0.003153  -0.000056   0.000000   0.000001   0.000014   0.000000
    22  H   -0.041777  -0.002871   0.000000  -0.000057   0.000132   0.000000
    23  H   -0.041778  -0.002872   0.000000  -0.000057   0.002803  -0.000000
    24  H    0.399230  -0.041155  -0.000000  -0.002333  -0.003349  -0.000000
    25  H    0.399228  -0.041154  -0.000000  -0.002332   0.004558  -0.000000
    26  H   -0.041274   0.391721  -0.000000  -0.027155  -0.032500  -0.000000
              13         14         15         16         17         18
     1  C    0.391719  -0.041154  -0.041155  -0.002871  -0.002871  -0.000056
     2  C   -0.041277   0.399227   0.399229  -0.041779  -0.041776  -0.003152
     3  C   -0.003784  -0.043250  -0.043253   0.396422   0.396419  -0.041680
     4  C   -0.000076  -0.003201  -0.003202  -0.041672  -0.041671   0.397147
     5  C   -0.000001  -0.000064  -0.000064  -0.003220  -0.003220  -0.041661
     6  C   -0.000000  -0.000001  -0.000001  -0.000059  -0.000059  -0.003217
     7  C   -0.000000   0.000000   0.000000  -0.000001  -0.000001  -0.000057
     8  C   -0.000000  -0.000000  -0.000000   0.000000   0.000000  -0.000000
     9  H   -0.027153  -0.002333  -0.002331  -0.000057  -0.000057   0.000001
    10  H   -0.000000  -0.000000  -0.000000   0.000000   0.000000   0.000000
    11  H   -0.000000  -0.000000  -0.000000   0.000000  -0.000000   0.000000
    12  H   -0.032503  -0.003349   0.004558   0.000132   0.002803   0.000014
    13  H    0.551120   0.004558  -0.003351   0.002803   0.000132  -0.000001
    14  H    0.004558   0.563125  -0.033742   0.004597  -0.003098   0.002365
    15  H   -0.003351  -0.033742   0.563126  -0.003096   0.004597   0.000231
    16  H    0.002803   0.004597  -0.003096   0.562838  -0.033447   0.004508
    17  H    0.000132  -0.003098   0.004597  -0.033447   0.562838  -0.002916
    18  H   -0.000001   0.002365   0.000231   0.004508  -0.002916   0.561444
    19  H    0.000014   0.000231   0.002366  -0.002915   0.004508  -0.033131
    20  H    0.000000   0.000017  -0.000003   0.000260   0.002271  -0.002893
    21  H   -0.000002  -0.000003   0.000017   0.002271   0.000260   0.004494
    22  H   -0.000000  -0.000002   0.000001  -0.000003   0.000017   0.002271
    23  H    0.000000   0.000001  -0.000002   0.000017  -0.000003   0.000260
    24  H   -0.000000  -0.000000   0.000000  -0.000002   0.000001  -0.000003
    25  H   -0.000000   0.000000  -0.000000   0.000001  -0.000002   0.000017
    26  H    0.000000  -0.000000  -0.000000  -0.000000   0.000000  -0.000002
              19         20         21         22         23         24
     1  C   -0.000056  -0.000000  -0.000000   0.000000   0.000000  -0.000000
     2  C   -0.003153  -0.000057  -0.000057  -0.000001  -0.000001   0.000000
     3  C   -0.041681  -0.003216  -0.003217  -0.000059  -0.000059  -0.000001
     4  C    0.397148  -0.041661  -0.041660  -0.003220  -0.003220  -0.000063
     5  C   -0.041661   0.397149   0.397147  -0.041672  -0.041669  -0.003201
     6  C   -0.003216  -0.041682  -0.041679   0.396423   0.396421  -0.043251
     7  C   -0.000057  -0.003153  -0.003153  -0.041777  -0.041778   0.399230
     8  C   -0.000000  -0.000056  -0.000056  -0.002871  -0.002872  -0.041155
     9  H    0.000001   0.000000   0.000000   0.000000   0.000000  -0.000000
    10  H    0.000000   0.000001   0.000001  -0.000057  -0.000057  -0.002333
    11  H   -0.000002  -0.000001   0.000014   0.000132   0.002803  -0.003349
    12  H   -0.000001  -0.000002   0.000000   0.000000  -0.000000  -0.000000
    13  H    0.000014   0.000000  -0.000002  -0.000000   0.000000  -0.000000
    14  H    0.000231   0.000017  -0.000003  -0.000002   0.000001  -0.000000
    15  H    0.002366  -0.000003   0.000017   0.000001  -0.000002   0.000000
    16  H   -0.002915   0.000260   0.002271  -0.000003   0.000017  -0.000002
    17  H    0.004508   0.002271   0.000260   0.000017  -0.000003   0.000001
    18  H   -0.033131  -0.002893   0.004494   0.002271   0.000260  -0.000003
    19  H    0.561445   0.004494  -0.002892   0.000260   0.002271   0.000017
    20  H    0.004494   0.561444  -0.033131  -0.002914   0.004508   0.000231
    21  H   -0.002892  -0.033131   0.561444   0.004508  -0.002916   0.002365
    22  H    0.000260  -0.002914   0.004508   0.562834  -0.033446   0.004597
    23  H    0.002271   0.004508  -0.002916  -0.033446   0.562834  -0.003096
    24  H    0.000017   0.000231   0.002365   0.004597  -0.003096   0.563120
    25  H   -0.000003   0.002365   0.000231  -0.003097   0.004597  -0.033741
    26  H    0.000000   0.000014  -0.000001   0.002802   0.000132   0.004558
              25         26
     1  C   -0.000000  -0.000000
     2  C    0.000000  -0.000000
     3  C   -0.000001  -0.000000
     4  C   -0.000064  -0.000001
     5  C   -0.003202  -0.000076
     6  C   -0.043249  -0.003785
     7  C    0.399228  -0.041274
     8  C   -0.041154   0.391721
     9  H   -0.000000  -0.000000
    10  H   -0.002332  -0.027155
    11  H    0.004558  -0.032500
    12  H   -0.000000  -0.000000
    13  H   -0.000000   0.000000
    14  H    0.000000  -0.000000
    15  H   -0.000000  -0.000000
    16  H    0.000001  -0.000000
    17  H   -0.000002   0.000000
    18  H    0.000017  -0.000002
    19  H   -0.000003   0.000000
    20  H    0.002365   0.000014
    21  H    0.000231  -0.000001
    22  H   -0.003097   0.002802
    23  H    0.004597   0.000132
    24  H   -0.033741   0.004558
    25  H    0.563119  -0.003350
    26  H   -0.003350   0.551112
 Mulliken charges:
               1
     1  C   -0.489173
     2  C   -0.312256
     3  C   -0.308555
     4  C   -0.310985
     5  C   -0.310986
     6  C   -0.308554
     7  C   -0.312258
     8  C   -0.489174
     9  H    0.170635
    10  H    0.170629
    11  H    0.157804
    12  H    0.157801
    13  H    0.157801
    14  H    0.156076
    15  H    0.156076
    16  H    0.155272
    17  H    0.155274
    18  H    0.156016
    19  H    0.156016
    20  H    0.156016
    21  H    0.156017
    22  H    0.155274
    23  H    0.155275
    24  H    0.156077
    25  H    0.156078
    26  H    0.157804
 Sum of Mulliken charges =  -0.00000
 Mulliken charges with hydrogens summed into heavy atoms:
               1
     1  C   -0.002936
     2  C   -0.000104
     3  C    0.001991
     4  C    0.001047
     5  C    0.001047
     6  C    0.001994
     7  C   -0.000102
     8  C   -0.002937
 Electronic spatial extent (au):  <R**2>=          27070.4256
 Charge=             -0.0000 electrons
 Dipole moment (field-independent basis, Debye):
    X=             -0.0000    Y=              0.0000    Z=             -0.0000  Tot=              0.0000
 Quadrupole moment (field-independent basis, Debye-Ang):
   XX=            -57.0398   YY=            -56.1424   ZZ=            -54.5413
   XY=             -0.7223   XZ=              0.0005   YZ=              0.0006
 Traceless Quadrupole moment (field-independent basis, Debye-Ang):
   XX=             -1.1319   YY=             -0.2346   ZZ=              1.3665
   XY=             -0.7223   XZ=              0.0005   YZ=              0.0006
 Octapole moment (field-independent basis, Debye-Ang**2):
  XXX=           1749.6580  YYY=             -4.2005  ZZZ=              0.0039  XYY=            574.0030
  XXY=             13.3482  XXZ=             -0.0073  XZZ=            557.6674  YZZ=             -1.3603
  YYZ=              0.0010  XYZ=             -0.0060
 Hexadecapole moment (field-independent basis, Debye-Ang**3):
 XXXX=         -38936.3271 YYYY=           -193.7887 ZZZZ=           -110.5450 XXXY=           -275.5999
 XXXZ=              0.1355 YYYX=            -10.3768 YYYZ=              0.0188 ZZZX=             -0.0232
 ZZZY=              0.0093 XXYY=          -6424.7096 XXZZ=          -6237.8615 YYZZ=            -45.8511
 XXYZ=              0.0735 YYXZ=             -0.0029 ZZXY=             -1.4673
 N-N= 3.751515361266D+02 E-N=-1.479009576851D+03  KE= 3.137848690191D+02
 No NMR shielding tensors so no spin-rotation constants.
 Leave Link  601 at Thu Aug 29 20:24:48 2019, MaxMem=   280000000 cpu:               0.6 elap:               0.1
 (Enter /home/soft/g16/l9999.exe)
 1\1\GINC-NODE18\SP\RHF\6-31G(d)\C8H18\ROOT\29-Aug-2019\0\\#p hf/6-31g(
 d) 5d 7f nosymm\\Atom number=26\\0,1\C,0,-5.750393,0.434477,-0.000044\
 C,0,-7.030525,-0.40323,0.00003\C,0,-8.306562,0.440692,-0.00019\C,0,-9.
 586689,-0.397022,0.000053\C,0,-10.862723,0.446905,-0.000154\C,0,-12.14
 2844,-0.390814,0.000168\C,0,-13.418867,0.453124,-0.00028\C,0,-14.69896
 8,-0.384621,0.000211\H,0,-4.85791909,-0.15576898,-0.00005729\H,0,-15.5
 9142625,0.20564858,-0.00009324\H,0,-14.700574,-1.037926,0.871197\H,0,-
 5.748833,1.088263,-0.870682\H,0,-5.748776,1.088306,0.870562\H,0,-7.032
 066,-1.05719,-0.870476\H,0,-7.032158,-1.056883,0.870768\H,0,-8.304973,
 1.094747,0.870246\H,0,-8.304988,1.094252,-0.870997\H,0,-9.588293,-1.05
 1059,-0.870396\H,0,-9.588266,-1.050596,0.87085\H,0,-10.861174,1.100442
 ,-0.870978\H,0,-10.861102,1.100977,0.870268\H,0,-12.144398,-1.045015,-
 0.870156\H,0,-12.144475,-1.044215,0.871092\H,0,-13.417282,1.107415,0.8
 69976\H,0,-13.417312,1.106429,-0.871276\H,0,-14.700616,-1.038881,-0.87
 0057\\Version=ES64L-G16RevA.03\HF=-313.4344094\RMSD=2.707e-09\Dipole=-
 0.0000168,0.0000005,-0.0000091\Quadrupole=-0.841563,-0.1744277,1.01599
 06,-0.5370467,0.0003396,0.000411\PG=C01 [X(C8H18)]\\@


 STEINBACH'S GUIDELINES FOR SYSTEMS PROGRAMMING:
 NEVER TEST FOR AN ERROR CONDITION YOU DON'T KNOW HOW
 TO HANDLE.
 Job cpu time:       0 days  0 hours  0 minutes 12.7 seconds.
 Elapsed time:       0 days  0 hours  0 minutes  3.0 seconds.
 File lengths (MBytes):  RWF=     72 Int=      0 D2E=      0 Chk=      8 Scr=      8
 Normal termination of Gaussian 16 at Thu Aug 29 20:24:49 2019.
