 Entering Gaussian System, Link 0=g16
 Input=32ane_9.gjf
 Output=32ane_9.log
 Initial command:
 /home/soft/g16/l1.exe "/tmp/liwei01/gaussian/liaokang/Gau-200051.inp" -scrdir="/tmp/liwei01/gaussian/liaokang/"
 Entering Link 1 = /home/soft/g16/l1.exe PID=    200052.
  
 Copyright (c) 1988,1990,1992,1993,1995,1998,2003,2009,2016,
            Gaussian, Inc.  All Rights Reserved.
  
 This is part of the Gaussian(R) 16 program.  It is based on
 the Gaussian(R) 09 system (copyright 2009, Gaussian, Inc.),
 the Gaussian(R) 03 system (copyright 2003, Gaussian, Inc.),
 the Gaussian(R) 98 system (copyright 1998, Gaussian, Inc.),
 the Gaussian(R) 94 system (copyright 1995, Gaussian, Inc.),
 the Gaussian 92(TM) system (copyright 1992, Gaussian, Inc.),
 the Gaussian 90(TM) system (copyright 1990, Gaussian, Inc.),
 the Gaussian 88(TM) system (copyright 1988, Gaussian, Inc.),
 the Gaussian 86(TM) system (copyright 1986, Carnegie Mellon
 University), and the Gaussian 82(TM) system (copyright 1983,
 Carnegie Mellon University). Gaussian is a federally registered
 trademark of Gaussian, Inc.
  
 This software contains proprietary and confidential information,
 including trade secrets, belonging to Gaussian, Inc.
  
 This software is provided under written license and may be
 used, copied, transmitted, or stored only in accord with that
 written license.
  
 The following legend is applicable only to US Government
 contracts under FAR:
  
                    RESTRICTED RIGHTS LEGEND
  
 Use, reproduction and disclosure by the US Government is
 subject to restrictions as set forth in subparagraphs (a)
 and (c) of the Commercial Computer Software - Restricted
 Rights clause in FAR 52.227-19.
  
 Gaussian, Inc.
 340 Quinnipiac St., Bldg. 40, Wallingford CT 06492
  
  
 ---------------------------------------------------------------
 Warning -- This program may not be used in any manner that
 competes with the business of Gaussian, Inc. or will provide
 assistance to any competitor of Gaussian, Inc.  The licensee
 of this program is prohibited from giving any competitor of
 Gaussian, Inc. access to this program.  By using this program,
 the user acknowledges that Gaussian, Inc. is engaged in the
 business of creating and licensing software in the field of
 computational chemistry and represents and warrants to the
 licensee that it is not a competitor of Gaussian, Inc. and that
 it will not use this program in any manner prohibited above.
 ---------------------------------------------------------------
  

 Cite this work as:
 Gaussian 16, Revision A.03,
 M. J. Frisch, G. W. Trucks, H. B. Schlegel, G. E. Scuseria, 
 M. A. Robb, J. R. Cheeseman, G. Scalmani, V. Barone, 
 G. A. Petersson, H. Nakatsuji, X. Li, M. Caricato, A. V. Marenich, 
 J. Bloino, B. G. Janesko, R. Gomperts, B. Mennucci, H. P. Hratchian, 
 J. V. Ortiz, A. F. Izmaylov, J. L. Sonnenberg, D. Williams-Young, 
 F. Ding, F. Lipparini, F. Egidi, J. Goings, B. Peng, A. Petrone, 
 T. Henderson, D. Ranasinghe, V. G. Zakrzewski, J. Gao, N. Rega, 
 G. Zheng, W. Liang, M. Hada, M. Ehara, K. Toyota, R. Fukuda, 
 J. Hasegawa, M. Ishida, T. Nakajima, Y. Honda, O. Kitao, H. Nakai, 
 T. Vreven, K. Throssell, J. A. Montgomery, Jr., J. E. Peralta, 
 F. Ogliaro, M. J. Bearpark, J. J. Heyd, E. N. Brothers, K. N. Kudin, 
 V. N. Staroverov, T. A. Keith, R. Kobayashi, J. Normand, 
 K. Raghavachari, A. P. Rendell, J. C. Burant, S. S. Iyengar, 
 J. Tomasi, M. Cossi, J. M. Millam, M. Klene, C. Adamo, R. Cammi, 
 J. W. Ochterski, R. L. Martin, K. Morokuma, O. Farkas, 
 J. B. Foresman, and D. J. Fox, Gaussian, Inc., Wallingford CT, 2016.
 
 ******************************************
 Gaussian 16:  ES64L-G16RevA.03 25-Dec-2016
                29-Aug-2019 
 ******************************************
 %chk=32ane_9.chk
 %nproc=6
 Will use up to    6 processors via shared memory.
 ---------------------------
 #p hf/6-31g(d) 5d 7f nosymm
 ---------------------------
 1/38=1,172=1/1;
 2/12=2,15=1,17=6,18=5,40=1/2;
 3/5=1,6=6,7=1,8=11,11=9,25=1,30=1/1,2,3;
 4//1;
 5/5=2,38=5/2;
 6/7=2,8=2,9=2,10=2,28=1/1;
 99/5=1,9=1/99;
 Leave Link    1 at Thu Aug 29 20:24:42 2019, MaxMem=           0 cpu:               0.3 elap:               0.1
 (Enter /home/soft/g16/l101.exe)
 --------------
 Atom number=26
 --------------
 Symbolic Z-matrix:
 Charge =  0 Multiplicity = 1
 c                     4.47433   0.40955   0.00013 
 c                     3.19418  -0.42814  -0.00016 
 c                     1.91815   0.4158    0.00012 
 c                     0.638    -0.4219   -0.00015 
 c                    -0.63804   0.42204   0.00011 
 c                    -1.91818  -0.41566  -0.00007 
 c                    -3.19422   0.42826  -0.00006 
 c                    -4.47435  -0.40944  -0.00006 
 h                     5.36679  -0.18071  -0.00007 
 h                    -5.36683   0.1808   -0.00005 
 h                    -4.47594  -1.06327   0.87055 
 h                     0.6364   -1.07597   0.87027 
 h                     4.47593   1.06364  -0.87028 
 h                     4.47593   1.06306   0.87097 
 h                     3.19258  -1.08165  -0.871 
 h                     3.19258  -1.08224   0.87025 
 h                     1.91974   1.06932   0.87096 
 h                     1.91974   1.06989  -0.87029 
 h                     0.63641  -1.07542  -0.87098 
 h                    -0.63647   1.07608  -0.87034 
 h                    -0.63642   1.07561   0.8709 
 h                    -1.91971  -1.06937  -0.87076 
 h                    -1.91982  -1.06956   0.87049 
 h                    -3.19263   1.08207   0.87056 
 h                    -3.19263   1.08207  -0.87068 
 h                    -4.47595  -1.06324  -0.8707 
 
 ITRead=  0  0  0  0  0  0  0  0  0  0  0  0  0  0  0  0  0  0  0  0
 ITRead=  0  0  0  0  0  0
 MicOpt= -1 -1 -1 -1 -1 -1 -1 -1 -1 -1 -1 -1 -1 -1 -1 -1 -1 -1 -1 -1
 MicOpt= -1 -1 -1 -1 -1 -1
 NAtoms=     26 NQM=       26 NQMF=       0 NMMI=      0 NMMIF=      0
                NMic=       0 NMicF=      0.
                    Isotopes and Nuclear Properties:
 (Nuclear quadrupole moments (NQMom) in fm**2, nuclear magnetic moments (NMagM)
  in nuclear magnetons)

  Atom         1           2           3           4           5           6           7           8           9          10
 IAtWgt=          12          12          12          12          12          12          12          12           1           1
 AtmWgt=  12.0000000  12.0000000  12.0000000  12.0000000  12.0000000  12.0000000  12.0000000  12.0000000   1.0078250   1.0078250
 NucSpn=           0           0           0           0           0           0           0           0           1           1
 AtZEff=  -0.0000000  -0.0000000  -0.0000000  -0.0000000  -0.0000000  -0.0000000  -0.0000000  -0.0000000  -0.0000000  -0.0000000
 NQMom=    0.0000000   0.0000000   0.0000000   0.0000000   0.0000000   0.0000000   0.0000000   0.0000000   0.0000000   0.0000000
 NMagM=    0.0000000   0.0000000   0.0000000   0.0000000   0.0000000   0.0000000   0.0000000   0.0000000   2.7928460   2.7928460
 AtZNuc=   6.0000000   6.0000000   6.0000000   6.0000000   6.0000000   6.0000000   6.0000000   6.0000000   1.0000000   1.0000000

  Atom        11          12          13          14          15          16          17          18          19          20
 IAtWgt=           1           1           1           1           1           1           1           1           1           1
 AtmWgt=   1.0078250   1.0078250   1.0078250   1.0078250   1.0078250   1.0078250   1.0078250   1.0078250   1.0078250   1.0078250
 NucSpn=           1           1           1           1           1           1           1           1           1           1
 AtZEff=  -0.0000000  -0.0000000  -0.0000000  -0.0000000  -0.0000000  -0.0000000  -0.0000000  -0.0000000  -0.0000000  -0.0000000
 NQMom=    0.0000000   0.0000000   0.0000000   0.0000000   0.0000000   0.0000000   0.0000000   0.0000000   0.0000000   0.0000000
 NMagM=    2.7928460   2.7928460   2.7928460   2.7928460   2.7928460   2.7928460   2.7928460   2.7928460   2.7928460   2.7928460
 AtZNuc=   1.0000000   1.0000000   1.0000000   1.0000000   1.0000000   1.0000000   1.0000000   1.0000000   1.0000000   1.0000000

  Atom        21          22          23          24          25          26
 IAtWgt=           1           1           1           1           1           1
 AtmWgt=   1.0078250   1.0078250   1.0078250   1.0078250   1.0078250   1.0078250
 NucSpn=           1           1           1           1           1           1
 AtZEff=  -0.0000000  -0.0000000  -0.0000000  -0.0000000  -0.0000000  -0.0000000
 NQMom=    0.0000000   0.0000000   0.0000000   0.0000000   0.0000000   0.0000000
 NMagM=    2.7928460   2.7928460   2.7928460   2.7928460   2.7928460   2.7928460
 AtZNuc=   1.0000000   1.0000000   1.0000000   1.0000000   1.0000000   1.0000000
 Leave Link  101 at Thu Aug 29 20:24:42 2019, MaxMem=   280000000 cpu:               0.6 elap:               0.1
 (Enter /home/soft/g16/l202.exe)
                          Input orientation:                          
 ---------------------------------------------------------------------
 Center     Atomic      Atomic             Coordinates (Angstroms)
 Number     Number       Type             X           Y           Z
 ---------------------------------------------------------------------
      1          6           0        4.474329    0.409546    0.000126
      2          6           0        3.194180   -0.428143   -0.000156
      3          6           0        1.918145    0.415800    0.000124
      4          6           0        0.638000   -0.421895   -0.000149
      5          6           0       -0.638038    0.422037    0.000110
      6          6           0       -1.918178   -0.415658   -0.000065
      7          6           0       -3.194218    0.428261   -0.000059
      8          6           0       -4.474353   -0.409444   -0.000063
      9          1           0        5.366794   -0.180713   -0.000071
     10          1           0       -5.366827    0.180802   -0.000050
     11          1           0       -4.475936   -1.063266    0.870548
     12          1           0        0.636403   -1.075973    0.870268
     13          1           0        4.475930    1.063640   -0.870278
     14          1           0        4.475929    1.063056    0.870968
     15          1           0        3.192581   -1.081654   -0.870997
     16          1           0        3.192579   -1.082235    0.870250
     17          1           0        1.919744    1.069316    0.870962
     18          1           0        1.919742    1.069887   -0.870286
     19          1           0        0.636410   -1.075422   -0.870979
     20          1           0       -0.636465    1.076076   -0.870338
     21          1           0       -0.636417    1.075615    0.870904
     22          1           0       -1.919713   -1.069374   -0.870755
     23          1           0       -1.919821   -1.069558    0.870487
     24          1           0       -3.192634    1.082072    0.870560
     25          1           0       -3.192634    1.082069   -0.870681
     26          1           0       -4.475948   -1.063238   -0.870696
 ---------------------------------------------------------------------
                    Distance matrix (angstroms):
                    1          2          3          4          5
     1  C    0.000000
     2  C    1.529871   0.000000
     3  C    2.556192   1.529871   0.000000
     4  C    3.925394   2.556188   1.529871   0.000000
     5  C    5.112382   3.925392   2.556191   1.529867   0.000000
     6  C    6.445549   5.112373   3.925391   2.556186   1.529866
     7  C    7.668570   6.445546   5.112378   3.925387   2.556188
     8  C    8.986081   7.668556   6.445546   5.112368   3.925388
     9  H    1.070000   2.186658   3.499858   4.734941   6.035008
    10  H    9.843814   8.582637   7.288761   6.034997   4.734938
    11  H    9.112302   7.745462   6.620389   5.227027   4.206334
    12  H    4.206375   2.778407   2.150674   1.088782   2.150676
    13  H    1.088781   2.150677   2.778410   4.206382   5.227035
    14  H    1.088781   2.150677   2.778411   4.206379   5.227041
    15  H    2.150677   1.088781   2.150676   2.778406   4.206371
    16  H    2.150676   1.088782   2.150677   2.778402   4.206377
    17  H    2.778409   2.150678   1.088781   2.150677   2.778417
    18  H    2.778414   2.150677   1.088782   2.150678   2.778406
    19  H    4.206373   2.778397   2.150676   1.088781   2.150674
    20  H    5.227063   4.206392   2.778435   2.150676   1.088783
    21  H    5.227009   4.206365   2.778381   2.150676   1.088783
    22  H    6.620378   5.226951   4.206344   2.778323   2.150675
    23  H    6.620456   5.227087   4.206400   2.778475   2.150670
    24  H    7.745468   6.620445   5.227011   4.206401   2.778361
    25  H    7.745509   6.620419   5.227072   4.206363   2.778467
    26  H    9.112348   7.745453   6.620446   5.227010   4.206412
                    6          7          8          9         10
     6  C    0.000000
     7  C    1.529862   0.000000
     8  C    2.556183   1.529868   0.000000
     9  H    7.288760   8.582644   9.843805   0.000000
    10  H    3.499849   2.186656   1.070000  10.739707   0.000000
    11  H    2.778397   2.150677   1.088783   9.920495   1.760492
    12  H    2.778377   4.206405   5.227003   4.892400   6.194813
    13  H    6.620439   7.745460   9.112344   1.760487   9.920512
    14  H    6.620415   7.745502   9.112327   1.760486   9.920529
    15  H    5.227038   6.620391   7.745468   2.509464   8.695735
    16  H    5.227008   6.620439   7.745446   2.509465   8.695753
    17  H    4.206362   5.227068   6.620415   3.768743   7.392039
    18  H    4.206395   5.227004   6.620435   3.768746   7.392014
    19  H    2.778435   4.206337   5.227037   4.892394   6.194794
    20  H    2.150682   2.778336   4.206368   6.194837   4.892366
    21  H    2.150673   2.778487   4.206392   6.194796   4.892446
    22  H    1.088783   2.150671   2.778452   7.391955   3.768775
    23  H    1.088783   2.150674   2.778352   7.392069   3.768698
    24  H    2.150679   1.088783   2.150676   8.695771   2.509455
    25  H    2.150673   1.088784   2.150672   8.695769   2.509461
    26  H    2.778407   2.150677   1.088784   9.920505   1.760490
                   11         12         13         14         15
    11  H    0.000000
    12  H    5.112355   0.000000
    13  H    9.364300   4.727516   0.000000
    14  H    9.200931   4.395157   1.741246   0.000000
    15  H    7.863808   3.092908   2.499854   3.046507   0.000000
    16  H    7.668538   2.556184   3.046507   2.499852   1.741247
    17  H    6.741856   2.499846   3.092901   2.556193   3.046507
    18  H    6.963156   3.046507   2.556196   3.092912   2.499850
    19  H    5.400847   1.741247   4.395168   4.727512   2.556179
    20  H    4.727474   3.046509   5.112410   5.400823   4.395156
    21  H    4.395079   2.499880   5.400736   5.112361   4.727500
    22  H    3.092968   3.092723   6.741958   6.963124   5.112309
    23  H    2.556123   2.556232   6.963220   6.741933   5.400886
    24  H    2.499868   4.395302   7.863697   7.668587   6.963167
    25  H    3.046507   4.727534   7.668586   7.863877   6.741859
    26  H    1.741244   5.400671   9.201072   9.364327   7.668551
                   16         17         18         19         20
    16  H    0.000000
    17  H    2.499856   0.000000
    18  H    3.046508   1.741248   0.000000
    19  H    3.092883   3.046507   2.499858   0.000000
    20  H    4.727529   3.092956   2.556214   2.499831   0.000000
    21  H    4.395171   2.556169   3.092851   3.046507   1.741242
    22  H    5.400629   4.727473   4.395208   2.556130   2.499936
    23  H    5.112416   4.395116   4.727553   3.093066   3.046509
    24  H    6.742045   5.112394   5.400656   4.727506   3.092695
    25  H    6.963189   5.400916   5.112391   4.395036   2.556176
    26  H    7.863686   6.963191   6.742038   5.112373   4.395258
                   21         22         23         24         25
    21  H    0.000000
    22  H    3.046507   0.000000
    23  H    2.499779   1.741242   0.000000
    24  H    2.556225   3.046510   2.499913   0.000000
    25  H    3.093122   2.499807   3.046509   1.741241   0.000000
    26  H    4.727564   2.556242   3.092821   3.046510   2.499847
                   26
    26  H    0.000000
 Symmetry turned off by external request.
 Stoichiometry    C8H18
 Framework group  C1[X(C8H18)]
 Deg. of freedom    72
 Full point group                 C1      NOp   1
 Rotational constants (GHZ):          10.8433080           0.4891773           0.4789039
 Leave Link  202 at Thu Aug 29 20:24:42 2019, MaxMem=   280000000 cpu:               0.1 elap:               0.0
 (Enter /home/soft/g16/l301.exe)
 Standard basis: 6-31G(d) (5D, 7F)
 Ernie: Thresh=  0.10000D-02 Tol=  0.10000D-05 Strict=F.
   148 basis functions,   296 primitive gaussians,   156 cartesian basis functions
    33 alpha electrons       33 beta electrons
       nuclear repulsion energy       375.1494932395 Hartrees.
 IExCor=    0 DFT=F Ex=HF Corr=None ExCW=0 ScaHFX=  1.000000
 ScaDFX=  1.000000  1.000000  1.000000  1.000000 ScalE2=  1.000000  1.000000
 IRadAn=      5 IRanWt=     -1 IRanGd=            0 ICorTp=0 IEmpDi=  4
 NAtoms=   26 NActive=   26 NUniq=   26 SFac= 1.00D+00 NAtFMM=   60 NAOKFM=F Big=F
 Integral buffers will be    131072 words long.
 Raffenetti 1 integral format.
 Two-electron integral symmetry is turned off.
 Leave Link  301 at Thu Aug 29 20:24:42 2019, MaxMem=   280000000 cpu:               0.3 elap:               0.1
 (Enter /home/soft/g16/l302.exe)
 NPDir=0 NMtPBC=     1 NCelOv=     1 NCel=       1 NClECP=     1 NCelD=      1
         NCelK=      1 NCelE2=     1 NClLst=     1 CellRange=     0.0.
 One-electron integrals computed using PRISM.
 NBasis=   148 RedAO= T EigKep=  2.99D-03  NBF=   148
 NBsUse=   148 1.00D-06 EigRej= -1.00D+00 NBFU=   148
 Leave Link  302 at Thu Aug 29 20:24:43 2019, MaxMem=   280000000 cpu:               0.6 elap:               0.1
 (Enter /home/soft/g16/l303.exe)
 DipDrv:  MaxL=1.
 Leave Link  303 at Thu Aug 29 20:24:43 2019, MaxMem=   280000000 cpu:               0.2 elap:               0.0
 (Enter /home/soft/g16/l401.exe)
 ExpMin= 1.61D-01 ExpMax= 3.05D+03 ExpMxC= 4.57D+02 IAcc=3 IRadAn=         5 AccDes= 0.00D+00
 Harris functional with IExCor=  205 and IRadAn=       5 diagonalized for initial guess.
 HarFok:  IExCor=  205 AccDes= 0.00D+00 IRadAn=         5 IDoV= 1 UseB2=F ITyADJ=14
 ICtDFT=  3500011 ScaDFX=  1.000000  1.000000  1.000000  1.000000
 FoFCou: FMM=F IPFlag=           0 FMFlag=      100000 FMFlg1=           0
         NFxFlg=           0 DoJE=T BraDBF=F KetDBF=T FulRan=T
         wScrn=  0.000000 ICntrl=       500 IOpCl=  0 I1Cent=   200000004 NGrid=           0
         NMat0=    1 NMatS0=      1 NMatT0=    0 NMatD0=    1 NMtDS0=    0 NMtDT0=    0
 Symmetry not used in FoFCou.
 Harris En= -314.305271749276    
 JPrj=0 DoOrth=F DoCkMO=F.
 Leave Link  401 at Thu Aug 29 20:24:43 2019, MaxMem=   280000000 cpu:               4.4 elap:               0.8
 (Enter /home/soft/g16/l502.exe)
 Keep R1 ints in memory in canonical form, NReq=62727728.
 FoFCou: FMM=F IPFlag=           0 FMFlag=           0 FMFlg1=           0
         NFxFlg=           0 DoJE=F BraDBF=F KetDBF=F FulRan=T
         wScrn=  0.000000 ICntrl=       600 IOpCl=  0 I1Cent=           0 NGrid=           0
         NMat0=    1 NMatS0=  11026 NMatT0=    0 NMatD0=    1 NMtDS0=    0 NMtDT0=    0
 Symmetry not used in FoFCou.
 Two-electron integral symmetry not used.
 Closed shell SCF:
 Using DIIS extrapolation, IDIIS=  1040.
 NGot=   280000000 LenX=   219156783 LenY=   219132006
 Requested convergence on RMS density matrix=1.00D-08 within 128 cycles.
 Requested convergence on MAX density matrix=1.00D-06.
 Requested convergence on             energy=1.00D-06.
 No special actions if energy rises.

 Cycle   1  Pass 1  IDiag  1:
 E= -312.897595347588    
 DIIS: error= 6.71D-02 at cycle   1 NSaved=   1.
 NSaved= 1 IEnMin= 1 EnMin= -312.897595347588     IErMin= 1 ErrMin= 6.71D-02
 ErrMax= 6.71D-02  0.00D+00 EMaxC= 1.00D-01 BMatC= 5.30D-01 BMatP= 5.30D-01
 IDIUse=3 WtCom= 3.29D-01 WtEn= 6.71D-01
 Coeff-Com:  0.100D+01
 Coeff-En:   0.100D+01
 Coeff:      0.100D+01
 Gap=     0.645 Goal=   None    Shift=    0.000
 GapD=    0.645 DampG=2.000 DampE=0.500 DampFc=1.0000 IDamp=-1.
 RMSDP=5.92D-03 MaxDP=1.22D-01              OVMax= 1.34D-01

 Cycle   2  Pass 1  IDiag  1:
 E= -313.350566759498     Delta-E=       -0.452971411910 Rises=F Damp=F
 DIIS: error= 2.38D-02 at cycle   2 NSaved=   2.
 NSaved= 2 IEnMin= 2 EnMin= -313.350566759498     IErMin= 2 ErrMin= 2.38D-02
 ErrMax= 2.38D-02  0.00D+00 EMaxC= 1.00D-01 BMatC= 8.48D-02 BMatP= 5.30D-01
 IDIUse=3 WtCom= 7.62D-01 WtEn= 2.38D-01
 Coeff-Com:  0.258D+00 0.742D+00
 Coeff-En:   0.000D+00 0.100D+01
 Coeff:      0.196D+00 0.804D+00
 Gap=     0.675 Goal=   None    Shift=    0.000
 RMSDP=2.03D-03 MaxDP=3.21D-02 DE=-4.53D-01 OVMax= 4.47D-02

 Cycle   3  Pass 1  IDiag  1:
 E= -313.431999378796     Delta-E=       -0.081432619299 Rises=F Damp=F
 DIIS: error= 4.17D-03 at cycle   3 NSaved=   3.
 NSaved= 3 IEnMin= 3 EnMin= -313.431999378796     IErMin= 3 ErrMin= 4.17D-03
 ErrMax= 4.17D-03  0.00D+00 EMaxC= 1.00D-01 BMatC= 1.91D-03 BMatP= 8.48D-02
 IDIUse=3 WtCom= 9.58D-01 WtEn= 4.17D-02
 Coeff-Com: -0.306D-01 0.626D-01 0.968D+00
 Coeff-En:   0.000D+00 0.000D+00 0.100D+01
 Coeff:     -0.293D-01 0.599D-01 0.969D+00
 Gap=     0.655 Goal=   None    Shift=    0.000
 RMSDP=2.98D-04 MaxDP=6.62D-03 DE=-8.14D-02 OVMax= 8.28D-03

 Cycle   4  Pass 1  IDiag  1:
 E= -313.434337293594     Delta-E=       -0.002337914798 Rises=F Damp=F
 DIIS: error= 6.27D-04 at cycle   4 NSaved=   4.
 NSaved= 4 IEnMin= 4 EnMin= -313.434337293594     IErMin= 4 ErrMin= 6.27D-04
 ErrMax= 6.27D-04  0.00D+00 EMaxC= 1.00D-01 BMatC= 3.92D-05 BMatP= 1.91D-03
 IDIUse=3 WtCom= 9.94D-01 WtEn= 6.27D-03
 Coeff-Com: -0.121D-02-0.191D-01-0.633D-01 0.108D+01
 Coeff-En:   0.000D+00 0.000D+00 0.000D+00 0.100D+01
 Coeff:     -0.120D-02-0.190D-01-0.629D-01 0.108D+01
 Gap=     0.656 Goal=   None    Shift=    0.000
 RMSDP=7.26D-05 MaxDP=1.15D-03 DE=-2.34D-03 OVMax= 1.91D-03

 Cycle   5  Pass 1  IDiag  1:
 E= -313.434401559151     Delta-E=       -0.000064265557 Rises=F Damp=F
 DIIS: error= 2.14D-04 at cycle   5 NSaved=   5.
 NSaved= 5 IEnMin= 5 EnMin= -313.434401559151     IErMin= 5 ErrMin= 2.14D-04
 ErrMax= 2.14D-04  0.00D+00 EMaxC= 1.00D-01 BMatC= 4.67D-06 BMatP= 3.92D-05
 IDIUse=3 WtCom= 9.98D-01 WtEn= 2.14D-03
 Coeff-Com:  0.214D-02-0.934D-02-0.883D-01 0.214D+00 0.881D+00
 Coeff-En:   0.000D+00 0.000D+00 0.000D+00 0.000D+00 0.100D+01
 Coeff:      0.214D-02-0.932D-02-0.881D-01 0.214D+00 0.882D+00
 Gap=     0.657 Goal=   None    Shift=    0.000
 RMSDP=2.07D-05 MaxDP=3.47D-04 DE=-6.43D-05 OVMax= 5.00D-04

 Cycle   6  Pass 1  IDiag  1:
 E= -313.434407876640     Delta-E=       -0.000006317488 Rises=F Damp=F
 DIIS: error= 2.55D-05 at cycle   6 NSaved=   6.
 NSaved= 6 IEnMin= 6 EnMin= -313.434407876640     IErMin= 6 ErrMin= 2.55D-05
 ErrMax= 2.55D-05  0.00D+00 EMaxC= 1.00D-01 BMatC= 9.17D-08 BMatP= 4.67D-06
 IDIUse=1 WtCom= 1.00D+00 WtEn= 0.00D+00
 Coeff-Com:  0.205D-03-0.111D-03-0.409D-02-0.312D-01 0.563D-01 0.979D+00
 Coeff:      0.205D-03-0.111D-03-0.409D-02-0.312D-01 0.563D-01 0.979D+00
 Gap=     0.657 Goal=   None    Shift=    0.000
 RMSDP=4.36D-06 MaxDP=6.57D-05 DE=-6.32D-06 OVMax= 9.90D-05

 Cycle   7  Pass 1  IDiag  1:
 E= -313.434408034869     Delta-E=       -0.000000158230 Rises=F Damp=F
 DIIS: error= 5.36D-06 at cycle   7 NSaved=   7.
 NSaved= 7 IEnMin= 7 EnMin= -313.434408034869     IErMin= 7 ErrMin= 5.36D-06
 ErrMax= 5.36D-06  0.00D+00 EMaxC= 1.00D-01 BMatC= 3.71D-09 BMatP= 9.17D-08
 IDIUse=1 WtCom= 1.00D+00 WtEn= 0.00D+00
 Coeff-Com: -0.441D-04 0.248D-03 0.233D-02-0.816D-02-0.228D-01 0.464D-01
 Coeff-Com:  0.982D+00
 Coeff:     -0.441D-04 0.248D-03 0.233D-02-0.816D-02-0.228D-01 0.464D-01
 Coeff:      0.982D+00
 Gap=     0.657 Goal=   None    Shift=    0.000
 RMSDP=8.94D-07 MaxDP=1.36D-05 DE=-1.58D-07 OVMax= 2.30D-05

 Cycle   8  Pass 1  IDiag  1:
 E= -313.434408041213     Delta-E=       -0.000000006344 Rises=F Damp=F
 DIIS: error= 1.90D-06 at cycle   8 NSaved=   8.
 NSaved= 8 IEnMin= 8 EnMin= -313.434408041213     IErMin= 8 ErrMin= 1.90D-06
 ErrMax= 1.90D-06  0.00D+00 EMaxC= 1.00D-01 BMatC= 3.78D-10 BMatP= 3.71D-09
 IDIUse=1 WtCom= 1.00D+00 WtEn= 0.00D+00
 Coeff-Com: -0.175D-04 0.319D-04 0.536D-03 0.143D-02-0.623D-02-0.679D-01
 Coeff-Com:  0.109D+00 0.963D+00
 Coeff:     -0.175D-04 0.319D-04 0.536D-03 0.143D-02-0.623D-02-0.679D-01
 Coeff:      0.109D+00 0.963D+00
 Gap=     0.657 Goal=   None    Shift=    0.000
 RMSDP=2.82D-07 MaxDP=3.88D-06 DE=-6.34D-09 OVMax= 7.01D-06

 Cycle   9  Pass 1  IDiag  1:
 E= -313.434408041902     Delta-E=       -0.000000000689 Rises=F Damp=F
 DIIS: error= 4.38D-07 at cycle   9 NSaved=   9.
 NSaved= 9 IEnMin= 9 EnMin= -313.434408041902     IErMin= 9 ErrMin= 4.38D-07
 ErrMax= 4.38D-07  0.00D+00 EMaxC= 1.00D-01 BMatC= 2.37D-11 BMatP= 3.78D-10
 IDIUse=1 WtCom= 1.00D+00 WtEn= 0.00D+00
 Coeff-Com:  0.428D-05-0.201D-04-0.204D-03 0.496D-03 0.221D-02 0.144D-02
 Coeff-Com: -0.792D-01-0.734D-01 0.115D+01
 Coeff:      0.428D-05-0.201D-04-0.204D-03 0.496D-03 0.221D-02 0.144D-02
 Coeff:     -0.792D-01-0.734D-01 0.115D+01
 Gap=     0.657 Goal=   None    Shift=    0.000
 RMSDP=8.95D-08 MaxDP=1.41D-06 DE=-6.89D-10 OVMax= 2.75D-06

 Cycle  10  Pass 1  IDiag  1:
 E= -313.434408041954     Delta-E=       -0.000000000051 Rises=F Damp=F
 DIIS: error= 6.94D-08 at cycle  10 NSaved=  10.
 NSaved=10 IEnMin=10 EnMin= -313.434408041954     IErMin=10 ErrMin= 6.94D-08
 ErrMax= 6.94D-08  0.00D+00 EMaxC= 1.00D-01 BMatC= 1.08D-12 BMatP= 2.37D-11
 IDIUse=1 WtCom= 1.00D+00 WtEn= 0.00D+00
 Coeff-Com:  0.697D-06-0.757D-06-0.213D-04-0.116D-03 0.274D-03 0.415D-02
 Coeff-Com: -0.260D-02-0.558D-01-0.549D-01 0.111D+01
 Coeff:      0.697D-06-0.757D-06-0.213D-04-0.116D-03 0.274D-03 0.415D-02
 Coeff:     -0.260D-02-0.558D-01-0.549D-01 0.111D+01
 Gap=     0.657 Goal=   None    Shift=    0.000
 RMSDP=1.82D-08 MaxDP=2.67D-07 DE=-5.14D-11 OVMax= 5.31D-07

 Cycle  11  Pass 1  IDiag  1:
 E= -313.434408041960     Delta-E=       -0.000000000006 Rises=F Damp=F
 DIIS: error= 1.74D-08 at cycle  11 NSaved=  11.
 NSaved=11 IEnMin=11 EnMin= -313.434408041960     IErMin=11 ErrMin= 1.74D-08
 ErrMax= 1.74D-08  0.00D+00 EMaxC= 1.00D-01 BMatC= 6.13D-14 BMatP= 1.08D-12
 IDIUse=1 WtCom= 1.00D+00 WtEn= 0.00D+00
 Coeff-Com: -0.105D-06 0.783D-06 0.592D-05-0.298D-04-0.654D-04 0.323D-03
 Coeff-Com:  0.297D-02-0.222D-02-0.495D-01 0.991D-01 0.949D+00
 Coeff:     -0.105D-06 0.783D-06 0.592D-05-0.298D-04-0.654D-04 0.323D-03
 Coeff:      0.297D-02-0.222D-02-0.495D-01 0.991D-01 0.949D+00
 Gap=     0.657 Goal=   None    Shift=    0.000
 RMSDP=2.71D-09 MaxDP=4.66D-08 DE=-5.91D-12 OVMax= 8.78D-08

 SCF Done:  E(RHF) =  -313.434408042     A.U. after   11 cycles
            NFock= 11  Conv=0.27D-08     -V/T= 1.9989
 KE= 3.137847585505D+02 PE=-1.479005362920D+03 EE= 4.766367030880D+02
 Leave Link  502 at Thu Aug 29 20:24:45 2019, MaxMem=   280000000 cpu:               5.6 elap:               1.7
 (Enter /home/soft/g16/l601.exe)
 Copying SCF densities to generalized density rwf, IOpCl= 0 IROHF=0.

 **********************************************************************

            Population analysis using the SCF density.

 **********************************************************************

 Alpha  occ. eigenvalues --  -11.20997 -11.20997 -11.20880 -11.20859 -11.20822
 Alpha  occ. eigenvalues --  -11.20784 -11.20231 -11.20231  -1.09111  -1.06136
 Alpha  occ. eigenvalues --   -1.01351  -0.95098  -0.87953  -0.81431  -0.78745
 Alpha  occ. eigenvalues --   -0.78486  -0.65716  -0.63069  -0.59944  -0.59081
 Alpha  occ. eigenvalues --   -0.57811  -0.56729  -0.54470  -0.53194  -0.50193
 Alpha  occ. eigenvalues --   -0.49752  -0.49198  -0.47229  -0.46654  -0.45961
 Alpha  occ. eigenvalues --   -0.45810  -0.45578  -0.42858
 Alpha virt. eigenvalues --    0.22822   0.23895   0.25713   0.26335   0.27080
 Alpha virt. eigenvalues --    0.29450   0.29604   0.30289   0.32635   0.33499
 Alpha virt. eigenvalues --    0.33519   0.34466   0.34903   0.35325   0.35604
 Alpha virt. eigenvalues --    0.35872   0.37214   0.37735   0.38160   0.40397
 Alpha virt. eigenvalues --    0.41895   0.42265   0.47247   0.49521   0.49894
 Alpha virt. eigenvalues --    0.68443   0.69013   0.70404   0.75257   0.75554
 Alpha virt. eigenvalues --    0.76538   0.77113   0.78642   0.82635   0.82825
 Alpha virt. eigenvalues --    0.84751   0.86131   0.93030   0.94629   0.97231
 Alpha virt. eigenvalues --    0.97332   0.98982   1.02145   1.04455   1.09189
 Alpha virt. eigenvalues --    1.10963   1.11767   1.12252   1.14418   1.14702
 Alpha virt. eigenvalues --    1.18114   1.18440   1.19710   1.20334   1.20357
 Alpha virt. eigenvalues --    1.22232   1.22306   1.22554   1.22681   1.23192
 Alpha virt. eigenvalues --    1.23634   1.24147   1.25888   1.26118   1.27835
 Alpha virt. eigenvalues --    1.28445   1.31809   1.46663   1.52664   1.62851
 Alpha virt. eigenvalues --    1.65434   1.69242   1.73005   1.73022   1.76623
 Alpha virt. eigenvalues --    1.77862   1.85097   1.89663   1.98222   1.98569
 Alpha virt. eigenvalues --    2.09113   2.11488   2.19323   2.23116   2.25060
 Alpha virt. eigenvalues --    2.25226   2.25955   2.27931   2.28716   2.29269
 Alpha virt. eigenvalues --    2.31695   2.32566   2.36038   2.37547   2.39409
 Alpha virt. eigenvalues --    2.46082   2.49076   2.56608   2.60481   2.62400
 Alpha virt. eigenvalues --    2.64956   2.66381   2.71924   2.72863   2.73904
 Alpha virt. eigenvalues --    2.79728   2.79937   2.83086   2.92880   2.93493
 Alpha virt. eigenvalues --    3.00497   3.01372   3.08170   3.19090   3.22269
          Condensed to atoms (all electrons):
               1          2          3          4          5          6
     1  C    5.108101   0.342027  -0.055939   0.003930  -0.000079   0.000001
     2  C    0.342027   5.072361   0.354125  -0.052426   0.003882  -0.000072
     3  C   -0.055939   0.354125   5.088760   0.357242  -0.052341   0.003866
     4  C    0.003930  -0.052426   0.357242   5.079620   0.356733  -0.052341
     5  C   -0.000079   0.003882  -0.052341   0.356733   5.079620   0.357242
     6  C    0.000001  -0.000072   0.003866  -0.052341   0.357242   5.088759
     7  C   -0.000000   0.000001  -0.000072   0.003882  -0.052425   0.354124
     8  C    0.000000  -0.000000   0.000001  -0.000079   0.003930  -0.055940
     9  H    0.395856  -0.033562   0.004060  -0.000081   0.000001  -0.000000
    10  H   -0.000000   0.000000  -0.000000   0.000001  -0.000081   0.004060
    11  H   -0.000000  -0.000000  -0.000000  -0.000001  -0.000076  -0.003785
    12  H   -0.000056  -0.003153  -0.041682   0.397147  -0.041662  -0.003216
    13  H    0.391720  -0.041278  -0.003784  -0.000076  -0.000001  -0.000000
    14  H    0.391720  -0.041278  -0.003784  -0.000076  -0.000001  -0.000000
    15  H   -0.041154   0.399227  -0.043251  -0.003201  -0.000064  -0.000001
    16  H   -0.041154   0.399227  -0.043251  -0.003201  -0.000064  -0.000001
    17  H   -0.002871  -0.041778   0.396420  -0.041671  -0.003220  -0.000059
    18  H   -0.002871  -0.041778   0.396420  -0.041671  -0.003220  -0.000059
    19  H   -0.000056  -0.003153  -0.041681   0.397146  -0.041661  -0.003217
    20  H   -0.000000  -0.000057  -0.003216  -0.041661   0.397147  -0.041682
    21  H   -0.000000  -0.000057  -0.003216  -0.041661   0.397146  -0.041679
    22  H    0.000000  -0.000001  -0.000059  -0.003220  -0.041673   0.396421
    23  H    0.000000  -0.000001  -0.000059  -0.003220  -0.041670   0.396420
    24  H   -0.000000   0.000000  -0.000001  -0.000063  -0.003201  -0.043252
    25  H   -0.000000   0.000000  -0.000001  -0.000064  -0.003201  -0.043250
    26  H   -0.000000  -0.000000  -0.000000  -0.000001  -0.000076  -0.003784
               7          8          9         10         11         12
     1  C   -0.000000   0.000000   0.395856  -0.000000  -0.000000  -0.000056
     2  C    0.000001  -0.000000  -0.033562   0.000000  -0.000000  -0.003153
     3  C   -0.000072   0.000001   0.004060  -0.000000  -0.000000  -0.041682
     4  C    0.003882  -0.000079  -0.000081   0.000001  -0.000001   0.397147
     5  C   -0.052425   0.003930   0.000001  -0.000081  -0.000076  -0.041662
     6  C    0.354124  -0.055940  -0.000000   0.004060  -0.003785  -0.003216
     7  C    5.072360   0.342027   0.000000  -0.033562  -0.041278  -0.000057
     8  C    0.342027   5.108103  -0.000000   0.395856   0.391720  -0.000000
     9  H    0.000000  -0.000000   0.522174   0.000000  -0.000000   0.000001
    10  H   -0.033562   0.395856   0.000000   0.522173  -0.027153   0.000000
    11  H   -0.041278   0.391720  -0.000000  -0.027153   0.551119  -0.000002
    12  H   -0.000057  -0.000000   0.000001   0.000000  -0.000002   0.561445
    13  H   -0.000000  -0.000000  -0.027153  -0.000000   0.000000  -0.000001
    14  H   -0.000000  -0.000000  -0.027153  -0.000000  -0.000000   0.000014
    15  H    0.000000  -0.000000  -0.002332  -0.000000  -0.000000   0.000231
    16  H    0.000000  -0.000000  -0.002332  -0.000000  -0.000000   0.002365
    17  H   -0.000001   0.000000  -0.000057   0.000000   0.000000  -0.002915
    18  H   -0.000001   0.000000  -0.000057   0.000000  -0.000000   0.004508
    19  H   -0.000057  -0.000000   0.000001   0.000000   0.000000  -0.033131
    20  H   -0.003153  -0.000056   0.000000   0.000001  -0.000001   0.004494
    21  H   -0.003152  -0.000056   0.000000   0.000001   0.000014  -0.002892
    22  H   -0.041778  -0.002871   0.000000  -0.000057   0.000132   0.000260
    23  H   -0.041779  -0.002872   0.000000  -0.000057   0.002803   0.002271
    24  H    0.399228  -0.041155  -0.000000  -0.002332  -0.003350   0.000017
    25  H    0.399226  -0.041154  -0.000000  -0.002332   0.004558  -0.000003
    26  H   -0.041278   0.391719  -0.000000  -0.027153  -0.032503   0.000000
              13         14         15         16         17         18
     1  C    0.391720   0.391720  -0.041154  -0.041154  -0.002871  -0.002871
     2  C   -0.041278  -0.041278   0.399227   0.399227  -0.041778  -0.041778
     3  C   -0.003784  -0.003784  -0.043251  -0.043251   0.396420   0.396420
     4  C   -0.000076  -0.000076  -0.003201  -0.003201  -0.041671  -0.041671
     5  C   -0.000001  -0.000001  -0.000064  -0.000064  -0.003220  -0.003220
     6  C   -0.000000  -0.000000  -0.000001  -0.000001  -0.000059  -0.000059
     7  C   -0.000000  -0.000000   0.000000   0.000000  -0.000001  -0.000001
     8  C   -0.000000  -0.000000  -0.000000  -0.000000   0.000000   0.000000
     9  H   -0.027153  -0.027153  -0.002332  -0.002332  -0.000057  -0.000057
    10  H   -0.000000  -0.000000  -0.000000  -0.000000   0.000000   0.000000
    11  H    0.000000  -0.000000  -0.000000  -0.000000   0.000000  -0.000000
    12  H   -0.000001   0.000014   0.000231   0.002365  -0.002915   0.004508
    13  H    0.551119  -0.032502  -0.003350   0.004558   0.000132   0.002803
    14  H   -0.032502   0.551118   0.004558  -0.003350   0.002803   0.000132
    15  H   -0.003350   0.004558   0.563124  -0.033742   0.004597  -0.003097
    16  H    0.004558  -0.003350  -0.033742   0.563125  -0.003097   0.004597
    17  H    0.000132   0.002803   0.004597  -0.003097   0.562837  -0.033446
    18  H    0.002803   0.000132  -0.003097   0.004597  -0.033446   0.562838
    19  H    0.000014  -0.000001   0.002365   0.000231   0.004508  -0.002915
    20  H   -0.000002   0.000000   0.000017  -0.000003   0.000260   0.002271
    21  H    0.000000  -0.000002  -0.000003   0.000017   0.002271   0.000260
    22  H    0.000000  -0.000000  -0.000002   0.000001  -0.000003   0.000017
    23  H   -0.000000   0.000000   0.000001  -0.000002   0.000017  -0.000003
    24  H   -0.000000  -0.000000  -0.000000   0.000000  -0.000002   0.000001
    25  H   -0.000000  -0.000000   0.000000  -0.000000   0.000001  -0.000002
    26  H   -0.000000   0.000000  -0.000000  -0.000000  -0.000000   0.000000
              19         20         21         22         23         24
     1  C   -0.000056  -0.000000  -0.000000   0.000000   0.000000  -0.000000
     2  C   -0.003153  -0.000057  -0.000057  -0.000001  -0.000001   0.000000
     3  C   -0.041681  -0.003216  -0.003216  -0.000059  -0.000059  -0.000001
     4  C    0.397146  -0.041661  -0.041661  -0.003220  -0.003220  -0.000063
     5  C   -0.041661   0.397147   0.397146  -0.041673  -0.041670  -0.003201
     6  C   -0.003217  -0.041682  -0.041679   0.396421   0.396420  -0.043252
     7  C   -0.000057  -0.003153  -0.003152  -0.041778  -0.041779   0.399228
     8  C   -0.000000  -0.000056  -0.000056  -0.002871  -0.002872  -0.041155
     9  H    0.000001   0.000000   0.000000   0.000000   0.000000  -0.000000
    10  H    0.000000   0.000001   0.000001  -0.000057  -0.000057  -0.002332
    11  H    0.000000  -0.000001   0.000014   0.000132   0.002803  -0.003350
    12  H   -0.033131   0.004494  -0.002892   0.000260   0.002271   0.000017
    13  H    0.000014  -0.000002   0.000000   0.000000  -0.000000  -0.000000
    14  H   -0.000001   0.000000  -0.000002  -0.000000   0.000000  -0.000000
    15  H    0.002365   0.000017  -0.000003  -0.000002   0.000001  -0.000000
    16  H    0.000231  -0.000003   0.000017   0.000001  -0.000002   0.000000
    17  H    0.004508   0.000260   0.002271  -0.000003   0.000017  -0.000002
    18  H   -0.002915   0.002271   0.000260   0.000017  -0.000003   0.000001
    19  H    0.561444  -0.002893   0.004494   0.002271   0.000260  -0.000003
    20  H   -0.002893   0.561446  -0.033132  -0.002914   0.004508   0.000231
    21  H    0.004494  -0.033132   0.561446   0.004508  -0.002917   0.002365
    22  H    0.002271  -0.002914   0.004508   0.562839  -0.033447   0.004597
    23  H    0.000260   0.004508  -0.002917  -0.033447   0.562839  -0.003096
    24  H   -0.000003   0.000231   0.002365   0.004597  -0.003096   0.563126
    25  H    0.000017   0.002365   0.000231  -0.003098   0.004597  -0.033743
    26  H   -0.000002   0.000014  -0.000001   0.002803   0.000132   0.004558
              25         26
     1  C   -0.000000  -0.000000
     2  C    0.000000  -0.000000
     3  C   -0.000001  -0.000000
     4  C   -0.000064  -0.000001
     5  C   -0.003201  -0.000076
     6  C   -0.043250  -0.003784
     7  C    0.399226  -0.041278
     8  C   -0.041154   0.391719
     9  H   -0.000000  -0.000000
    10  H   -0.002332  -0.027153
    11  H    0.004558  -0.032503
    12  H   -0.000003   0.000000
    13  H   -0.000000  -0.000000
    14  H   -0.000000   0.000000
    15  H    0.000000  -0.000000
    16  H   -0.000000  -0.000000
    17  H    0.000001  -0.000000
    18  H   -0.000002   0.000000
    19  H    0.000017  -0.000002
    20  H    0.002365   0.000014
    21  H    0.000231  -0.000001
    22  H   -0.003098   0.002803
    23  H    0.004597   0.000132
    24  H   -0.033743   0.004558
    25  H    0.563126  -0.003350
    26  H   -0.003350   0.551120
 Mulliken charges:
               1
     1  C   -0.489173
     2  C   -0.312257
     3  C   -0.308555
     4  C   -0.310985
     5  C   -0.310985
     6  C   -0.308554
     7  C   -0.312256
     8  C   -0.489173
     9  H    0.170635
    10  H    0.170636
    11  H    0.157801
    12  H    0.156016
    13  H    0.157802
    14  H    0.157802
    15  H    0.156076
    16  H    0.156076
    17  H    0.155274
    18  H    0.155273
    19  H    0.156017
    20  H    0.156016
    21  H    0.156016
    22  H    0.155273
    23  H    0.155273
    24  H    0.156075
    25  H    0.156076
    26  H    0.157801
 Sum of Mulliken charges =  -0.00000
 Mulliken charges with hydrogens summed into heavy atoms:
               1
     1  C   -0.002934
     2  C   -0.000104
     3  C    0.001991
     4  C    0.001048
     5  C    0.001047
     6  C    0.001992
     7  C   -0.000105
     8  C   -0.002935
 Electronic spatial extent (au):  <R**2>=           2430.2110
 Charge=             -0.0000 electrons
 Dipole moment (field-independent basis, Debye):
    X=              0.0000    Y=              0.0000    Z=             -0.0000  Tot=              0.0000
 Quadrupole moment (field-independent basis, Debye-Ang):
   XX=            -57.0402   YY=            -56.1426   ZZ=            -54.5414
   XY=             -0.7223   XZ=             -0.0001   YZ=             -0.0003
 Traceless Quadrupole moment (field-independent basis, Debye-Ang):
   XX=             -1.1321   YY=             -0.2345   ZZ=              1.3666
   XY=             -0.7223   XZ=             -0.0001   YZ=             -0.0003
 Octapole moment (field-independent basis, Debye-Ang**2):
  XXX=              0.0026  YYY=             -0.0105  ZZZ=              0.0026  XYY=              0.0008
  XXY=             -0.0034  XXZ=             -0.0000  XZZ=              0.0011  YZZ=             -0.0034
  YYZ=              0.0007  XYZ=             -0.0004
 Hexadecapole moment (field-independent basis, Debye-Ang**3):
 XXXX=          -3156.7923 YYYY=           -193.5758 ZZZZ=           -110.5453 XXXY=            -92.6948
 XXXZ=             -0.0248 YYYX=            -53.3093 YYYZ=             -0.0121 ZZZX=             -0.0164
 ZZZY=             -0.0059 XXYY=           -556.0504 XXZZ=           -535.9010 YYZZ=            -45.8167
 XXYZ=             -0.0043 YYXZ=             -0.0069 ZZXY=            -15.3710
 N-N= 3.751494932395D+02 E-N=-1.479005363283D+03  KE= 3.137847585505D+02
 No NMR shielding tensors so no spin-rotation constants.
 Leave Link  601 at Thu Aug 29 20:24:45 2019, MaxMem=   280000000 cpu:               0.6 elap:               0.1
 (Enter /home/soft/g16/l9999.exe)
 1\1\GINC-NODE18\SP\RHF\6-31G(d)\C8H18\ROOT\29-Aug-2019\0\\#p hf/6-31g(
 d) 5d 7f nosymm\\Atom number=26\\0,1\C,0,4.474329,0.409546,0.000126\C,
 0,3.19418,-0.428143,-0.000156\C,0,1.918145,0.4158,0.000124\C,0,0.638,-
 0.421895,-0.000149\C,0,-0.638038,0.422037,0.00011\C,0,-1.918178,-0.415
 658,-0.000065\C,0,-3.194218,0.428261,-0.000059\C,0,-4.474353,-0.409444
 ,-0.000063\H,0,5.36679422,-0.18071309,-0.00007123\H,0,-5.36682691,0.18
 080198,-0.00004971\H,0,-4.475936,-1.063266,0.870548\H,0,0.636403,-1.07
 5973,0.870268\H,0,4.47593,1.06364,-0.870278\H,0,4.475929,1.063056,0.87
 0968\H,0,3.192581,-1.081654,-0.870997\H,0,3.192579,-1.082235,0.87025\H
 ,0,1.919744,1.069316,0.870962\H,0,1.919742,1.069887,-0.870286\H,0,0.63
 641,-1.075422,-0.870979\H,0,-0.636465,1.076076,-0.870338\H,0,-0.636417
 ,1.075615,0.870904\H,0,-1.919713,-1.069374,-0.870755\H,0,-1.919821,-1.
 069558,0.870487\H,0,-3.192634,1.082072,0.87056\H,0,-3.192634,1.082069,
 -0.870681\H,0,-4.475948,-1.063238,-0.870696\\Version=ES64L-G16RevA.03\
 HF=-313.434408\RMSD=2.707e-09\Dipole=0.0000011,0.0000004,-0.0000044\Qu
 adrupole=-0.8416867,-0.174364,1.0160508,-0.5370426,-0.0000963,-0.00025
 79\PG=C01 [X(C8H18)]\\@


 IF AT FIRST YOU DON'T SUCCEED, TRY, TRY AGAIN.
 THEN GIVE UP;
 THERE'S NO USE BEING A DAMN FOOL ABOUT IT.

                                 -- W. C. FIELDS
 Job cpu time:       0 days  0 hours  0 minutes 12.9 seconds.
 Elapsed time:       0 days  0 hours  0 minutes  3.1 seconds.
 File lengths (MBytes):  RWF=     72 Int=      0 D2E=      0 Chk=      8 Scr=      8
 Normal termination of Gaussian 16 at Thu Aug 29 20:24:45 2019.
