#INFO: **** input file is /home/liwei01/wsr/dftpart/mp_example/32ane/32ane_subsys/32ane_6.py ****
from dftpart import scfeda
import numpy as np
from QCKit import logger
                     
subeda = scfeda.EDA()
subeda.method = ["hf", "6-311gss"]
subeda.gjf = '32ane_subsys/32ane_6.gjf'
subeda.output =  subeda.gjf[:-4]
subatm_E, subE, conv = subeda.kernel()
atom_E = np.zeros(98)
resultlog = '32ane-result_6.log'
with open(resultlog,'a') as g:
    logger.slog(g, "## center atom energies in subsystem 6:")
    cen_intot = [25, 26, 27, 28, 29, 30, 31, 32, 33, 34, 84, 85, 86, 87, 88, 89, 90, 91, 92, 93, 94, 95, 96, 97, 98]
    cen_insub = [5, 6, 7, 8, 9, 10, 11, 12, 14, 15, 24, 25, 26, 27, 28, 29, 30, 31, 32, 33, 34, 35, 36, 37, 38]
    for i in range(len(cen_intot)):                        
        atom_E[cen_intot[i]-1] = subatm_E[cen_insub[i]-1]                        
        logger.slog(g, "%d %.10f", cen_intot[i], atom_E[cen_intot[i]-1])
#INFO: ******************** input file end ********************


System: uname_result(system='Linux', node='node11', release='3.10.0-693.el7.x86_64', version='#1 SMP Tue Aug 22 21:09:27 UTC 2017', machine='x86_64', processor='x86_64')  Threads 24
Python 3.6.4 |Anaconda, Inc.| (default, Jan 16 2018, 18:10:19) 
[GCC 7.2.0]
numpy 1.14.0  scipy 1.0.0
Date: Wed Sep 11 20:03:13 2019
PySCF version 1.5.4
PySCF path  /home/liwei01/liaokang/anaconda3/lib/python3.6/site-packages/pyscf

[CONFIG] conf_file None
[INPUT] verbose = 4
[INPUT] num. atoms = 38
[INPUT] num. electrons = 98
[INPUT] charge = 0
[INPUT] spin (= nelec alpha-beta = 2S) = 0
[INPUT] symmetry False subgroup None
[INPUT] Mole.unit = angstrom
[INPUT]  1 C     -5.750393000000   0.434477000000  -0.000044000000 AA  -10.866667878616   0.821042537423  -0.000083147949 Bohr
[INPUT]  2 C     -7.030525000000  -0.403230000000   0.000030000000 AA  -13.285766761908  -0.761994265208   0.000056691784 Bohr
[INPUT]  3 C     -8.306562000000   0.440692000000  -0.000190000000 AA  -15.697127216719   0.832787185287  -0.000359047964 Bohr
[INPUT]  4 C     -9.586689000000  -0.397022000000   0.000053000000 AA  -18.116216651381  -0.750262845427   0.000100155485 Bohr
[INPUT]  5 C    -10.862723000000   0.446905000000  -0.000154000000 AA  -20.527571437014   0.844528053699  -0.000291017823 Bohr
[INPUT]  6 C    -12.142844000000  -0.390814000000   0.000168000000 AA  -22.946649533318  -0.738531425646   0.000317473989 Bohr
[INPUT]  7 C    -13.418867000000   0.453124000000  -0.000280000000 AA  -25.357983531964   0.856280260467  -0.000529123315 Bohr
[INPUT]  8 C    -14.698968000000  -0.384621000000   0.000211000000 AA  -27.777023833746  -0.726828351756   0.000398732212 Bohr
[INPUT]  9 C    -15.974986000000   0.459334000000  -0.000224000000 AA  -30.188348383761   0.868015459701  -0.000423298652 Bohr
[INPUT] 10 C    -17.255053000000  -0.378198000000   0.000349000000 AA  -32.607324434855  -0.714690640858   0.000659514417 Bohr
[INPUT] 11 C    -18.531572000000   0.464871000000  -0.000347000000 AA  -35.019595737658   0.878478873253  -0.000655734965 Bohr
[INPUT] 12 C    -19.805822000000  -0.378986000000   0.000419000000 AA  -37.427579251885  -0.716179745044   0.000791795246 Bohr
[INPUT] 13 H     -4.857919090000  -0.155768980000  -0.000057290000 AA   -9.180136615396  -0.294360710903  -0.000108262410 Bohr
[INPUT] 14 H    -19.852399000000  -1.017925000000   0.877881000000 AA  -37.515597025589  -1.923599465348   1.658954659959 Bohr
[INPUT] 15 H    -14.700574000000  -1.037926000000   0.871197000000 AA  -27.780058733902  -1.961395877565   1.646323730543 Bohr
[INPUT] 16 H     -5.748833000000   1.088263000000  -0.870682000000 AA  -10.863719905862   2.056519021498  -1.645350521589 Bohr
[INPUT] 17 H     -5.748776000000   1.088306000000   0.870562000000 AA  -10.863612191473   2.056600279721   1.645123754454 Bohr
[INPUT] 18 H     -7.032066000000  -1.057190000000  -0.870476000000 AA  -13.288678829866  -1.997799561629  -1.644961238007 Bohr
[INPUT] 19 H     -7.032158000000  -1.056883000000   0.870768000000 AA  -13.288852684669  -1.997219415709   1.645513038035 Bohr
[INPUT] 20 H     -8.304973000000   1.094747000000   0.870246000000 AA  -15.694124441907   2.068772005689   1.644526600998 Bohr
[INPUT] 21 H     -8.304988000000   1.094252000000  -0.870997000000 AA  -15.694152787799   2.067836591258  -1.645945785318 Bohr
[INPUT] 22 H     -9.588293000000  -1.051059000000  -0.870396000000 AA  -18.119247772084  -1.986213650759  -1.644810059917 Bohr
[INPUT] 23 H     -9.588266000000  -1.050596000000   0.870850000000 AA  -18.119196749479  -1.985338707564   1.645667995577 Bohr
[INPUT] 24 H    -10.861174000000   1.100442000000  -0.870978000000 AA  -20.524644251247   2.079533995969  -1.645909880521 Bohr
[INPUT] 25 H    -10.861102000000   1.100977000000   0.870268000000 AA  -20.524508190966   2.080544999445   1.644568174973 Bohr
[INPUT] 26 H    -12.144398000000  -1.045015000000  -0.870156000000 AA  -22.949586167716  -1.974792146062  -1.644356525647 Bohr
[INPUT] 27 H    -12.144475000000  -1.044215000000   0.871092000000 AA  -22.949731676627  -1.973280365163   1.646125309300 Bohr
[INPUT] 28 H    -13.417282000000   1.107415000000   0.869976000000 AA  -25.354988316057   2.092711056235   1.644016374945 Bohr
[INPUT] 29 H    -13.417312000000   1.106429000000  -0.871276000000 AA  -25.355045007840   2.090847786276  -1.646473018907 Bohr
[INPUT] 30 H    -14.700616000000  -1.038881000000  -0.870057000000 AA  -27.780138102399  -1.963200566014  -1.644169442761 Bohr
[INPUT] 31 H    -15.973511000000   1.112604000000  -0.871264000000 AA  -30.185561037727   2.102516845096  -1.646450342193 Bohr
[INPUT] 32 H    -15.973421000000   1.113635000000   0.870042000000 AA  -30.185390962376   2.104465152730   1.644141096869 Bohr
[INPUT] 33 H    -17.257642000000  -1.032795000000  -0.869819000000 AA  -32.612216935791  -1.951699692820  -1.643719687943 Bohr
[INPUT] 34 H    -17.257716000000  -1.031477000000   0.871507000000 AA  -32.612356775524  -1.949209033788   1.646909545641 Bohr
[INPUT] 35 H    -18.531601000000   1.118572000000   0.869391000000 AA  -35.019650539716   2.113794730607   1.642910885162 Bohr
[INPUT] 36 H    -18.531646000000   1.117046000000  -0.871231000000 AA  -35.019735577392   2.110911008541  -1.646387981231 Bohr
[INPUT] 37 H    -20.693056000000   0.246810000000  -0.000065000000 AA  -39.104208520288   0.466403304804  -0.000122832198 Bohr
[INPUT] 38 H    -19.852481000000  -1.019397000000  -0.875965000000 AA  -37.515751983132  -1.926381142203  -1.655333944705 Bohr

nuclear repulsion = 672.404196845685
number of shells = 200
number of NR pGTOs = 580
number of NR cGTOs = 372
basis = 6-311gss
ecp = {}
CPU time:         2.94


******** <class 'pyscf.scf.hf.RHF'> flags ********
method = RHF
initial guess = minao
damping factor = 0
level shift factor = 0
DIIS = <class 'pyscf.scf.diis.CDIIS'>
DIIS start cycle = 1
DIIS space = 8
SCF tol = 1e-09
SCF gradient tol = None
max. SCF cycles = 50
direct_scf = True
direct_scf_tol = 1e-13
chkfile to save SCF result = /home/liwei01/wsr/dftpart/mp_example/32ane/tmp3syytk1t
max_memory 4000 MB (current use 86 MB)
Set gradient conv threshold to 3.16228e-05
init E= -472.866439937281
  HOMO = -0.343216908041969  LUMO = 0.0936096919626131
cycle= 1 E= -469.571674236269  delta_E= 3.29  |g|= 0.584  |ddm|= 4.37
  HOMO = -0.382034939517396  LUMO = 0.159225309530421
cycle= 2 E= -469.681223928601  delta_E= -0.11  |g|= 0.153  |ddm|= 0.601
  HOMO = -0.427524311356485  LUMO = 0.154588750849152
cycle= 3 E= -469.689823161264  delta_E= -0.0086  |g|= 0.0572  |ddm|= 0.208
  HOMO = -0.415325747888993  LUMO = 0.158023204509317
cycle= 4 E= -469.690794290545  delta_E= -0.000971  |g|= 0.00624  |ddm|= 0.0534
  HOMO = -0.416402133905609  LUMO = 0.157958038699879
cycle= 5 E= -469.690813383567  delta_E= -1.91e-05  |g|= 0.0017  |ddm|= 0.0117
  HOMO = -0.416638408094474  LUMO = 0.157935016088396
cycle= 6 E= -469.690814320083  delta_E= -9.37e-07  |g|= 0.00042  |ddm|= 0.00193
  HOMO = -0.416634656987961  LUMO = 0.157936061859512
cycle= 7 E= -469.690814403371  delta_E= -8.33e-08  |g|= 7.22e-05  |ddm|= 0.000797
  HOMO = -0.416644719946482  LUMO = 0.157934270147711
cycle= 8 E= -469.690814406092  delta_E= -2.72e-09  |g|= 1.5e-05  |ddm|= 0.000179
  HOMO = -0.416644426007889  LUMO = 0.157934258391476
cycle= 9 E= -469.690814406164  delta_E= -7.23e-11  |g|= 4.24e-06  |ddm|= 1.99e-05
  HOMO = -0.416644728622597  LUMO = 0.157934239994324
Extra cycle  E= -469.690814406174  delta_E= -9.55e-12  |g|= 1.75e-06  |ddm|= 6.99e-06
converged SCF energy = -469.690814406174
