#INFO: **** input file is /home/liwei01/wsr/dftpart/mp_example/32ane/32ane_subsys/32ane_1.py ****
from dftpart import scfeda
import numpy as np
from QCKit import logger
                     
subeda = scfeda.EDA()
subeda.method = ["hf", "6-311gss"]
subeda.gjf = '32ane_subsys/32ane_1.gjf'
subeda.output =  subeda.gjf[:-4]
subatm_E, subE, conv = subeda.kernel()
atom_E = np.zeros(98)
resultlog = '32ane-result_1.log'
with open(resultlog,'a') as g:
    logger.slog(g, "## center atom energies in subsystem 1:")
    cen_intot = [1, 2, 3, 4, 5, 6, 7, 8, 37, 38, 39, 40, 41, 42, 43, 44, 45, 46, 47, 48, 49, 50, 51, 52, 53]
    cen_insub = [1, 2, 3, 4, 5, 6, 7, 8, 14, 15, 16, 17, 18, 19, 20, 21, 22, 23, 24, 25, 26, 27, 28, 29, 30]
    for i in range(len(cen_intot)):                        
        atom_E[cen_intot[i]-1] = subatm_E[cen_insub[i]-1]                        
        logger.slog(g, "%d %.10f", cen_intot[i], atom_E[cen_intot[i]-1])
#INFO: ******************** input file end ********************


System: uname_result(system='Linux', node='node03', release='3.10.0-693.el7.x86_64', version='#1 SMP Tue Aug 22 21:09:27 UTC 2017', machine='x86_64', processor='x86_64')  Threads 24
Python 3.6.4 |Anaconda, Inc.| (default, Jan 16 2018, 18:10:19) 
[GCC 7.2.0]
numpy 1.14.0  scipy 1.0.0
Date: Wed Sep 11 20:03:13 2019
PySCF version 1.5.4
PySCF path  /home/liwei01/liaokang/anaconda3/lib/python3.6/site-packages/pyscf

[CONFIG] conf_file None
[INPUT] verbose = 4
[INPUT] num. atoms = 38
[INPUT] num. electrons = 98
[INPUT] charge = 0
[INPUT] spin (= nelec alpha-beta = 2S) = 0
[INPUT] symmetry False subgroup None
[INPUT] Mole.unit = angstrom
[INPUT]  1 C     19.805866000000   0.378823000000   0.000178000000 AA   37.427662399835   0.715871719686   0.000336371250 Bohr
[INPUT]  2 C     18.531600000000  -0.465018000000  -0.000115000000 AA   35.019648649990  -0.878756662993  -0.000217318504 Bohr
[INPUT]  3 C     17.255090000000   0.378081000000   0.000164000000 AA   32.607394354721   0.714469542902   0.000309915084 Bohr
[INPUT]  4 C     15.975006000000  -0.459434000000  -0.000127000000 AA   30.188386178284  -0.868204432313  -0.000239995218 Bohr
[INPUT]  5 C     14.698996000000   0.384549000000   0.000153000000 AA   27.777076746077   0.726692291475   0.000289128097 Bohr
[INPUT]  6 C     13.418878000000  -0.453176000000  -0.000137000000 AA   25.358004318951  -0.856378526226  -0.000258892479 Bohr
[INPUT]  7 C     12.142861000000   0.390790000000   0.000143000000 AA   22.946681658662   0.738486072219   0.000270230836 Bohr
[INPUT]  8 C     10.862721000000  -0.446912000000  -0.000146000000 AA   20.527567657562  -0.844541281782  -0.000275900014 Bohr
[INPUT]  9 C      9.586692000000   0.397040000000   0.000135000000 AA   18.116222320559   0.750296860497   0.000255113027 Bohr
[INPUT] 10 C      8.306546000000  -0.440654000000  -0.000153000000 AA   15.697096981101  -0.832715375694  -0.000289128097 Bohr
[INPUT] 11 C      7.030512000000   0.403292000000   0.000129000000 AA   13.285742195468   0.762111428228   0.000243774670 Bohr
[INPUT] 12 C      5.750363000000  -0.434398000000  -0.000156000000 AA   10.866611186832  -0.820893249059  -0.000294797275 Bohr
[INPUT] 13 H      4.857897780000   0.155861090000   0.000041230000 AA    9.180096345333   0.294534773576   0.000077913408 Bohr
[INPUT] 14 H     20.693090000000  -0.246986000000  -0.000030000000 AA   39.104272770976  -0.466735896602  -0.000056691784 Bohr
[INPUT] 15 H     19.852490000000   1.018793000000  -0.876528000000 AA   37.515768990667   1.925239747624  -1.656397860513 Bohr
[INPUT] 16 H     19.852481000000   1.018197000000   0.877318000000 AA   37.515751983132   1.924113470854   1.657890744151 Bohr
[INPUT] 17 H     18.531643000000  -1.117652000000  -0.870651000000 AA   35.019729908213  -2.112056182572  -1.645291940079 Bohr
[INPUT] 18 H     18.531634000000  -1.118243000000   0.869977000000 AA   35.019712900678  -2.113173010712   1.644018264671 Bohr
[INPUT] 19 H     17.257726000000   1.031717000000   0.871051000000 AA   32.612375672786   1.949662568058   1.646047830529 Bohr
[INPUT] 20 H     17.257735000000   1.032308000000  -0.870279000000 AA   32.612392680321   1.950779396198  -1.644588961960 Bohr
[INPUT] 21 H     15.973479000000  -1.112916000000  -0.871004000000 AA   30.185500566491  -2.103106439646  -1.645959013401 Bohr
[INPUT] 22 H     15.973470000000  -1.113507000000   0.870307000000 AA   30.185483558956  -2.104223267786   1.644641874292 Bohr
[INPUT] 23 H     14.700641000000   1.038620000000  -0.870254000000 AA   27.780185345552   1.962707347496  -1.644541718807 Bohr
[INPUT] 24 H     14.700632000000   1.038030000000   0.871004000000 AA   27.780168338017   1.961592409082   1.645959013401 Bohr
[INPUT] 25 H     13.417295000000  -1.106670000000  -0.870988000000 AA   25.355012882496  -2.091303210272  -1.645928777783 Bohr
[INPUT] 26 H     13.417287000000  -1.107260000000   0.870270000000 AA   25.354997764687  -2.092418148686   1.644571954425 Bohr
[INPUT] 27 H     12.144465000000   1.044289000000   0.870990000000 AA   22.949712779366   1.973420204896   1.645932557235 Bohr
[INPUT] 28 H     12.144472000000   1.044878000000  -0.870262000000 AA   22.949726007449   1.974533253583  -1.644556836616 Bohr
[INPUT] 29 H     10.861129000000  -1.100414000000  -0.870992000000 AA   20.524559213571  -2.079481083637  -1.645936336687 Bohr
[INPUT] 30 H     10.861122000000  -1.101003000000   0.870258000000 AA   20.524545985488  -2.080594132325   1.644549277712 Bohr
[INPUT] 31 H      9.588298000000   1.051132000000  -0.870269000000 AA   18.119257220715   1.986351600766  -1.644570064699 Bohr
[INPUT] 32 H      9.588292000000   1.050544000000   0.870980000000 AA   18.119245882358   1.985240441805   1.645913659974 Bohr
[INPUT] 33 H      8.304951000000  -1.094160000000  -0.870998000000 AA   15.694082867933  -2.067662736454  -1.645947675044 Bohr
[INPUT] 34 H      8.304945000000  -1.094748000000   0.870250000000 AA   15.694071529576  -2.068773895415   1.644534159903 Bohr
[INPUT] 35 H      7.032112000000   1.056799000000   0.870973000000 AA   13.288765757267   1.997060678714   1.645900431891 Bohr
[INPUT] 36 H      7.032116000000   1.057386000000  -0.870274000000 AA   13.288773316172   1.998169947949  -1.644579513330 Bohr
[INPUT] 37 H      5.748766000000  -1.087906000000  -0.871001000000 AA   10.863593294211  -2.055844389271  -1.645953344222 Bohr
[INPUT] 38 H      5.748762000000  -1.088493000000   0.870246000000 AA   10.863585735307  -2.056953658506   1.644526600998 Bohr

nuclear repulsion = 672.402118887574
number of shells = 200
number of NR pGTOs = 580
number of NR cGTOs = 372
basis = 6-311gss
ecp = {}
CPU time:         2.94


******** <class 'pyscf.scf.hf.RHF'> flags ********
method = RHF
initial guess = minao
damping factor = 0
level shift factor = 0
DIIS = <class 'pyscf.scf.diis.CDIIS'>
DIIS start cycle = 1
DIIS space = 8
SCF tol = 1e-09
SCF gradient tol = None
max. SCF cycles = 50
direct_scf = True
direct_scf_tol = 1e-13
chkfile to save SCF result = /home/liwei01/wsr/dftpart/mp_example/32ane/tmpt5downtp
max_memory 4000 MB (current use 63 MB)
Set gradient conv threshold to 3.16228e-05
init E= -472.866357516536
  HOMO = -0.343216040283067  LUMO = 0.0936093832842799
cycle= 1 E= -469.571674920966  delta_E= 3.29  |g|= 0.584  |ddm|= 4.37
  HOMO = -0.38203400211468  LUMO = 0.159225038931484
cycle= 2 E= -469.681224029798  delta_E= -0.11  |g|= 0.153  |ddm|= 0.601
  HOMO = -0.427522046370645  LUMO = 0.154588719136897
cycle= 3 E= -469.689823163092  delta_E= -0.0086  |g|= 0.0572  |ddm|= 0.208
  HOMO = -0.415323803438268  LUMO = 0.158023094557201
cycle= 4 E= -469.690794247071  delta_E= -0.000971  |g|= 0.00624  |ddm|= 0.0534
  HOMO = -0.416400188276177  LUMO = 0.157957930963911
cycle= 5 E= -469.690813339848  delta_E= -1.91e-05  |g|= 0.0017  |ddm|= 0.0117
  HOMO = -0.416636471250909  LUMO = 0.157934906123446
cycle= 6 E= -469.690814276345  delta_E= -9.36e-07  |g|= 0.00042  |ddm|= 0.00193
  HOMO = -0.416632721740602  LUMO = 0.15793595202674
cycle= 7 E= -469.69081435963  delta_E= -8.33e-08  |g|= 7.22e-05  |ddm|= 0.000797
  HOMO = -0.416642784619487  LUMO = 0.157934160426715
cycle= 8 E= -469.690814362352  delta_E= -2.72e-09  |g|= 1.5e-05  |ddm|= 0.000179
  HOMO = -0.416642490828392  LUMO = 0.157934148667513
cycle= 9 E= -469.690814362422  delta_E= -7e-11  |g|= 4.24e-06  |ddm|= 1.99e-05
  HOMO = -0.416642793425936  LUMO = 0.157934130278703
Extra cycle  E= -469.690814362431  delta_E= -9.09e-12  |g|= 1.75e-06  |ddm|= 6.99e-06
converged SCF energy = -469.690814362431
