 Entering Gaussian System, Link 0=g16
 Input=32ane_7.gjf
 Output=32ane_7.log
 Initial command:
 /home/soft/g16/l1.exe "/tmp/liwei01/gaussian/liaokang/Gau-199846.inp" -scrdir="/tmp/liwei01/gaussian/liaokang/"
 Entering Link 1 = /home/soft/g16/l1.exe PID=    199847.
  
 Copyright (c) 1988,1990,1992,1993,1995,1998,2003,2009,2016,
            Gaussian, Inc.  All Rights Reserved.
  
 This is part of the Gaussian(R) 16 program.  It is based on
 the Gaussian(R) 09 system (copyright 2009, Gaussian, Inc.),
 the Gaussian(R) 03 system (copyright 2003, Gaussian, Inc.),
 the Gaussian(R) 98 system (copyright 1998, Gaussian, Inc.),
 the Gaussian(R) 94 system (copyright 1995, Gaussian, Inc.),
 the Gaussian 92(TM) system (copyright 1992, Gaussian, Inc.),
 the Gaussian 90(TM) system (copyright 1990, Gaussian, Inc.),
 the Gaussian 88(TM) system (copyright 1988, Gaussian, Inc.),
 the Gaussian 86(TM) system (copyright 1986, Carnegie Mellon
 University), and the Gaussian 82(TM) system (copyright 1983,
 Carnegie Mellon University). Gaussian is a federally registered
 trademark of Gaussian, Inc.
  
 This software contains proprietary and confidential information,
 including trade secrets, belonging to Gaussian, Inc.
  
 This software is provided under written license and may be
 used, copied, transmitted, or stored only in accord with that
 written license.
  
 The following legend is applicable only to US Government
 contracts under FAR:
  
                    RESTRICTED RIGHTS LEGEND
  
 Use, reproduction and disclosure by the US Government is
 subject to restrictions as set forth in subparagraphs (a)
 and (c) of the Commercial Computer Software - Restricted
 Rights clause in FAR 52.227-19.
  
 Gaussian, Inc.
 340 Quinnipiac St., Bldg. 40, Wallingford CT 06492
  
  
 ---------------------------------------------------------------
 Warning -- This program may not be used in any manner that
 competes with the business of Gaussian, Inc. or will provide
 assistance to any competitor of Gaussian, Inc.  The licensee
 of this program is prohibited from giving any competitor of
 Gaussian, Inc. access to this program.  By using this program,
 the user acknowledges that Gaussian, Inc. is engaged in the
 business of creating and licensing software in the field of
 computational chemistry and represents and warrants to the
 licensee that it is not a competitor of Gaussian, Inc. and that
 it will not use this program in any manner prohibited above.
 ---------------------------------------------------------------
  

 Cite this work as:
 Gaussian 16, Revision A.03,
 M. J. Frisch, G. W. Trucks, H. B. Schlegel, G. E. Scuseria, 
 M. A. Robb, J. R. Cheeseman, G. Scalmani, V. Barone, 
 G. A. Petersson, H. Nakatsuji, X. Li, M. Caricato, A. V. Marenich, 
 J. Bloino, B. G. Janesko, R. Gomperts, B. Mennucci, H. P. Hratchian, 
 J. V. Ortiz, A. F. Izmaylov, J. L. Sonnenberg, D. Williams-Young, 
 F. Ding, F. Lipparini, F. Egidi, J. Goings, B. Peng, A. Petrone, 
 T. Henderson, D. Ranasinghe, V. G. Zakrzewski, J. Gao, N. Rega, 
 G. Zheng, W. Liang, M. Hada, M. Ehara, K. Toyota, R. Fukuda, 
 J. Hasegawa, M. Ishida, T. Nakajima, Y. Honda, O. Kitao, H. Nakai, 
 T. Vreven, K. Throssell, J. A. Montgomery, Jr., J. E. Peralta, 
 F. Ogliaro, M. J. Bearpark, J. J. Heyd, E. N. Brothers, K. N. Kudin, 
 V. N. Staroverov, T. A. Keith, R. Kobayashi, J. Normand, 
 K. Raghavachari, A. P. Rendell, J. C. Burant, S. S. Iyengar, 
 J. Tomasi, M. Cossi, J. M. Millam, M. Klene, C. Adamo, R. Cammi, 
 J. W. Ochterski, R. L. Martin, K. Morokuma, O. Farkas, 
 J. B. Foresman, and D. J. Fox, Gaussian, Inc., Wallingford CT, 2016.
 
 ******************************************
 Gaussian 16:  ES64L-G16RevA.03 25-Dec-2016
                29-Aug-2019 
 ******************************************
 %chk=32ane_7.chk
 %nproc=6
 Will use up to    6 processors via shared memory.
 ---------------------------
 #p hf/6-31g(d) 5d 7f nosymm
 ---------------------------
 1/38=1,172=1/1;
 2/12=2,15=1,17=6,18=5,40=1/2;
 3/5=1,6=6,7=1,8=11,11=9,25=1,30=1/1,2,3;
 4//1;
 5/5=2,38=5/2;
 6/7=2,8=2,9=2,10=2,28=1/1;
 99/5=1,9=1/99;
 Leave Link    1 at Thu Aug 29 20:24:39 2019, MaxMem=           0 cpu:               0.3 elap:               0.1
 (Enter /home/soft/g16/l101.exe)
 --------------
 Atom number=26
 --------------
 Symbolic Z-matrix:
 Charge =  0 Multiplicity = 1
 c                     14.699    0.38455   0.00015 
 c                     13.41888  -0.45318  -0.00014 
 c                     12.14286   0.39079   0.00014 
 c                     10.86272  -0.44691  -0.00015 
 c                     9.58669   0.39704   0.00014 
 c                     8.30655  -0.44065  -0.00015 
 c                     7.03051   0.40329   0.00013 
 c                     5.75036  -0.4344   -0.00016 
 h                     15.59144  -0.20574  -0.00004 
 h                     4.8579    0.15586   0.00004 
 h                     14.70064   1.03862  -0.87025 
 h                     14.70063   1.03803   0.871 
 h                     13.41729  -1.10667  -0.87099 
 h                     13.41729  -1.10726   0.87027 
 h                     12.14447   1.04429   0.87099 
 h                     12.14447   1.04488  -0.87026 
 h                     10.86113  -1.10041  -0.87099 
 h                     10.86112  -1.101     0.87026 
 h                     9.5883    1.05113  -0.87027 
 h                     9.58829   1.05054   0.87098 
 h                     8.30495  -1.09416  -0.871 
 h                     8.30495  -1.09475   0.87025 
 h                     7.03211   1.0568    0.87097 
 h                     7.03212   1.05739  -0.87027 
 h                     5.74877  -1.08791  -0.871 
 h                     5.74876  -1.08849   0.87025 
 
 ITRead=  0  0  0  0  0  0  0  0  0  0  0  0  0  0  0  0  0  0  0  0
 ITRead=  0  0  0  0  0  0
 MicOpt= -1 -1 -1 -1 -1 -1 -1 -1 -1 -1 -1 -1 -1 -1 -1 -1 -1 -1 -1 -1
 MicOpt= -1 -1 -1 -1 -1 -1
 NAtoms=     26 NQM=       26 NQMF=       0 NMMI=      0 NMMIF=      0
                NMic=       0 NMicF=      0.
                    Isotopes and Nuclear Properties:
 (Nuclear quadrupole moments (NQMom) in fm**2, nuclear magnetic moments (NMagM)
  in nuclear magnetons)

  Atom         1           2           3           4           5           6           7           8           9          10
 IAtWgt=          12          12          12          12          12          12          12          12           1           1
 AtmWgt=  12.0000000  12.0000000  12.0000000  12.0000000  12.0000000  12.0000000  12.0000000  12.0000000   1.0078250   1.0078250
 NucSpn=           0           0           0           0           0           0           0           0           1           1
 AtZEff=  -0.0000000  -0.0000000  -0.0000000  -0.0000000  -0.0000000  -0.0000000  -0.0000000  -0.0000000  -0.0000000  -0.0000000
 NQMom=    0.0000000   0.0000000   0.0000000   0.0000000   0.0000000   0.0000000   0.0000000   0.0000000   0.0000000   0.0000000
 NMagM=    0.0000000   0.0000000   0.0000000   0.0000000   0.0000000   0.0000000   0.0000000   0.0000000   2.7928460   2.7928460
 AtZNuc=   6.0000000   6.0000000   6.0000000   6.0000000   6.0000000   6.0000000   6.0000000   6.0000000   1.0000000   1.0000000

  Atom        11          12          13          14          15          16          17          18          19          20
 IAtWgt=           1           1           1           1           1           1           1           1           1           1
 AtmWgt=   1.0078250   1.0078250   1.0078250   1.0078250   1.0078250   1.0078250   1.0078250   1.0078250   1.0078250   1.0078250
 NucSpn=           1           1           1           1           1           1           1           1           1           1
 AtZEff=  -0.0000000  -0.0000000  -0.0000000  -0.0000000  -0.0000000  -0.0000000  -0.0000000  -0.0000000  -0.0000000  -0.0000000
 NQMom=    0.0000000   0.0000000   0.0000000   0.0000000   0.0000000   0.0000000   0.0000000   0.0000000   0.0000000   0.0000000
 NMagM=    2.7928460   2.7928460   2.7928460   2.7928460   2.7928460   2.7928460   2.7928460   2.7928460   2.7928460   2.7928460
 AtZNuc=   1.0000000   1.0000000   1.0000000   1.0000000   1.0000000   1.0000000   1.0000000   1.0000000   1.0000000   1.0000000

  Atom        21          22          23          24          25          26
 IAtWgt=           1           1           1           1           1           1
 AtmWgt=   1.0078250   1.0078250   1.0078250   1.0078250   1.0078250   1.0078250
 NucSpn=           1           1           1           1           1           1
 AtZEff=  -0.0000000  -0.0000000  -0.0000000  -0.0000000  -0.0000000  -0.0000000
 NQMom=    0.0000000   0.0000000   0.0000000   0.0000000   0.0000000   0.0000000
 NMagM=    2.7928460   2.7928460   2.7928460   2.7928460   2.7928460   2.7928460
 AtZNuc=   1.0000000   1.0000000   1.0000000   1.0000000   1.0000000   1.0000000
 Leave Link  101 at Thu Aug 29 20:24:39 2019, MaxMem=   280000000 cpu:               0.5 elap:               0.1
 (Enter /home/soft/g16/l202.exe)
                          Input orientation:                          
 ---------------------------------------------------------------------
 Center     Atomic      Atomic             Coordinates (Angstroms)
 Number     Number       Type             X           Y           Z
 ---------------------------------------------------------------------
      1          6           0       14.698996    0.384549    0.000153
      2          6           0       13.418878   -0.453176   -0.000137
      3          6           0       12.142861    0.390790    0.000143
      4          6           0       10.862721   -0.446912   -0.000146
      5          6           0        9.586692    0.397040    0.000135
      6          6           0        8.306546   -0.440654   -0.000153
      7          6           0        7.030512    0.403292    0.000129
      8          6           0        5.750363   -0.434398   -0.000156
      9          1           0       15.591444   -0.205737   -0.000043
     10          1           0        4.857898    0.155861    0.000041
     11          1           0       14.700641    1.038620   -0.870254
     12          1           0       14.700632    1.038030    0.871004
     13          1           0       13.417295   -1.106670   -0.870988
     14          1           0       13.417287   -1.107260    0.870270
     15          1           0       12.144465    1.044289    0.870990
     16          1           0       12.144472    1.044878   -0.870262
     17          1           0       10.861129   -1.100414   -0.870992
     18          1           0       10.861122   -1.101003    0.870258
     19          1           0        9.588298    1.051132   -0.870269
     20          1           0        9.588292    1.050544    0.870980
     21          1           0        8.304951   -1.094160   -0.870998
     22          1           0        8.304945   -1.094748    0.870250
     23          1           0        7.032112    1.056799    0.870973
     24          1           0        7.032116    1.057386   -0.870274
     25          1           0        5.748766   -1.087906   -0.871001
     26          1           0        5.748762   -1.088493    0.870246
 ---------------------------------------------------------------------
                    Distance matrix (angstroms):
                    1          2          3          4          5
     1  C    0.000000
     2  C    1.529864   0.000000
     3  C    2.556143   1.529869   0.000000
     4  C    3.925345   2.556165   1.529870   0.000000
     5  C    5.112319   3.925368   2.556177   1.529871   0.000000
     6  C    6.445493   5.112347   3.925380   2.556183   1.529871
     7  C    7.668507   6.445522   5.112364   3.925388   2.556188
     8  C    8.986028   7.668538   6.445538   5.112373   3.925393
     9  H    1.070000   2.186611   3.499795   4.734869   6.034930
    10  H    9.843755   8.582617   7.288750   6.035001   4.734941
    11  H    1.088770   2.150692   2.778401   4.206367   5.227014
    12  H    1.088771   2.150692   2.778401   4.206366   5.227013
    13  H    2.150669   1.088778   2.150683   2.778398   4.206366
    14  H    2.150669   1.088778   2.150683   2.778397   4.206366
    15  H    2.778352   2.150672   1.088778   2.150680   2.778403
    16  H    2.778354   2.150673   1.088778   2.150680   2.778403
    17  H    4.206332   2.778378   2.150675   1.088779   2.150679
    18  H    4.206331   2.778378   2.150675   1.088779   2.150679
    19  H    5.226969   4.206354   2.778392   2.150675   1.088780
    20  H    5.226967   4.206353   2.778391   2.150675   1.088780
    21  H    6.620370   5.226998   4.206366   2.778399   2.150677
    22  H    6.620368   5.226997   4.206365   2.778399   2.150676
    23  H    7.745409   6.620396   5.227013   4.206371   2.778402
    24  H    7.745412   6.620398   5.227015   4.206373   2.778404
    25  H    9.112280   7.745444   6.620414   5.227026   4.206378
    26  H    9.112278   7.745442   6.620412   5.227024   4.206377
                    6          7          8          9         10
     6  C    0.000000
     7  C    1.529872   0.000000
     8  C    2.556191   1.529871   0.000000
     9  H    7.288684   8.582568   9.843737   0.000000
    10  H    3.499858   2.186658   1.070000  10.739635   0.000000
    11  H    6.620406   7.745456   9.112317   1.760460   9.920498
    12  H    6.620405   7.745454   9.112315   1.760461   9.920495
    13  H    5.227015   6.620410   7.745460   2.509412   8.695744
    14  H    5.227014   6.620408   7.745457   2.509411   8.695741
    15  H    4.206372   5.227025   6.620419   3.768677   7.392017
    16  H    4.206373   5.227026   6.620421   3.768678   7.392019
    17  H    2.778406   4.206377   5.227032   4.892328   6.194813
    18  H    2.778405   4.206376   5.227030   4.892327   6.194811
    19  H    2.150678   2.778409   4.206381   6.194737   4.892406
    20  H    2.150678   2.778409   4.206380   6.194736   4.892404
    21  H    1.088781   2.150679   2.778412   7.391944   3.768745
    22  H    1.088780   2.150678   2.778409   7.391942   3.768743
    23  H    2.150676   1.088781   2.150678   8.695678   2.509466
    24  H    2.150676   1.088780   2.150678   8.695681   2.509466
    25  H    2.778408   2.150677   1.088782   9.920438   1.760488
    26  H    2.778408   2.150676   1.088780   9.920436   1.760486
                   11         12         13         14         15
    11  H    0.000000
    12  H    1.741258   0.000000
    13  H    2.499849   3.046511   0.000000
    14  H    3.046510   2.499849   1.741258   0.000000
    15  H    3.092895   2.556175   3.046508   2.499848   0.000000
    16  H    2.556177   3.092896   2.499848   3.046507   1.741252
    17  H    4.395147   4.727502   2.556174   3.092892   3.046507
    18  H    4.727502   4.395145   3.092893   2.556173   2.499850
    19  H    5.112358   5.400756   4.395148   4.727503   3.092898
    20  H    5.400755   5.112355   4.727503   4.395147   2.556181
    21  H    6.741929   6.963156   5.112359   5.400756   4.727510
    22  H    6.963156   6.741925   5.400757   5.112357   4.395156
    23  H    7.863748   7.668543   6.963159   6.741929   5.112368
    24  H    7.668548   7.863750   6.741932   6.963160   5.400767
    25  H    9.200988   9.364299   7.668552   7.863753   6.963171
    26  H    9.364299   9.200982   7.863754   7.668548   6.741942
                   16         17         18         19         20
    16  H    0.000000
    17  H    2.499850   0.000000
    18  H    3.046507   1.741250   0.000000
    19  H    2.556182   2.499850   3.046506   0.000000
    20  H    3.092897   3.046506   2.499850   1.741249   0.000000
    21  H    4.395157   2.556186   3.092900   2.499852   3.046507
    22  H    4.727510   3.092900   2.556185   3.046507   2.499852
    23  H    5.400765   4.727513   4.395160   3.092902   2.556188
    24  H    5.112371   4.395161   4.727513   2.556190   3.092903
    25  H    6.741945   5.112378   5.400772   4.395167   4.727518
    26  H    6.963171   5.400773   5.112375   4.727518   4.395164
                   21         22         23         24         25
    21  H    0.000000
    22  H    1.741248   0.000000
    23  H    3.046507   2.499852   0.000000
    24  H    2.499852   3.046506   1.741247   0.000000
    25  H    2.556193   3.092904   3.046508   2.499853   0.000000
    26  H    3.092906   2.556191   2.499853   3.046507   1.741247
                   26
    26  H    0.000000
 Symmetry turned off by external request.
 Stoichiometry    C8H18
 Framework group  C1[X(C8H18)]
 Deg. of freedom    72
 Full point group                 C1      NOp   1
 Rotational constants (GHZ):          10.8431683           0.4891819           0.4789082
 Leave Link  202 at Thu Aug 29 20:24:39 2019, MaxMem=   280000000 cpu:               0.1 elap:               0.0
 (Enter /home/soft/g16/l301.exe)
 Standard basis: 6-31G(d) (5D, 7F)
 Ernie: Thresh=  0.10000D-02 Tol=  0.10000D-05 Strict=F.
   148 basis functions,   296 primitive gaussians,   156 cartesian basis functions
    33 alpha electrons       33 beta electrons
       nuclear repulsion energy       375.1503237479 Hartrees.
 IExCor=    0 DFT=F Ex=HF Corr=None ExCW=0 ScaHFX=  1.000000
 ScaDFX=  1.000000  1.000000  1.000000  1.000000 ScalE2=  1.000000  1.000000
 IRadAn=      5 IRanWt=     -1 IRanGd=            0 ICorTp=0 IEmpDi=  4
 NAtoms=   26 NActive=   26 NUniq=   26 SFac= 1.00D+00 NAtFMM=   60 NAOKFM=F Big=F
 Integral buffers will be    131072 words long.
 Raffenetti 1 integral format.
 Two-electron integral symmetry is turned off.
 Leave Link  301 at Thu Aug 29 20:24:39 2019, MaxMem=   280000000 cpu:               0.3 elap:               0.1
 (Enter /home/soft/g16/l302.exe)
 NPDir=0 NMtPBC=     1 NCelOv=     1 NCel=       1 NClECP=     1 NCelD=      1
         NCelK=      1 NCelE2=     1 NClLst=     1 CellRange=     0.0.
 One-electron integrals computed using PRISM.
 NBasis=   148 RedAO= T EigKep=  2.99D-03  NBF=   148
 NBsUse=   148 1.00D-06 EigRej= -1.00D+00 NBFU=   148
 Leave Link  302 at Thu Aug 29 20:24:39 2019, MaxMem=   280000000 cpu:               0.6 elap:               0.1
 (Enter /home/soft/g16/l303.exe)
 DipDrv:  MaxL=1.
 Leave Link  303 at Thu Aug 29 20:24:39 2019, MaxMem=   280000000 cpu:               0.2 elap:               0.0
 (Enter /home/soft/g16/l401.exe)
 ExpMin= 1.61D-01 ExpMax= 3.05D+03 ExpMxC= 4.57D+02 IAcc=3 IRadAn=         5 AccDes= 0.00D+00
 Harris functional with IExCor=  205 and IRadAn=       5 diagonalized for initial guess.
 HarFok:  IExCor=  205 AccDes= 0.00D+00 IRadAn=         5 IDoV= 1 UseB2=F ITyADJ=14
 ICtDFT=  3500011 ScaDFX=  1.000000  1.000000  1.000000  1.000000
 FoFCou: FMM=F IPFlag=           0 FMFlag=      100000 FMFlg1=           0
         NFxFlg=           0 DoJE=T BraDBF=F KetDBF=T FulRan=T
         wScrn=  0.000000 ICntrl=       500 IOpCl=  0 I1Cent=   200000004 NGrid=           0
         NMat0=    1 NMatS0=      1 NMatT0=    0 NMatD0=    1 NMtDS0=    0 NMtDT0=    0
 Symmetry not used in FoFCou.
 Harris En= -314.305276782300    
 JPrj=0 DoOrth=F DoCkMO=F.
 Leave Link  401 at Thu Aug 29 20:24:40 2019, MaxMem=   280000000 cpu:               4.0 elap:               0.7
 (Enter /home/soft/g16/l502.exe)
 Keep R1 ints in memory in canonical form, NReq=62727728.
 FoFCou: FMM=F IPFlag=           0 FMFlag=           0 FMFlg1=           0
         NFxFlg=           0 DoJE=F BraDBF=F KetDBF=F FulRan=T
         wScrn=  0.000000 ICntrl=       600 IOpCl=  0 I1Cent=           0 NGrid=           0
         NMat0=    1 NMatS0=  11026 NMatT0=    0 NMatD0=    1 NMtDS0=    0 NMtDT0=    0
 Symmetry not used in FoFCou.
 Two-electron integral symmetry not used.
 Closed shell SCF:
 Using DIIS extrapolation, IDIIS=  1040.
 NGot=   280000000 LenX=   219156783 LenY=   219132006
 Requested convergence on RMS density matrix=1.00D-08 within 128 cycles.
 Requested convergence on MAX density matrix=1.00D-06.
 Requested convergence on             energy=1.00D-06.
 No special actions if energy rises.

 Cycle   1  Pass 1  IDiag  1:
 E= -312.897593608999    
 DIIS: error= 6.71D-02 at cycle   1 NSaved=   1.
 NSaved= 1 IEnMin= 1 EnMin= -312.897593608999     IErMin= 1 ErrMin= 6.71D-02
 ErrMax= 6.71D-02  0.00D+00 EMaxC= 1.00D-01 BMatC= 5.30D-01 BMatP= 5.30D-01
 IDIUse=3 WtCom= 3.29D-01 WtEn= 6.71D-01
 Coeff-Com:  0.100D+01
 Coeff-En:   0.100D+01
 Coeff:      0.100D+01
 Gap=     0.645 Goal=   None    Shift=    0.000
 GapD=    0.645 DampG=2.000 DampE=0.500 DampFc=1.0000 IDamp=-1.
 RMSDP=5.92D-03 MaxDP=1.22D-01              OVMax= 1.34D-01

 Cycle   2  Pass 1  IDiag  1:
 E= -313.350568207722     Delta-E=       -0.452974598723 Rises=F Damp=F
 DIIS: error= 2.38D-02 at cycle   2 NSaved=   2.
 NSaved= 2 IEnMin= 2 EnMin= -313.350568207722     IErMin= 2 ErrMin= 2.38D-02
 ErrMax= 2.38D-02  0.00D+00 EMaxC= 1.00D-01 BMatC= 8.48D-02 BMatP= 5.30D-01
 IDIUse=3 WtCom= 7.62D-01 WtEn= 2.38D-01
 Coeff-Com:  0.258D+00 0.742D+00
 Coeff-En:   0.000D+00 0.100D+01
 Coeff:      0.196D+00 0.804D+00
 Gap=     0.675 Goal=   None    Shift=    0.000
 RMSDP=2.03D-03 MaxDP=3.21D-02 DE=-4.53D-01 OVMax= 4.47D-02

 Cycle   3  Pass 1  IDiag  1:
 E= -313.432000871280     Delta-E=       -0.081432663558 Rises=F Damp=F
 DIIS: error= 4.17D-03 at cycle   3 NSaved=   3.
 NSaved= 3 IEnMin= 3 EnMin= -313.432000871280     IErMin= 3 ErrMin= 4.17D-03
 ErrMax= 4.17D-03  0.00D+00 EMaxC= 1.00D-01 BMatC= 1.91D-03 BMatP= 8.48D-02
 IDIUse=3 WtCom= 9.58D-01 WtEn= 4.17D-02
 Coeff-Com: -0.306D-01 0.626D-01 0.968D+00
 Coeff-En:   0.000D+00 0.000D+00 0.100D+01
 Coeff:     -0.293D-01 0.599D-01 0.969D+00
 Gap=     0.655 Goal=   None    Shift=    0.000
 RMSDP=2.98D-04 MaxDP=6.62D-03 DE=-8.14D-02 OVMax= 8.28D-03

 Cycle   4  Pass 1  IDiag  1:
 E= -313.434338783818     Delta-E=       -0.002337912538 Rises=F Damp=F
 DIIS: error= 6.27D-04 at cycle   4 NSaved=   4.
 NSaved= 4 IEnMin= 4 EnMin= -313.434338783818     IErMin= 4 ErrMin= 6.27D-04
 ErrMax= 6.27D-04  0.00D+00 EMaxC= 1.00D-01 BMatC= 3.92D-05 BMatP= 1.91D-03
 IDIUse=3 WtCom= 9.94D-01 WtEn= 6.27D-03
 Coeff-Com: -0.121D-02-0.191D-01-0.633D-01 0.108D+01
 Coeff-En:   0.000D+00 0.000D+00 0.000D+00 0.100D+01
 Coeff:     -0.120D-02-0.190D-01-0.629D-01 0.108D+01
 Gap=     0.656 Goal=   None    Shift=    0.000
 RMSDP=7.26D-05 MaxDP=1.15D-03 DE=-2.34D-03 OVMax= 1.91D-03

 Cycle   5  Pass 1  IDiag  1:
 E= -313.434403048872     Delta-E=       -0.000064265055 Rises=F Damp=F
 DIIS: error= 2.14D-04 at cycle   5 NSaved=   5.
 NSaved= 5 IEnMin= 5 EnMin= -313.434403048872     IErMin= 5 ErrMin= 2.14D-04
 ErrMax= 2.14D-04  0.00D+00 EMaxC= 1.00D-01 BMatC= 4.67D-06 BMatP= 3.92D-05
 IDIUse=3 WtCom= 9.98D-01 WtEn= 2.14D-03
 Coeff-Com:  0.214D-02-0.934D-02-0.883D-01 0.214D+00 0.881D+00
 Coeff-En:   0.000D+00 0.000D+00 0.000D+00 0.000D+00 0.100D+01
 Coeff:      0.214D-02-0.932D-02-0.881D-01 0.214D+00 0.882D+00
 Gap=     0.657 Goal=   None    Shift=    0.000
 RMSDP=2.07D-05 MaxDP=3.47D-04 DE=-6.43D-05 OVMax= 5.00D-04

 Cycle   6  Pass 1  IDiag  1:
 E= -313.434409366219     Delta-E=       -0.000006317347 Rises=F Damp=F
 DIIS: error= 2.55D-05 at cycle   6 NSaved=   6.
 NSaved= 6 IEnMin= 6 EnMin= -313.434409366219     IErMin= 6 ErrMin= 2.55D-05
 ErrMax= 2.55D-05  0.00D+00 EMaxC= 1.00D-01 BMatC= 9.17D-08 BMatP= 4.67D-06
 IDIUse=1 WtCom= 1.00D+00 WtEn= 0.00D+00
 Coeff-Com:  0.205D-03-0.111D-03-0.409D-02-0.312D-01 0.563D-01 0.979D+00
 Coeff:      0.205D-03-0.111D-03-0.409D-02-0.312D-01 0.563D-01 0.979D+00
 Gap=     0.657 Goal=   None    Shift=    0.000
 RMSDP=4.36D-06 MaxDP=6.57D-05 DE=-6.32D-06 OVMax= 9.90D-05

 Cycle   7  Pass 1  IDiag  1:
 E= -313.434409524450     Delta-E=       -0.000000158231 Rises=F Damp=F
 DIIS: error= 5.36D-06 at cycle   7 NSaved=   7.
 NSaved= 7 IEnMin= 7 EnMin= -313.434409524450     IErMin= 7 ErrMin= 5.36D-06
 ErrMax= 5.36D-06  0.00D+00 EMaxC= 1.00D-01 BMatC= 3.71D-09 BMatP= 9.17D-08
 IDIUse=1 WtCom= 1.00D+00 WtEn= 0.00D+00
 Coeff-Com: -0.441D-04 0.248D-03 0.233D-02-0.816D-02-0.228D-01 0.463D-01
 Coeff-Com:  0.982D+00
 Coeff:     -0.441D-04 0.248D-03 0.233D-02-0.816D-02-0.228D-01 0.463D-01
 Coeff:      0.982D+00
 Gap=     0.657 Goal=   None    Shift=    0.000
 RMSDP=8.94D-07 MaxDP=1.36D-05 DE=-1.58D-07 OVMax= 2.30D-05

 Cycle   8  Pass 1  IDiag  1:
 E= -313.434409530798     Delta-E=       -0.000000006348 Rises=F Damp=F
 DIIS: error= 1.90D-06 at cycle   8 NSaved=   8.
 NSaved= 8 IEnMin= 8 EnMin= -313.434409530798     IErMin= 8 ErrMin= 1.90D-06
 ErrMax= 1.90D-06  0.00D+00 EMaxC= 1.00D-01 BMatC= 3.78D-10 BMatP= 3.71D-09
 IDIUse=1 WtCom= 1.00D+00 WtEn= 0.00D+00
 Coeff-Com: -0.175D-04 0.319D-04 0.536D-03 0.143D-02-0.623D-02-0.679D-01
 Coeff-Com:  0.109D+00 0.963D+00
 Coeff:     -0.175D-04 0.319D-04 0.536D-03 0.143D-02-0.623D-02-0.679D-01
 Coeff:      0.109D+00 0.963D+00
 Gap=     0.657 Goal=   None    Shift=    0.000
 RMSDP=2.82D-07 MaxDP=3.88D-06 DE=-6.35D-09 OVMax= 7.01D-06

 Cycle   9  Pass 1  IDiag  1:
 E= -313.434409531484     Delta-E=       -0.000000000686 Rises=F Damp=F
 DIIS: error= 4.38D-07 at cycle   9 NSaved=   9.
 NSaved= 9 IEnMin= 9 EnMin= -313.434409531484     IErMin= 9 ErrMin= 4.38D-07
 ErrMax= 4.38D-07  0.00D+00 EMaxC= 1.00D-01 BMatC= 2.37D-11 BMatP= 3.78D-10
 IDIUse=1 WtCom= 1.00D+00 WtEn= 0.00D+00
 Coeff-Com:  0.428D-05-0.201D-04-0.204D-03 0.496D-03 0.221D-02 0.144D-02
 Coeff-Com: -0.792D-01-0.734D-01 0.115D+01
 Coeff:      0.428D-05-0.201D-04-0.204D-03 0.496D-03 0.221D-02 0.144D-02
 Coeff:     -0.792D-01-0.734D-01 0.115D+01
 Gap=     0.657 Goal=   None    Shift=    0.000
 RMSDP=8.95D-08 MaxDP=1.41D-06 DE=-6.86D-10 OVMax= 2.75D-06

 Cycle  10  Pass 1  IDiag  1:
 E= -313.434409531550     Delta-E=       -0.000000000067 Rises=F Damp=F
 DIIS: error= 6.94D-08 at cycle  10 NSaved=  10.
 NSaved=10 IEnMin=10 EnMin= -313.434409531550     IErMin=10 ErrMin= 6.94D-08
 ErrMax= 6.94D-08  0.00D+00 EMaxC= 1.00D-01 BMatC= 1.08D-12 BMatP= 2.37D-11
 IDIUse=1 WtCom= 1.00D+00 WtEn= 0.00D+00
 Coeff-Com:  0.697D-06-0.757D-06-0.213D-04-0.116D-03 0.274D-03 0.415D-02
 Coeff-Com: -0.260D-02-0.558D-01-0.549D-01 0.111D+01
 Coeff:      0.697D-06-0.757D-06-0.213D-04-0.116D-03 0.274D-03 0.415D-02
 Coeff:     -0.260D-02-0.558D-01-0.549D-01 0.111D+01
 Gap=     0.657 Goal=   None    Shift=    0.000
 RMSDP=1.82D-08 MaxDP=2.67D-07 DE=-6.65D-11 OVMax= 5.31D-07

 Cycle  11  Pass 1  IDiag  1:
 E= -313.434409531545     Delta-E=        0.000000000006 Rises=F Damp=F
 DIIS: error= 1.74D-08 at cycle  11 NSaved=  11.
 NSaved=11 IEnMin=10 EnMin= -313.434409531550     IErMin=11 ErrMin= 1.74D-08
 ErrMax= 1.74D-08  0.00D+00 EMaxC= 1.00D-01 BMatC= 6.13D-14 BMatP= 1.08D-12
 IDIUse=1 WtCom= 1.00D+00 WtEn= 0.00D+00
 Coeff-Com: -0.105D-06 0.783D-06 0.592D-05-0.298D-04-0.654D-04 0.323D-03
 Coeff-Com:  0.297D-02-0.222D-02-0.495D-01 0.990D-01 0.949D+00
 Coeff:     -0.105D-06 0.783D-06 0.592D-05-0.298D-04-0.654D-04 0.323D-03
 Coeff:      0.297D-02-0.222D-02-0.495D-01 0.990D-01 0.949D+00
 Gap=     0.657 Goal=   None    Shift=    0.000
 RMSDP=2.71D-09 MaxDP=4.66D-08 DE= 5.57D-12 OVMax= 8.78D-08

 SCF Done:  E(RHF) =  -313.434409532     A.U. after   11 cycles
            NFock= 11  Conv=0.27D-08     -V/T= 1.9989
 KE= 3.137848429246D+02 PE=-1.479007142424D+03 EE= 4.766375662198D+02
 Leave Link  502 at Thu Aug 29 20:24:42 2019, MaxMem=   280000000 cpu:               5.4 elap:               1.7
 (Enter /home/soft/g16/l601.exe)
 Copying SCF densities to generalized density rwf, IOpCl= 0 IROHF=0.

 **********************************************************************

            Population analysis using the SCF density.

 **********************************************************************

 Alpha  occ. eigenvalues --  -11.20997 -11.20997 -11.20880 -11.20859 -11.20822
 Alpha  occ. eigenvalues --  -11.20784 -11.20231 -11.20230  -1.09111  -1.06136
 Alpha  occ. eigenvalues --   -1.01351  -0.95098  -0.87953  -0.81431  -0.78745
 Alpha  occ. eigenvalues --   -0.78486  -0.65717  -0.63069  -0.59944  -0.59081
 Alpha  occ. eigenvalues --   -0.57811  -0.56729  -0.54470  -0.53194  -0.50193
 Alpha  occ. eigenvalues --   -0.49751  -0.49198  -0.47229  -0.46654  -0.45961
 Alpha  occ. eigenvalues --   -0.45810  -0.45578  -0.42857
 Alpha virt. eigenvalues --    0.22822   0.23895   0.25713   0.26335   0.27080
 Alpha virt. eigenvalues --    0.29450   0.29604   0.30289   0.32635   0.33499
 Alpha virt. eigenvalues --    0.33519   0.34467   0.34903   0.35325   0.35604
 Alpha virt. eigenvalues --    0.35872   0.37215   0.37735   0.38160   0.40397
 Alpha virt. eigenvalues --    0.41895   0.42266   0.47247   0.49521   0.49894
 Alpha virt. eigenvalues --    0.68443   0.69013   0.70404   0.75257   0.75554
 Alpha virt. eigenvalues --    0.76538   0.77113   0.78642   0.82635   0.82825
 Alpha virt. eigenvalues --    0.84751   0.86131   0.93030   0.94629   0.97232
 Alpha virt. eigenvalues --    0.97332   0.98982   1.02146   1.04454   1.09190
 Alpha virt. eigenvalues --    1.10963   1.11768   1.12252   1.14418   1.14701
 Alpha virt. eigenvalues --    1.18115   1.18440   1.19710   1.20334   1.20358
 Alpha virt. eigenvalues --    1.22232   1.22307   1.22554   1.22681   1.23192
 Alpha virt. eigenvalues --    1.23635   1.24147   1.25889   1.26119   1.27836
 Alpha virt. eigenvalues --    1.28445   1.31809   1.46665   1.52664   1.62851
 Alpha virt. eigenvalues --    1.65435   1.69242   1.73005   1.73021   1.76624
 Alpha virt. eigenvalues --    1.77861   1.85097   1.89664   1.98222   1.98569
 Alpha virt. eigenvalues --    2.09115   2.11489   2.19324   2.23115   2.25061
 Alpha virt. eigenvalues --    2.25225   2.25955   2.27931   2.28717   2.29269
 Alpha virt. eigenvalues --    2.31695   2.32566   2.36038   2.37547   2.39408
 Alpha virt. eigenvalues --    2.46081   2.49078   2.56609   2.60482   2.62401
 Alpha virt. eigenvalues --    2.64956   2.66381   2.71924   2.72864   2.73904
 Alpha virt. eigenvalues --    2.79729   2.79937   2.83086   2.92879   2.93492
 Alpha virt. eigenvalues --    3.00496   3.01371   3.08170   3.19090   3.22269
          Condensed to atoms (all electrons):
               1          2          3          4          5          6
     1  C    5.108106   0.342028  -0.055947   0.003930  -0.000079   0.000001
     2  C    0.342028   5.072361   0.354124  -0.052430   0.003882  -0.000072
     3  C   -0.055947   0.354124   5.088768   0.357241  -0.052344   0.003866
     4  C    0.003930  -0.052430   0.357241   5.079624   0.356733  -0.052343
     5  C   -0.000079   0.003882  -0.052344   0.356733   5.079622   0.357241
     6  C    0.000001  -0.000072   0.003866  -0.052343   0.357241   5.088761
     7  C   -0.000000   0.000001  -0.000072   0.003882  -0.052426   0.354125
     8  C    0.000000  -0.000000   0.000001  -0.000079   0.003930  -0.055939
     9  H    0.395856  -0.033568   0.004061  -0.000081   0.000001  -0.000000
    10  H   -0.000000   0.000000  -0.000000   0.000001  -0.000081   0.004060
    11  H    0.391721  -0.041274  -0.003785  -0.000076  -0.000001  -0.000000
    12  H    0.391721  -0.041274  -0.003785  -0.000076  -0.000001  -0.000000
    13  H   -0.041154   0.399229  -0.043250  -0.003201  -0.000064  -0.000001
    14  H   -0.041154   0.399229  -0.043250  -0.003201  -0.000064  -0.000001
    15  H   -0.002871  -0.041778   0.396421  -0.041670  -0.003220  -0.000059
    16  H   -0.002871  -0.041778   0.396421  -0.041670  -0.003220  -0.000059
    17  H   -0.000056  -0.003153  -0.041681   0.397147  -0.041661  -0.003216
    18  H   -0.000056  -0.003153  -0.041681   0.397147  -0.041661  -0.003216
    19  H   -0.000000  -0.000057  -0.003217  -0.041661   0.397147  -0.041681
    20  H   -0.000000  -0.000057  -0.003217  -0.041661   0.397147  -0.041681
    21  H    0.000000  -0.000001  -0.000059  -0.003220  -0.041671   0.396420
    22  H    0.000000  -0.000001  -0.000059  -0.003220  -0.041671   0.396420
    23  H   -0.000000   0.000000  -0.000001  -0.000064  -0.003201  -0.043251
    24  H   -0.000000   0.000000  -0.000001  -0.000064  -0.003201  -0.043251
    25  H   -0.000000  -0.000000  -0.000000  -0.000001  -0.000076  -0.003784
    26  H   -0.000000  -0.000000  -0.000000  -0.000001  -0.000076  -0.003784
               7          8          9         10         11         12
     1  C   -0.000000   0.000000   0.395856  -0.000000   0.391721   0.391721
     2  C    0.000001  -0.000000  -0.033568   0.000000  -0.041274  -0.041274
     3  C   -0.000072   0.000001   0.004061  -0.000000  -0.003785  -0.003785
     4  C    0.003882  -0.000079  -0.000081   0.000001  -0.000076  -0.000076
     5  C   -0.052426   0.003930   0.000001  -0.000081  -0.000001  -0.000001
     6  C    0.354125  -0.055939  -0.000000   0.004060  -0.000000  -0.000000
     7  C    5.072361   0.342027   0.000000  -0.033562  -0.000000  -0.000000
     8  C    0.342027   5.108102  -0.000000   0.395856  -0.000000  -0.000000
     9  H    0.000000  -0.000000   0.522189   0.000000  -0.027156  -0.027155
    10  H   -0.033562   0.395856   0.000000   0.522175  -0.000000  -0.000000
    11  H   -0.000000  -0.000000  -0.027156  -0.000000   0.551110  -0.032499
    12  H   -0.000000  -0.000000  -0.027155  -0.000000  -0.032499   0.551110
    13  H    0.000000  -0.000000  -0.002333  -0.000000  -0.003349   0.004558
    14  H    0.000000  -0.000000  -0.002333  -0.000000   0.004558  -0.003349
    15  H   -0.000001   0.000000  -0.000057   0.000000   0.000132   0.002803
    16  H   -0.000001   0.000000  -0.000057   0.000000   0.002803   0.000132
    17  H   -0.000057  -0.000000   0.000001   0.000000   0.000014  -0.000001
    18  H   -0.000057  -0.000000   0.000001   0.000000  -0.000001   0.000014
    19  H   -0.003153  -0.000056   0.000000   0.000001  -0.000002   0.000000
    20  H   -0.003153  -0.000056   0.000000   0.000001   0.000000  -0.000002
    21  H   -0.041778  -0.002871   0.000000  -0.000057   0.000000  -0.000000
    22  H   -0.041778  -0.002871   0.000000  -0.000057  -0.000000   0.000000
    23  H    0.399227  -0.041154  -0.000000  -0.002332  -0.000000  -0.000000
    24  H    0.399227  -0.041154  -0.000000  -0.002332  -0.000000  -0.000000
    25  H   -0.041278   0.391720  -0.000000  -0.027153  -0.000000   0.000000
    26  H   -0.041278   0.391720  -0.000000  -0.027153   0.000000  -0.000000
              13         14         15         16         17         18
     1  C   -0.041154  -0.041154  -0.002871  -0.002871  -0.000056  -0.000056
     2  C    0.399229   0.399229  -0.041778  -0.041778  -0.003153  -0.003153
     3  C   -0.043250  -0.043250   0.396421   0.396421  -0.041681  -0.041681
     4  C   -0.003201  -0.003201  -0.041670  -0.041670   0.397147   0.397147
     5  C   -0.000064  -0.000064  -0.003220  -0.003220  -0.041661  -0.041661
     6  C   -0.000001  -0.000001  -0.000059  -0.000059  -0.003216  -0.003216
     7  C    0.000000   0.000000  -0.000001  -0.000001  -0.000057  -0.000057
     8  C   -0.000000  -0.000000   0.000000   0.000000  -0.000000  -0.000000
     9  H   -0.002333  -0.002333  -0.000057  -0.000057   0.000001   0.000001
    10  H   -0.000000  -0.000000   0.000000   0.000000   0.000000   0.000000
    11  H   -0.003349   0.004558   0.000132   0.002803   0.000014  -0.000001
    12  H    0.004558  -0.003349   0.002803   0.000132  -0.000001   0.000014
    13  H    0.563118  -0.033739   0.004597  -0.003096   0.002365   0.000231
    14  H   -0.033739   0.563118  -0.003096   0.004597   0.000231   0.002365
    15  H    0.004597  -0.003096   0.562833  -0.033445   0.004508  -0.002915
    16  H   -0.003096   0.004597  -0.033445   0.562833  -0.002915   0.004508
    17  H    0.002365   0.000231   0.004508  -0.002915   0.561442  -0.033130
    18  H    0.000231   0.002365  -0.002915   0.004508  -0.033130   0.561443
    19  H    0.000017  -0.000003   0.000260   0.002271  -0.002892   0.004494
    20  H   -0.000003   0.000017   0.002271   0.000260   0.004494  -0.002892
    21  H   -0.000002   0.000001  -0.000003   0.000017   0.002271   0.000260
    22  H    0.000001  -0.000002   0.000017  -0.000003   0.000260   0.002271
    23  H   -0.000000   0.000000  -0.000002   0.000001  -0.000003   0.000017
    24  H    0.000000  -0.000000   0.000001  -0.000002   0.000017  -0.000003
    25  H   -0.000000  -0.000000  -0.000000   0.000000  -0.000002   0.000000
    26  H   -0.000000  -0.000000   0.000000  -0.000000   0.000000  -0.000002
              19         20         21         22         23         24
     1  C   -0.000000  -0.000000   0.000000   0.000000  -0.000000  -0.000000
     2  C   -0.000057  -0.000057  -0.000001  -0.000001   0.000000   0.000000
     3  C   -0.003217  -0.003217  -0.000059  -0.000059  -0.000001  -0.000001
     4  C   -0.041661  -0.041661  -0.003220  -0.003220  -0.000064  -0.000064
     5  C    0.397147   0.397147  -0.041671  -0.041671  -0.003201  -0.003201
     6  C   -0.041681  -0.041681   0.396420   0.396420  -0.043251  -0.043251
     7  C   -0.003153  -0.003153  -0.041778  -0.041778   0.399227   0.399227
     8  C   -0.000056  -0.000056  -0.002871  -0.002871  -0.041154  -0.041154
     9  H    0.000000   0.000000   0.000000   0.000000  -0.000000  -0.000000
    10  H    0.000001   0.000001  -0.000057  -0.000057  -0.002332  -0.002332
    11  H   -0.000002   0.000000   0.000000  -0.000000  -0.000000  -0.000000
    12  H    0.000000  -0.000002  -0.000000   0.000000  -0.000000  -0.000000
    13  H    0.000017  -0.000003  -0.000002   0.000001  -0.000000   0.000000
    14  H   -0.000003   0.000017   0.000001  -0.000002   0.000000  -0.000000
    15  H    0.000260   0.002271  -0.000003   0.000017  -0.000002   0.000001
    16  H    0.002271   0.000260   0.000017  -0.000003   0.000001  -0.000002
    17  H   -0.002892   0.004494   0.002271   0.000260  -0.000003   0.000017
    18  H    0.004494  -0.002892   0.000260   0.002271   0.000017  -0.000003
    19  H    0.561443  -0.033130  -0.002915   0.004508   0.000231   0.002365
    20  H   -0.033130   0.561443   0.004508  -0.002915   0.002365   0.000231
    21  H   -0.002915   0.004508   0.562837  -0.033446   0.004597  -0.003097
    22  H    0.004508  -0.002915  -0.033446   0.562837  -0.003097   0.004597
    23  H    0.000231   0.002365   0.004597  -0.003097   0.563125  -0.033742
    24  H    0.002365   0.000231  -0.003097   0.004597  -0.033742   0.563125
    25  H    0.000014  -0.000001   0.002803   0.000132   0.004558  -0.003350
    26  H   -0.000001   0.000014   0.000132   0.002803  -0.003350   0.004558
              25         26
     1  C   -0.000000  -0.000000
     2  C   -0.000000  -0.000000
     3  C   -0.000000  -0.000000
     4  C   -0.000001  -0.000001
     5  C   -0.000076  -0.000076
     6  C   -0.003784  -0.003784
     7  C   -0.041278  -0.041278
     8  C    0.391720   0.391720
     9  H   -0.000000  -0.000000
    10  H   -0.027153  -0.027153
    11  H   -0.000000   0.000000
    12  H    0.000000  -0.000000
    13  H   -0.000000  -0.000000
    14  H   -0.000000  -0.000000
    15  H   -0.000000   0.000000
    16  H    0.000000  -0.000000
    17  H   -0.000002   0.000000
    18  H    0.000000  -0.000002
    19  H    0.000014  -0.000001
    20  H   -0.000001   0.000014
    21  H    0.002803   0.000132
    22  H    0.000132   0.002803
    23  H    0.004558  -0.003350
    24  H   -0.003350   0.004558
    25  H    0.551119  -0.032502
    26  H   -0.032502   0.551118
 Mulliken charges:
               1
     1  C   -0.489174
     2  C   -0.312258
     3  C   -0.308556
     4  C   -0.310986
     5  C   -0.310986
     6  C   -0.308555
     7  C   -0.312257
     8  C   -0.489173
     9  H    0.170629
    10  H    0.170635
    11  H    0.157804
    12  H    0.157804
    13  H    0.156078
    14  H    0.156078
    15  H    0.155275
    16  H    0.155275
    17  H    0.156017
    18  H    0.156017
    19  H    0.156016
    20  H    0.156017
    21  H    0.155273
    22  H    0.155273
    23  H    0.156076
    24  H    0.156076
    25  H    0.157801
    26  H    0.157802
 Sum of Mulliken charges =  -0.00000
 Mulliken charges with hydrogens summed into heavy atoms:
               1
     1  C   -0.002937
     2  C   -0.000102
     3  C    0.001993
     4  C    0.001047
     5  C    0.001048
     6  C    0.001991
     7  C   -0.000105
     8  C   -0.002935
 Electronic spatial extent (au):  <R**2>=          27070.4462
 Charge=             -0.0000 electrons
 Dipole moment (field-independent basis, Debye):
    X=              0.0000    Y=             -0.0000    Z=              0.0000  Tot=              0.0000
 Quadrupole moment (field-independent basis, Debye-Ang):
   XX=            -57.0396   YY=            -56.1425   ZZ=            -54.5411
   XY=             -0.7223   XZ=             -0.0002   YZ=             -0.0005
 Traceless Quadrupole moment (field-independent basis, Debye-Ang):
   XX=             -1.1319   YY=             -0.2348   ZZ=              1.3666
   XY=             -0.7223   XZ=             -0.0002   YZ=             -0.0005
 Octapole moment (field-independent basis, Debye-Ang**2):
  XXX=          -1749.6550  YYY=              4.1996  ZZZ=              0.0006  XYY=           -574.0038
  XXY=            -13.3471  XXZ=             -0.0050  XZZ=           -557.6658  YZZ=              1.3600
  YYZ=              0.0003  XYZ=             -0.0055
 Hexadecapole moment (field-independent basis, Debye-Ang**3):
 XXXX=         -38936.3084 YYYY=           -193.7846 ZZZZ=           -110.5447 XXXY=           -275.5608
 XXXZ=             -0.1105 YYYX=            -10.3604 YYYZ=             -0.0192 ZZZX=             -0.0145
 ZZZY=             -0.0093 XXYY=          -6424.7216 XXZZ=          -6237.8480 YYZZ=            -45.8504
 XXYZ=             -0.0638 YYXZ=             -0.0069 ZZXY=             -1.4619
 N-N= 3.751503237479D+02 E-N=-1.479007142787D+03  KE= 3.137848429246D+02
 No NMR shielding tensors so no spin-rotation constants.
 Leave Link  601 at Thu Aug 29 20:24:42 2019, MaxMem=   280000000 cpu:               0.7 elap:               0.1
 (Enter /home/soft/g16/l9999.exe)
 1\1\GINC-NODE18\SP\RHF\6-31G(d)\C8H18\ROOT\29-Aug-2019\0\\#p hf/6-31g(
 d) 5d 7f nosymm\\Atom number=26\\0,1\C,0,14.698996,0.384549,0.000153\C
 ,0,13.418878,-0.453176,-0.000137\C,0,12.142861,0.39079,0.000143\C,0,10
 .862721,-0.446912,-0.000146\C,0,9.586692,0.39704,0.000135\C,0,8.306546
 ,-0.440654,-0.000153\C,0,7.030512,0.403292,0.000129\C,0,5.750363,-0.43
 4398,-0.000156\H,0,15.59144356,-0.20573679,-0.00004283\H,0,4.85789778,
 0.15586109,0.00004123\H,0,14.700641,1.03862,-0.870254\H,0,14.700632,1.
 03803,0.871004\H,0,13.417295,-1.10667,-0.870988\H,0,13.417287,-1.10726
 ,0.87027\H,0,12.144465,1.044289,0.87099\H,0,12.144472,1.044878,-0.8702
 62\H,0,10.861129,-1.100414,-0.870992\H,0,10.861122,-1.101003,0.870258\
 H,0,9.588298,1.051132,-0.870269\H,0,9.588292,1.050544,0.87098\H,0,8.30
 4951,-1.09416,-0.870998\H,0,8.304945,-1.094748,0.87025\H,0,7.032112,1.
 056799,0.870973\H,0,7.032116,1.057386,-0.870274\H,0,5.748766,-1.087906
 ,-0.871001\H,0,5.748762,-1.088493,0.870246\\Version=ES64L-G16RevA.03\H
 F=-313.4344095\RMSD=2.707e-09\Dipole=0.0000177,-0.0000006,0.0000006\Qu
 adrupole=-0.8415214,-0.1745337,1.0160551,-0.5369954,-0.0001836,-0.0004
 036\PG=C01 [X(C8H18)]\\@


 IF YOU GIVE EVERYONE A PIECE OF YOUR MIND,
 PRETTY SOON IT WILL BE ALL GONE.
 Job cpu time:       0 days  0 hours  0 minutes 12.2 seconds.
 Elapsed time:       0 days  0 hours  0 minutes  2.9 seconds.
 File lengths (MBytes):  RWF=     72 Int=      0 D2E=      0 Chk=      8 Scr=      8
 Normal termination of Gaussian 16 at Thu Aug 29 20:24:42 2019.
