 Entering Gaussian System, Link 0=g16
 Input=32ane_6.gjf
 Output=32ane_6.log
 Initial command:
 /home/soft/g16/l1.exe "/tmp/liwei01/gaussian/liaokang/Gau-199842.inp" -scrdir="/tmp/liwei01/gaussian/liaokang/"
 Entering Link 1 = /home/soft/g16/l1.exe PID=    199844.
  
 Copyright (c) 1988,1990,1992,1993,1995,1998,2003,2009,2016,
            Gaussian, Inc.  All Rights Reserved.
  
 This is part of the Gaussian(R) 16 program.  It is based on
 the Gaussian(R) 09 system (copyright 2009, Gaussian, Inc.),
 the Gaussian(R) 03 system (copyright 2003, Gaussian, Inc.),
 the Gaussian(R) 98 system (copyright 1998, Gaussian, Inc.),
 the Gaussian(R) 94 system (copyright 1995, Gaussian, Inc.),
 the Gaussian 92(TM) system (copyright 1992, Gaussian, Inc.),
 the Gaussian 90(TM) system (copyright 1990, Gaussian, Inc.),
 the Gaussian 88(TM) system (copyright 1988, Gaussian, Inc.),
 the Gaussian 86(TM) system (copyright 1986, Carnegie Mellon
 University), and the Gaussian 82(TM) system (copyright 1983,
 Carnegie Mellon University). Gaussian is a federally registered
 trademark of Gaussian, Inc.
  
 This software contains proprietary and confidential information,
 including trade secrets, belonging to Gaussian, Inc.
  
 This software is provided under written license and may be
 used, copied, transmitted, or stored only in accord with that
 written license.
  
 The following legend is applicable only to US Government
 contracts under FAR:
  
                    RESTRICTED RIGHTS LEGEND
  
 Use, reproduction and disclosure by the US Government is
 subject to restrictions as set forth in subparagraphs (a)
 and (c) of the Commercial Computer Software - Restricted
 Rights clause in FAR 52.227-19.
  
 Gaussian, Inc.
 340 Quinnipiac St., Bldg. 40, Wallingford CT 06492
  
  
 ---------------------------------------------------------------
 Warning -- This program may not be used in any manner that
 competes with the business of Gaussian, Inc. or will provide
 assistance to any competitor of Gaussian, Inc.  The licensee
 of this program is prohibited from giving any competitor of
 Gaussian, Inc. access to this program.  By using this program,
 the user acknowledges that Gaussian, Inc. is engaged in the
 business of creating and licensing software in the field of
 computational chemistry and represents and warrants to the
 licensee that it is not a competitor of Gaussian, Inc. and that
 it will not use this program in any manner prohibited above.
 ---------------------------------------------------------------
  

 Cite this work as:
 Gaussian 16, Revision A.03,
 M. J. Frisch, G. W. Trucks, H. B. Schlegel, G. E. Scuseria, 
 M. A. Robb, J. R. Cheeseman, G. Scalmani, V. Barone, 
 G. A. Petersson, H. Nakatsuji, X. Li, M. Caricato, A. V. Marenich, 
 J. Bloino, B. G. Janesko, R. Gomperts, B. Mennucci, H. P. Hratchian, 
 J. V. Ortiz, A. F. Izmaylov, J. L. Sonnenberg, D. Williams-Young, 
 F. Ding, F. Lipparini, F. Egidi, J. Goings, B. Peng, A. Petrone, 
 T. Henderson, D. Ranasinghe, V. G. Zakrzewski, J. Gao, N. Rega, 
 G. Zheng, W. Liang, M. Hada, M. Ehara, K. Toyota, R. Fukuda, 
 J. Hasegawa, M. Ishida, T. Nakajima, Y. Honda, O. Kitao, H. Nakai, 
 T. Vreven, K. Throssell, J. A. Montgomery, Jr., J. E. Peralta, 
 F. Ogliaro, M. J. Bearpark, J. J. Heyd, E. N. Brothers, K. N. Kudin, 
 V. N. Staroverov, T. A. Keith, R. Kobayashi, J. Normand, 
 K. Raghavachari, A. P. Rendell, J. C. Burant, S. S. Iyengar, 
 J. Tomasi, M. Cossi, J. M. Millam, M. Klene, C. Adamo, R. Cammi, 
 J. W. Ochterski, R. L. Martin, K. Morokuma, O. Farkas, 
 J. B. Foresman, and D. J. Fox, Gaussian, Inc., Wallingford CT, 2016.
 
 ******************************************
 Gaussian 16:  ES64L-G16RevA.03 25-Dec-2016
                29-Aug-2019 
 ******************************************
 %chk=32ane_6.chk
 %nproc=6
 Will use up to    6 processors via shared memory.
 ---------------------------
 #p hf/6-31g(d) 5d 7f nosymm
 ---------------------------
 1/38=1,172=1/1;
 2/12=2,15=1,17=6,18=5,40=1/2;
 3/5=1,6=6,7=1,8=11,11=9,25=1,30=1/1,2,3;
 4//1;
 5/5=2,38=5/2;
 6/7=2,8=2,9=2,10=2,28=1/1;
 99/5=1,9=1/99;
 Leave Link    1 at Thu Aug 29 20:24:39 2019, MaxMem=           0 cpu:               0.3 elap:               0.1
 (Enter /home/soft/g16/l101.exe)
 --------------
 Atom number=38
 --------------
 Symbolic Z-matrix:
 Charge =  0 Multiplicity = 1
 c                    -5.75039   0.43448  -0.00004 
 c                    -7.03052  -0.40323   0.00003 
 c                    -8.30656   0.44069  -0.00019 
 c                    -9.58669  -0.39702   0.00005 
 c                    -10.86272   0.44691  -0.00015 
 c                    -12.14284  -0.39081   0.00017 
 c                    -13.41887   0.45312  -0.00028 
 c                    -14.69897  -0.38462   0.00021 
 c                    -15.97499   0.45933  -0.00022 
 c                    -17.25505  -0.3782    0.00035 
 c                    -18.53157   0.46487  -0.00035 
 c                    -19.80582  -0.37899   0.00042 
 h                    -4.85792  -0.15577  -0.00006 
 h                    -19.8524  -1.01792   0.87788 
 h                    -14.70057  -1.03793   0.8712 
 h                    -5.74883   1.08826  -0.87068 
 h                    -5.74878   1.08831   0.87056 
 h                    -7.03207  -1.05719  -0.87048 
 h                    -7.03216  -1.05688   0.87077 
 h                    -8.30497   1.09475   0.87025 
 h                    -8.30499   1.09425  -0.871 
 h                    -9.58829  -1.05106  -0.8704 
 h                    -9.58827  -1.0506    0.87085 
 h                    -10.86117   1.10044  -0.87098 
 h                    -10.8611   1.10098   0.87027 
 h                    -12.1444  -1.04502  -0.87016 
 h                    -12.14447  -1.04422   0.87109 
 h                    -13.41728   1.10742   0.86998 
 h                    -13.41731   1.10643  -0.87128 
 h                    -14.70062  -1.03888  -0.87006 
 h                    -15.97351   1.1126   -0.87126 
 h                    -15.97342   1.11364   0.87004 
 h                    -17.25764  -1.0328   -0.86982 
 h                    -17.25772  -1.03148   0.87151 
 h                    -18.5316   1.11857   0.86939 
 h                    -18.53165   1.11705  -0.87123 
 h                    -20.69306   0.24681  -0.00007 
 h                    -19.85248  -1.0194   -0.87597 
 
 ITRead=  0  0  0  0  0  0  0  0  0  0  0  0  0  0  0  0  0  0  0  0
 ITRead=  0  0  0  0  0  0  0  0  0  0  0  0  0  0  0  0  0  0
 MicOpt= -1 -1 -1 -1 -1 -1 -1 -1 -1 -1 -1 -1 -1 -1 -1 -1 -1 -1 -1 -1
 MicOpt= -1 -1 -1 -1 -1 -1 -1 -1 -1 -1 -1 -1 -1 -1 -1 -1 -1 -1
 NAtoms=     38 NQM=       38 NQMF=       0 NMMI=      0 NMMIF=      0
                NMic=       0 NMicF=      0.
                    Isotopes and Nuclear Properties:
 (Nuclear quadrupole moments (NQMom) in fm**2, nuclear magnetic moments (NMagM)
  in nuclear magnetons)

  Atom         1           2           3           4           5           6           7           8           9          10
 IAtWgt=          12          12          12          12          12          12          12          12          12          12
 AtmWgt=  12.0000000  12.0000000  12.0000000  12.0000000  12.0000000  12.0000000  12.0000000  12.0000000  12.0000000  12.0000000
 NucSpn=           0           0           0           0           0           0           0           0           0           0
 AtZEff=  -0.0000000  -0.0000000  -0.0000000  -0.0000000  -0.0000000  -0.0000000  -0.0000000  -0.0000000  -0.0000000  -0.0000000
 NQMom=    0.0000000   0.0000000   0.0000000   0.0000000   0.0000000   0.0000000   0.0000000   0.0000000   0.0000000   0.0000000
 NMagM=    0.0000000   0.0000000   0.0000000   0.0000000   0.0000000   0.0000000   0.0000000   0.0000000   0.0000000   0.0000000
 AtZNuc=   6.0000000   6.0000000   6.0000000   6.0000000   6.0000000   6.0000000   6.0000000   6.0000000   6.0000000   6.0000000

  Atom        11          12          13          14          15          16          17          18          19          20
 IAtWgt=          12          12           1           1           1           1           1           1           1           1
 AtmWgt=  12.0000000  12.0000000   1.0078250   1.0078250   1.0078250   1.0078250   1.0078250   1.0078250   1.0078250   1.0078250
 NucSpn=           0           0           1           1           1           1           1           1           1           1
 AtZEff=  -0.0000000  -0.0000000  -0.0000000  -0.0000000  -0.0000000  -0.0000000  -0.0000000  -0.0000000  -0.0000000  -0.0000000
 NQMom=    0.0000000   0.0000000   0.0000000   0.0000000   0.0000000   0.0000000   0.0000000   0.0000000   0.0000000   0.0000000
 NMagM=    0.0000000   0.0000000   2.7928460   2.7928460   2.7928460   2.7928460   2.7928460   2.7928460   2.7928460   2.7928460
 AtZNuc=   6.0000000   6.0000000   1.0000000   1.0000000   1.0000000   1.0000000   1.0000000   1.0000000   1.0000000   1.0000000

  Atom        21          22          23          24          25          26          27          28          29          30
 IAtWgt=           1           1           1           1           1           1           1           1           1           1
 AtmWgt=   1.0078250   1.0078250   1.0078250   1.0078250   1.0078250   1.0078250   1.0078250   1.0078250   1.0078250   1.0078250
 NucSpn=           1           1           1           1           1           1           1           1           1           1
 AtZEff=  -0.0000000  -0.0000000  -0.0000000  -0.0000000  -0.0000000  -0.0000000  -0.0000000  -0.0000000  -0.0000000  -0.0000000
 NQMom=    0.0000000   0.0000000   0.0000000   0.0000000   0.0000000   0.0000000   0.0000000   0.0000000   0.0000000   0.0000000
 NMagM=    2.7928460   2.7928460   2.7928460   2.7928460   2.7928460   2.7928460   2.7928460   2.7928460   2.7928460   2.7928460
 AtZNuc=   1.0000000   1.0000000   1.0000000   1.0000000   1.0000000   1.0000000   1.0000000   1.0000000   1.0000000   1.0000000

  Atom        31          32          33          34          35          36          37          38
 IAtWgt=           1           1           1           1           1           1           1           1
 AtmWgt=   1.0078250   1.0078250   1.0078250   1.0078250   1.0078250   1.0078250   1.0078250   1.0078250
 NucSpn=           1           1           1           1           1           1           1           1
 AtZEff=  -0.0000000  -0.0000000  -0.0000000  -0.0000000  -0.0000000  -0.0000000  -0.0000000  -0.0000000
 NQMom=    0.0000000   0.0000000   0.0000000   0.0000000   0.0000000   0.0000000   0.0000000   0.0000000
 NMagM=    2.7928460   2.7928460   2.7928460   2.7928460   2.7928460   2.7928460   2.7928460   2.7928460
 AtZNuc=   1.0000000   1.0000000   1.0000000   1.0000000   1.0000000   1.0000000   1.0000000   1.0000000
 Leave Link  101 at Thu Aug 29 20:24:39 2019, MaxMem=   280000000 cpu:               0.6 elap:               0.1
 (Enter /home/soft/g16/l202.exe)
                          Input orientation:                          
 ---------------------------------------------------------------------
 Center     Atomic      Atomic             Coordinates (Angstroms)
 Number     Number       Type             X           Y           Z
 ---------------------------------------------------------------------
      1          6           0       -5.750393    0.434477   -0.000044
      2          6           0       -7.030525   -0.403230    0.000030
      3          6           0       -8.306562    0.440692   -0.000190
      4          6           0       -9.586689   -0.397022    0.000053
      5          6           0      -10.862723    0.446905   -0.000154
      6          6           0      -12.142844   -0.390814    0.000168
      7          6           0      -13.418867    0.453124   -0.000280
      8          6           0      -14.698968   -0.384621    0.000211
      9          6           0      -15.974986    0.459334   -0.000224
     10          6           0      -17.255053   -0.378198    0.000349
     11          6           0      -18.531572    0.464871   -0.000347
     12          6           0      -19.805822   -0.378986    0.000419
     13          1           0       -4.857919   -0.155769   -0.000057
     14          1           0      -19.852399   -1.017925    0.877881
     15          1           0      -14.700574   -1.037926    0.871197
     16          1           0       -5.748833    1.088263   -0.870682
     17          1           0       -5.748776    1.088306    0.870562
     18          1           0       -7.032066   -1.057190   -0.870476
     19          1           0       -7.032158   -1.056883    0.870768
     20          1           0       -8.304973    1.094747    0.870246
     21          1           0       -8.304988    1.094252   -0.870997
     22          1           0       -9.588293   -1.051059   -0.870396
     23          1           0       -9.588266   -1.050596    0.870850
     24          1           0      -10.861174    1.100442   -0.870978
     25          1           0      -10.861102    1.100977    0.870268
     26          1           0      -12.144398   -1.045015   -0.870156
     27          1           0      -12.144475   -1.044215    0.871092
     28          1           0      -13.417282    1.107415    0.869976
     29          1           0      -13.417312    1.106429   -0.871276
     30          1           0      -14.700616   -1.038881   -0.870057
     31          1           0      -15.973511    1.112604   -0.871264
     32          1           0      -15.973421    1.113635    0.870042
     33          1           0      -17.257642   -1.032795   -0.869819
     34          1           0      -17.257716   -1.031477    0.871507
     35          1           0      -18.531601    1.118572    0.869391
     36          1           0      -18.531646    1.117046   -0.871231
     37          1           0      -20.693056    0.246810   -0.000065
     38          1           0      -19.852481   -1.019397   -0.875965
 ---------------------------------------------------------------------
                    Distance matrix (angstroms):
                    1          2          3          4          5
     1  C    0.000000
     2  C    1.529866   0.000000
     3  C    2.556177   1.529861   0.000000
     4  C    3.925374   2.556172   1.529866   0.000000
     5  C    5.112345   3.925363   2.556169   1.529861   0.000000
     6  C    6.445505   5.112334   3.925361   2.556163   1.529864
     7  C    7.668497   6.445483   5.112320   3.925345   2.556152
     8  C    8.985984   7.668466   6.445463   5.112294   3.925329
     9  C   10.224623   8.985956   7.668447   6.445439   5.112278
    10  C   11.533327  10.224559   8.985882   7.668387   6.445361
    11  C   12.781215  11.533763  10.225039   8.986311   7.668870
    12  C   14.078949  12.775320  11.528437  10.219149   8.981153
    13  H    1.070000   2.186653   3.499843   4.734920   6.034972
    14  H   14.203760  12.866582  11.670687  10.321865   9.150462
    15  H    9.112232   7.745413   6.620349   5.226994   4.206314
    16  H    1.088783   2.150680   2.778324   4.206351   5.226952
    17  H    1.088784   2.150671   2.778468   4.206372   5.227045
    18  H    2.150676   1.088782   2.150672   2.778442   4.206387
    19  H    2.150672   1.088784   2.150675   2.778343   4.206318
    20  H    2.778352   2.150681   1.088783   2.150676   2.778377
    21  H    2.778456   2.150673   1.088783   2.150671   2.778387
    22  H    4.206401   2.778399   2.150678   1.088783   2.150672
    23  H    4.206325   2.778390   2.150678   1.088783   2.150674
    24  H    5.227056   4.206371   2.778414   2.150676   1.088783
    25  H    5.226951   4.206337   2.778371   2.150675   1.088782
    26  H    6.620369   5.226931   4.206323   2.778315   2.150679
    27  H    6.620400   5.227054   4.206383   2.778459   2.150674
    28  H    7.745384   6.620387   5.226965   4.206369   2.778340
    29  H    7.745464   6.620370   5.227022   4.206335   2.778444
    30  H    9.112310   7.745412   6.620403   5.226980   4.206390
    31  H   10.282559   9.112294   7.745472   6.620397   5.227059
    32  H   10.282442   9.112255   7.745378   6.620371   5.226950
    33  H   11.632978  10.283332   9.113136   7.746251   6.621240
    34  H   11.633018  10.283463   9.113193   7.746394   6.621279
    35  H   12.828998  11.633848  10.284314   9.113958   7.747189
    36  H   12.829080  11.633835  10.284382   9.113934   7.747273
    37  H   14.943841  13.677986  12.388011  11.125013   9.832369
    38  H   14.203868  12.866607  11.670779  10.321882   9.150565
                    6          7          8          9         10
     6  C    0.000000
     7  C    1.529858   0.000000
     8  C    2.556132   1.529861   0.000000
     9  C    3.925311   2.556127   1.529863   0.000000
    10  C    5.112225   3.925229   2.556093   1.529716   0.000000
    11  C    6.445777   5.112718   3.925620   2.556592   1.529793
    12  C    7.662987   6.440932   5.106857   3.921490   2.550769
    13  H    7.288716   8.582574   9.843710  11.134071  12.399129
    14  H    7.784657   6.657739   5.265855   4.241190   2.815230
    15  H    2.778386   2.150692   1.088773   2.150648   2.778305
    16  H    6.620380   7.745348   9.112231  10.282386  11.631952
    17  H    6.620384   7.745458   9.112242  10.282473  11.631952
    18  H    5.227057   6.620386   7.745439   9.112245  10.282453
    19  H    5.226921   6.620340   7.745307   9.112174  10.282306
    20  H    4.206326   5.226988   6.620322   7.745358   9.112092
    21  H    4.206363   5.226945   6.620351   7.745336   9.112136
    22  H    2.778405   4.206301   5.226958   6.620297   7.745331
    23  H    2.778357   4.206370   5.226931   6.620336   7.745290
    24  H    2.150678   2.778296   4.206310   5.226883   6.620217
    25  H    2.150669   2.778440   4.206330   5.226975   6.620221
    26  H    1.088782   2.150669   2.778396   4.206335   5.226970
    27  H    1.088781   2.150672   2.778297   4.206265   5.226833
    28  H    2.150686   1.088781   2.150670   2.778328   4.206160
    29  H    2.150679   1.088781   2.150665   2.778338   4.206198
    30  H    2.778395   2.150691   1.088772   2.150646   2.778355
    31  H    4.206384   2.778441   2.150723   1.088795   2.150477
    32  H    4.206349   2.778395   2.150723   1.088795   2.150468
    33  H    5.227827   4.207166   2.779190   2.151244   1.088897
    34  H    5.227963   4.207234   2.779347   2.151239   1.088897
    35  H    6.621934   5.228690   4.207629   2.779767   2.150611
    36  H    6.621916   5.228753   4.207593   2.779883   2.150604
    37  H    8.573954   7.277114   6.027254   4.722854   3.494353
    38  H    7.784679   6.657817   5.265864   4.241289   2.815261
                   11         12         13         14         15
    11  C    0.000000
    12  C    1.528335   0.000000
    13  H   13.687731  14.949569   0.000000
    14  H    2.171302   1.086440  15.044883   0.000000
    15  H    4.206487   5.220729   9.920441   5.151868   0.000000
    16  H   12.827491  14.160176   1.760492  14.366770   9.364213
    17  H   12.827589  14.160178   1.760490  14.260030   9.200845
    18  H   11.632387  12.821360   2.509403  12.939058   7.863829
    19  H   11.632330  12.821215   2.509513  12.820302   7.668439
    20  H   10.282899  11.627468   3.768740  11.739101   6.741810
    21  H   10.282858  11.627510   3.768736  11.868554   6.963113
    22  H    9.112479  10.276570   4.892389  10.411986   5.400809
    23  H    9.112538  10.276534   4.892379  10.264187   5.112324
    24  H    7.745770   9.107951   6.194807   9.401495   4.727450
    25  H    7.745884   9.107960   6.194762   9.237598   4.395049
    26  H    6.620598   7.739439   7.391928   7.903774   3.092959
    27  H    6.620555   7.739305   7.392032   7.707972   2.556107
    28  H    5.227455   6.616567   8.695705   6.777010   2.499866
    29  H    5.227406   6.616598   8.695710   6.998770   3.046511
    30  H    4.206411   5.220758   9.920457   5.440275   1.741254
    31  H    2.778800   4.203722  11.221593   4.758617   3.046526
    32  H    2.778958   4.203743  11.221535   4.426068   2.499871
    33  H    2.149856   2.770921  12.461091   3.128489   3.093503
    34  H    2.149859   2.770809  12.461198   2.594726   2.557150
    35  H    1.088012   2.149751  13.760431   2.511812   4.396277
    36  H    1.088012   2.149746  13.760444   3.059719   4.728327
    37  H    2.172456   1.085728  15.840253   1.754152   6.190273
    38  H    2.171304   1.086440  15.044931   1.753847   5.440135
                   16         17         18         19         20
    16  H    0.000000
    17  H    1.741244   0.000000
    18  H    2.499931   3.046506   0.000000
    19  H    3.046510   2.499781   1.741244   0.000000
    20  H    3.092689   2.556205   3.046512   2.499914   0.000000
    21  H    2.556162   3.093102   2.499807   3.046510   1.741243
    22  H    4.395242   4.727548   2.556234   3.092816   3.046511
    23  H    4.727462   4.395064   3.092963   2.556116   2.499868
    24  H    5.112356   5.400900   4.395161   4.727483   3.092904
    25  H    5.400589   5.112342   4.727514   4.395131   2.556137
    26  H    6.741968   6.963127   5.112347   5.400551   4.727448
    27  H    6.963151   6.741855   5.400922   5.112333   4.395103
    28  H    7.863547   7.668530   6.963165   6.741958   5.112325
    29  H    7.668501   7.863890   6.741855   6.963105   5.400837
    30  H    9.201041   9.364300   7.668572   7.863590   6.963137
    31  H   10.224707  10.372066   9.200948   9.364248   7.863819
    32  H   10.371739  10.224676   9.364279   9.200942   7.668471
    33  H   11.702631  11.831399  10.225605  10.372596   9.365070
    34  H   11.831437  11.702529  10.372998  10.225590   9.201763
    35  H   12.900695  12.782861  11.832176  11.703410  10.226656
    36  H   12.782845  12.901025  11.703318  11.832107  10.373913
    37  H   14.993192  14.993252  13.750661  13.750567  12.447531
    38  H   14.260265  14.366881  12.820472  12.938824  11.868606
                   21         22         23         24         25
    21  H    0.000000
    22  H    2.499846   0.000000
    23  H    3.046507   1.741246   0.000000
    24  H    2.556193   2.499837   3.046510   0.000000
    25  H    3.092858   3.046508   2.499876   1.741246   0.000000
    26  H    4.395172   2.556112   3.092724   2.499930   3.046507
    27  H    4.727534   3.093040   2.556217   3.046510   2.499779
    28  H    5.400621   4.727479   4.395267   3.092678   2.556188
    29  H    5.112339   4.395013   4.727510   2.556145   3.093091
    30  H    6.741982   5.112338   5.400650   4.395227   4.727535
    31  H    7.668545   6.741843   6.963171   5.112351   5.400907
    32  H    7.863616   6.963109   6.741966   5.400592   5.112335
    33  H    9.201866   7.669371   7.864450   6.742811   6.963951
    34  H    9.365169   7.864773   7.669474   6.963985   6.742702
    35  H   10.373676   9.365731   9.202637   7.865409   7.670519
    36  H   10.226683   9.202404   9.365766   7.670490   7.865769
    37  H   12.447526  11.214174  11.214193   9.907224   9.907290
    38  H   11.739341  10.264238  10.411842   9.237821   9.401607
                   26         27         28         29         30
    26  H    0.000000
    27  H    1.741248   0.000000
    28  H    3.046514   2.499910   0.000000
    29  H    2.499805   3.046511   1.741252   0.000000
    30  H    2.556225   3.092812   3.046514   2.499845   0.000000
    31  H    4.395160   4.727493   3.092936   2.556206   2.499830
    32  H    4.727523   4.395127   2.556147   3.092884   3.046523
    33  H    5.113259   5.401424   4.728187   4.395954   2.557033
    34  H    5.401814   5.113257   4.395884   4.728281   3.093842
    35  H    6.964445   6.743369   5.114331   5.402409   4.728290
    36  H    6.743252   6.964387   5.402649   5.114345   4.396000
    37  H    8.689386   8.689298   7.377974   7.377967   6.190252
    38  H    7.708128   7.903555   6.998816   6.777209   5.151905
                   31         32         33         34         35
    31  H    0.000000
    32  H    1.741306   0.000000
    33  H    2.500346   3.046884   0.000000
    34  H    3.046886   2.500184   1.741327   0.000000
    35  H    3.094146   2.558185   3.045686   2.499099   0.000000
    36  H    2.558139   3.094602   2.498981   3.045683   1.740623
    37  H    4.876750   4.876825   3.767749   3.767654   2.487531
    38  H    4.426269   4.758726   2.594881   3.128356   3.059723
                   36         37         38
    36  H    0.000000
    37  H    2.487556   0.000000
    38  H    2.511776   1.754151   0.000000
 Symmetry turned off by external request.
 Stoichiometry    C12H26
 Framework group  C1[X(C12H26)]
 Deg. of freedom   108
 Full point group                 C1      NOp   1
 Rotational constants (GHZ):           7.1210033           0.1477814           0.1463156
 Leave Link  202 at Thu Aug 29 20:24:39 2019, MaxMem=   280000000 cpu:               0.1 elap:               0.0
 (Enter /home/soft/g16/l301.exe)
 Standard basis: 6-31G(d) (5D, 7F)
 Ernie: Thresh=  0.10000D-02 Tol=  0.10000D-05 Strict=F.
   220 basis functions,   440 primitive gaussians,   232 cartesian basis functions
    49 alpha electrons       49 beta electrons
       nuclear repulsion energy       672.4041968457 Hartrees.
 IExCor=    0 DFT=F Ex=HF Corr=None ExCW=0 ScaHFX=  1.000000
 ScaDFX=  1.000000  1.000000  1.000000  1.000000 ScalE2=  1.000000  1.000000
 IRadAn=      5 IRanWt=     -1 IRanGd=            0 ICorTp=0 IEmpDi=  4
 NAtoms=   38 NActive=   38 NUniq=   38 SFac= 1.00D+00 NAtFMM=   60 NAOKFM=F Big=F
 Integral buffers will be    131072 words long.
 Raffenetti 1 integral format.
 Two-electron integral symmetry is turned off.
 Leave Link  301 at Thu Aug 29 20:24:39 2019, MaxMem=   280000000 cpu:               0.3 elap:               0.1
 (Enter /home/soft/g16/l302.exe)
 NPDir=0 NMtPBC=     1 NCelOv=     1 NCel=       1 NClECP=     1 NCelD=      1
         NCelK=      1 NCelE2=     1 NClLst=     1 CellRange=     0.0.
 One-electron integrals computed using PRISM.
 NBasis=   220 RedAO= T EigKep=  2.75D-03  NBF=   220
 NBsUse=   220 1.00D-06 EigRej= -1.00D+00 NBFU=   220
 Leave Link  302 at Thu Aug 29 20:24:39 2019, MaxMem=   280000000 cpu:               0.7 elap:               0.1
 (Enter /home/soft/g16/l303.exe)
 DipDrv:  MaxL=1.
 Leave Link  303 at Thu Aug 29 20:24:39 2019, MaxMem=   280000000 cpu:               0.2 elap:               0.0
 (Enter /home/soft/g16/l401.exe)
 ExpMin= 1.61D-01 ExpMax= 3.05D+03 ExpMxC= 4.57D+02 IAcc=3 IRadAn=         5 AccDes= 0.00D+00
 Harris functional with IExCor=  205 and IRadAn=       5 diagonalized for initial guess.
 HarFok:  IExCor=  205 AccDes= 0.00D+00 IRadAn=         5 IDoV= 1 UseB2=F ITyADJ=14
 ICtDFT=  3500011 ScaDFX=  1.000000  1.000000  1.000000  1.000000
 FoFCou: FMM=F IPFlag=           0 FMFlag=      100000 FMFlg1=           0
         NFxFlg=           0 DoJE=T BraDBF=F KetDBF=T FulRan=T
         wScrn=  0.000000 ICntrl=       500 IOpCl=  0 I1Cent=   200000004 NGrid=           0
         NMat0=    1 NMatS0=      1 NMatT0=    0 NMatD0=    1 NMtDS0=    0 NMtDT0=    0
 Symmetry not used in FoFCou.
 Harris En= -470.840480157122    
 JPrj=0 DoOrth=F DoCkMO=F.
 Leave Link  401 at Thu Aug 29 20:24:41 2019, MaxMem=   280000000 cpu:               7.1 elap:               1.2
 (Enter /home/soft/g16/l502.exe)
 Two-electron integral symmetry not used.
 Closed shell SCF:
 Using DIIS extrapolation, IDIIS=  1040.
 NGot=   280000000 LenX=   279888450 LenY=   279834185
 Requested convergence on RMS density matrix=1.00D-08 within 128 cycles.
 Requested convergence on MAX density matrix=1.00D-06.
 Requested convergence on             energy=1.00D-06.
 No special actions if energy rises.
 Fock matrices will be formed incrementally for  20 cycles.
 Integral accuracy reduced to 1.0D-05 until final iterations.

 Cycle   1  Pass 0  IDiag  1:
 FoFJK:  IHMeth= 1 ICntrl=       0 DoSepK=F KAlg= 0 I1Cent=           0 FoldK=F
 IRaf= 710000000 NMat=       1 IRICut=       1 DoRegI=T DoRafI=F ISym2E= 0 IDoP0=0 IntGTp=1.
 FoFCou: FMM=F IPFlag=           0 FMFlag=      100000 FMFlg1=           0
         NFxFlg=           0 DoJE=F BraDBF=F KetDBF=F FulRan=T
         wScrn=  0.000000 ICntrl=         0 IOpCl=  0 I1Cent=           0 NGrid=           0
         NMat0=    1 NMatS0=      1 NMatT0=    0 NMatD0=    1 NMtDS0=    0 NMtDT0=    0
 Symmetry not used in FoFCou.
 E= -468.801968769605    
 DIIS: error= 6.54D-02 at cycle   1 NSaved=   1.
 NSaved= 1 IEnMin= 1 EnMin= -468.801968769605     IErMin= 1 ErrMin= 6.54D-02
 ErrMax= 6.54D-02  0.00D+00 EMaxC= 1.00D-01 BMatC= 7.66D-01 BMatP= 7.66D-01
 IDIUse=3 WtCom= 3.46D-01 WtEn= 6.54D-01
 Coeff-Com:  0.100D+01
 Coeff-En:   0.100D+01
 Coeff:      0.100D+01
 Gap=     0.639 Goal=   None    Shift=    0.000
 GapD=    0.639 DampG=2.000 DampE=0.500 DampFc=1.0000 IDamp=-1.
 RMSDP=4.84D-03 MaxDP=1.22D-01              OVMax= 1.34D-01

 Cycle   2  Pass 0  IDiag  1:
 RMSU=  4.70D-03    CP:  9.46D-01
 E= -469.455680596098     Delta-E=       -0.653711826493 Rises=F Damp=F
 DIIS: error= 2.32D-02 at cycle   2 NSaved=   2.
 NSaved= 2 IEnMin= 2 EnMin= -469.455680596098     IErMin= 2 ErrMin= 2.32D-02
 ErrMax= 2.32D-02  0.00D+00 EMaxC= 1.00D-01 BMatC= 1.19D-01 BMatP= 7.66D-01
 IDIUse=3 WtCom= 7.68D-01 WtEn= 2.32D-01
 Coeff-Com:  0.253D+00 0.747D+00
 Coeff-En:   0.000D+00 0.100D+01
 Coeff:      0.194D+00 0.806D+00
 Gap=     0.658 Goal=   None    Shift=    0.000
 RMSDP=1.63D-03 MaxDP=3.24D-02 DE=-6.54D-01 OVMax= 4.34D-02

 Cycle   3  Pass 0  IDiag  1:
 RMSU=  8.41D-04    CP:  9.61D-01  7.10D-01
 E= -469.569727303116     Delta-E=       -0.114046707018 Rises=F Damp=F
 DIIS: error= 4.01D-03 at cycle   3 NSaved=   3.
 NSaved= 3 IEnMin= 3 EnMin= -469.569727303116     IErMin= 3 ErrMin= 4.01D-03
 ErrMax= 4.01D-03  0.00D+00 EMaxC= 1.00D-01 BMatC= 2.65D-03 BMatP= 1.19D-01
 IDIUse=3 WtCom= 9.60D-01 WtEn= 4.01D-02
 Coeff-Com: -0.310D-01 0.598D-01 0.971D+00
 Coeff-En:   0.000D+00 0.000D+00 0.100D+01
 Coeff:     -0.298D-01 0.574D-01 0.972D+00
 Gap=     0.639 Goal=   None    Shift=    0.000
 RMSDP=2.40D-04 MaxDP=6.80D-03 DE=-1.14D-01 OVMax= 8.03D-03

 Cycle   4  Pass 0  IDiag  1:
 RMSU=  1.12D-04    CP:  9.59D-01  7.53D-01  1.05D+00
 E= -469.572998102494     Delta-E=       -0.003270799378 Rises=F Damp=F
 DIIS: error= 5.34D-04 at cycle   4 NSaved=   4.
 NSaved= 4 IEnMin= 4 EnMin= -469.572998102494     IErMin= 4 ErrMin= 5.34D-04
 ErrMax= 5.34D-04  0.00D+00 EMaxC= 1.00D-01 BMatC= 5.55D-05 BMatP= 2.65D-03
 IDIUse=3 WtCom= 9.95D-01 WtEn= 5.34D-03
 Coeff-Com: -0.538D-03-0.198D-01-0.796D-01 0.110D+01
 Coeff-En:   0.000D+00 0.000D+00 0.000D+00 0.100D+01
 Coeff:     -0.536D-03-0.197D-01-0.791D-01 0.110D+01
 Gap=     0.641 Goal=   None    Shift=    0.000
 RMSDP=5.91D-05 MaxDP=1.22D-03 DE=-3.27D-03 OVMax= 1.88D-03

 Cycle   5  Pass 0  IDiag  1:
 RMSU=  3.74D-05    CP:  9.59D-01  7.54D-01  1.09D+00  1.23D+00
 E= -469.573089294205     Delta-E=       -0.000091191711 Rises=F Damp=F
 DIIS: error= 1.91D-04 at cycle   5 NSaved=   5.
 NSaved= 5 IEnMin= 5 EnMin= -469.573089294205     IErMin= 5 ErrMin= 1.91D-04
 ErrMax= 1.91D-04  0.00D+00 EMaxC= 1.00D-01 BMatC= 6.68D-06 BMatP= 5.55D-05
 IDIUse=3 WtCom= 9.98D-01 WtEn= 1.91D-03
 Coeff-Com:  0.222D-02-0.941D-02-0.908D-01 0.234D+00 0.864D+00
 Coeff-En:   0.000D+00 0.000D+00 0.000D+00 0.000D+00 0.100D+01
 Coeff:      0.222D-02-0.939D-02-0.906D-01 0.233D+00 0.864D+00
 Gap=     0.642 Goal=   None    Shift=    0.000
 RMSDP=1.63D-05 MaxDP=3.95D-04 DE=-9.12D-05 OVMax= 4.73D-04

 Cycle   6  Pass 0  IDiag  1:
 RMSU=  7.21D-06    CP:  9.59D-01  7.54D-01  1.10D+00  1.35D+00  9.72D-01
 E= -469.573098007510     Delta-E=       -0.000008713305 Rises=F Damp=F
 DIIS: error= 2.13D-05 at cycle   6 NSaved=   6.
 NSaved= 6 IEnMin= 6 EnMin= -469.573098007510     IErMin= 6 ErrMin= 2.13D-05
 ErrMax= 2.13D-05  0.00D+00 EMaxC= 1.00D-01 BMatC= 1.07D-07 BMatP= 6.68D-06
 IDIUse=1 WtCom= 1.00D+00 WtEn= 0.00D+00
 Coeff-Com:  0.129D-03 0.101D-03-0.149D-02-0.339D-01 0.333D-01 0.100D+01
 Coeff:      0.129D-03 0.101D-03-0.149D-02-0.339D-01 0.333D-01 0.100D+01
 Gap=     0.642 Goal=   None    Shift=    0.000
 RMSDP=3.35D-06 MaxDP=6.96D-05 DE=-8.71D-06 OVMax= 9.31D-05

 Initial convergence to 1.0D-05 achieved.  Increase integral accuracy.
 Cycle   7  Pass 1  IDiag  1:
 E= -469.573104306782     Delta-E=       -0.000006299271 Rises=F Damp=F
 DIIS: error= 1.65D-05 at cycle   1 NSaved=   1.
 NSaved= 1 IEnMin= 1 EnMin= -469.573104306782     IErMin= 1 ErrMin= 1.65D-05
 ErrMax= 1.65D-05  0.00D+00 EMaxC= 1.00D-01 BMatC= 2.53D-08 BMatP= 2.53D-08
 IDIUse=1 WtCom= 1.00D+00 WtEn= 0.00D+00
 Coeff-Com:  0.100D+01
 Coeff:      0.100D+01
 Gap=     0.642 Goal=   None    Shift=    0.000
 RMSDP=3.35D-06 MaxDP=6.96D-05 DE=-6.30D-06 OVMax= 2.42D-05

 Cycle   8  Pass 1  IDiag  1:
 RMSU=  2.33D-06    CP:  1.00D+00
 E= -469.573104326282     Delta-E=       -0.000000019500 Rises=F Damp=F
 DIIS: error= 1.51D-06 at cycle   2 NSaved=   2.
 NSaved= 2 IEnMin= 2 EnMin= -469.573104326282     IErMin= 2 ErrMin= 1.51D-06
 ErrMax= 1.51D-06  0.00D+00 EMaxC= 1.00D-01 BMatC= 5.45D-10 BMatP= 2.53D-08
 IDIUse=1 WtCom= 1.00D+00 WtEn= 0.00D+00
 Coeff-Com: -0.186D-01 0.102D+01
 Coeff:     -0.186D-01 0.102D+01
 Gap=     0.642 Goal=   None    Shift=    0.000
 RMSDP=2.57D-07 MaxDP=4.14D-06 DE=-1.95D-08 OVMax= 6.54D-06

 Cycle   9  Pass 1  IDiag  1:
 RMSU=  1.94D-07    CP:  1.00D+00  1.07D+00
 E= -469.573104327272     Delta-E=       -0.000000000990 Rises=F Damp=F
 DIIS: error= 6.73D-07 at cycle   3 NSaved=   3.
 NSaved= 3 IEnMin= 3 EnMin= -469.573104327272     IErMin= 3 ErrMin= 6.73D-07
 ErrMax= 6.73D-07  0.00D+00 EMaxC= 1.00D-01 BMatC= 9.64D-11 BMatP= 5.45D-10
 IDIUse=1 WtCom= 1.00D+00 WtEn= 0.00D+00
 Coeff-Com: -0.220D-01 0.149D+00 0.873D+00
 Coeff:     -0.220D-01 0.149D+00 0.873D+00
 Gap=     0.642 Goal=   None    Shift=    0.000
 RMSDP=7.50D-08 MaxDP=1.52D-06 DE=-9.90D-10 OVMax= 2.49D-06

 Cycle  10  Pass 1  IDiag  1:
 RMSU=  5.78D-08    CP:  1.00D+00  1.08D+00  1.21D+00
 E= -469.573104327421     Delta-E=       -0.000000000150 Rises=F Damp=F
 DIIS: error= 2.52D-07 at cycle   4 NSaved=   4.
 NSaved= 4 IEnMin= 4 EnMin= -469.573104327421     IErMin= 4 ErrMin= 2.52D-07
 ErrMax= 2.52D-07  0.00D+00 EMaxC= 1.00D-01 BMatC= 1.22D-11 BMatP= 9.64D-11
 IDIUse=1 WtCom= 1.00D+00 WtEn= 0.00D+00
 Coeff-Com:  0.544D-02-0.173D+00-0.107D+00 0.127D+01
 Coeff:      0.544D-02-0.173D+00-0.107D+00 0.127D+01
 Gap=     0.642 Goal=   None    Shift=    0.000
 RMSDP=5.18D-08 MaxDP=1.28D-06 DE=-1.50D-10 OVMax= 1.72D-06

 Cycle  11  Pass 1  IDiag  1:
 RMSU=  1.25D-08    CP:  1.00D+00  1.09D+00  1.44D+00  1.35D+00
 E= -469.573104327441     Delta-E=       -0.000000000020 Rises=F Damp=F
 DIIS: error= 4.33D-08 at cycle   5 NSaved=   5.
 NSaved= 5 IEnMin= 5 EnMin= -469.573104327441     IErMin= 5 ErrMin= 4.33D-08
 ErrMax= 4.33D-08  0.00D+00 EMaxC= 1.00D-01 BMatC= 2.59D-13 BMatP= 1.22D-11
 IDIUse=1 WtCom= 1.00D+00 WtEn= 0.00D+00
 Coeff-Com:  0.903D-03-0.130D-01-0.283D-01 0.675D-01 0.973D+00
 Coeff:      0.903D-03-0.130D-01-0.283D-01 0.675D-01 0.973D+00
 Gap=     0.642 Goal=   None    Shift=    0.000
 RMSDP=4.51D-09 MaxDP=7.83D-08 DE=-1.96D-11 OVMax= 1.73D-07

 SCF Done:  E(RHF) =  -469.573104327     A.U. after   11 cycles
            NFock= 11  Conv=0.45D-08     -V/T= 1.9990
 KE= 4.700617515869D+02 PE=-2.436746573138D+03 EE= 8.247075203780D+02
 Leave Link  502 at Thu Aug 29 20:24:45 2019, MaxMem=   280000000 cpu:              26.4 elap:               4.4
 (Enter /home/soft/g16/l601.exe)
 Copying SCF densities to generalized density rwf, IOpCl= 0 IROHF=0.

 **********************************************************************

            Population analysis using the SCF density.

 **********************************************************************

 Alpha  occ. eigenvalues --  -11.20995 -11.20974 -11.20836 -11.20811 -11.20802
 Alpha  occ. eigenvalues --  -11.20784 -11.20764 -11.20743 -11.20723 -11.20703
 Alpha  occ. eigenvalues --  -11.20328 -11.20214  -1.09572  -1.08142  -1.05755
 Alpha  occ. eigenvalues --   -1.02485  -0.98429  -0.93731  -0.88642  -0.83679
 Alpha  occ. eigenvalues --   -0.79914  -0.78935  -0.78355  -0.78256  -0.66138
 Alpha  occ. eigenvalues --   -0.64850  -0.62766  -0.60049  -0.59404  -0.59044
 Alpha  occ. eigenvalues --   -0.56923  -0.56895  -0.56268  -0.53932  -0.53687
 Alpha  occ. eigenvalues --   -0.51257  -0.50882  -0.50695  -0.48497  -0.48294
 Alpha  occ. eigenvalues --   -0.46791  -0.46711  -0.45948  -0.45880  -0.45766
 Alpha  occ. eigenvalues --   -0.45727  -0.45634  -0.45382  -0.41500
 Alpha virt. eigenvalues --    0.22659   0.23297   0.24216   0.25491   0.25805
 Alpha virt. eigenvalues --    0.26607   0.27490   0.27525   0.28433   0.30159
 Alpha virt. eigenvalues --    0.30273   0.31416   0.32753   0.33168   0.33485
 Alpha virt. eigenvalues --    0.33878   0.34438   0.34785   0.35242   0.35383
 Alpha virt. eigenvalues --    0.36111   0.36388   0.36671   0.37201   0.38090
 Alpha virt. eigenvalues --    0.38332   0.38338   0.39038   0.39321   0.41632
 Alpha virt. eigenvalues --    0.42197   0.43763   0.44869   0.45860   0.49437
 Alpha virt. eigenvalues --    0.53332   0.54173   0.66613   0.68997   0.70171
 Alpha virt. eigenvalues --    0.72136   0.75242   0.75438   0.76655   0.76691
 Alpha virt. eigenvalues --    0.77091   0.77469   0.79060   0.79526   0.80755
 Alpha virt. eigenvalues --    0.82589   0.86643   0.86956   0.87121   0.89419
 Alpha virt. eigenvalues --    0.94213   0.94920   0.96170   0.97651   0.98728
 Alpha virt. eigenvalues --    0.99502   1.02385   1.02743   1.02929   1.07240
 Alpha virt. eigenvalues --    1.08071   1.10171   1.11330   1.12431   1.12742
 Alpha virt. eigenvalues --    1.12755   1.14384   1.14992   1.15233   1.17735
 Alpha virt. eigenvalues --    1.18122   1.18834   1.20020   1.20145   1.20998
 Alpha virt. eigenvalues --    1.21152   1.21751   1.22567   1.22591   1.22700
 Alpha virt. eigenvalues --    1.22997   1.23354   1.23408   1.23462   1.23906
 Alpha virt. eigenvalues --    1.24055   1.25943   1.26280   1.27192   1.27857
 Alpha virt. eigenvalues --    1.28275   1.28830   1.34723   1.38781   1.47645
 Alpha virt. eigenvalues --    1.55014   1.56166   1.62349   1.64626   1.67108
 Alpha virt. eigenvalues --    1.70823   1.72529   1.73597   1.75017   1.75383
 Alpha virt. eigenvalues --    1.78760   1.78938   1.84543   1.87670   1.91419
 Alpha virt. eigenvalues --    1.95214   1.96792   2.02873   2.07726   2.10546
 Alpha virt. eigenvalues --    2.14733   2.15986   2.20434   2.20515   2.23394
 Alpha virt. eigenvalues --    2.24421   2.24783   2.25316   2.26156   2.26967
 Alpha virt. eigenvalues --    2.29099   2.29299   2.30558   2.32828   2.33602
 Alpha virt. eigenvalues --    2.34371   2.35296   2.38187   2.38312   2.38638
 Alpha virt. eigenvalues --    2.40535   2.43140   2.47670   2.48713   2.55823
 Alpha virt. eigenvalues --    2.59156   2.60221   2.62626   2.63222   2.67143
 Alpha virt. eigenvalues --    2.67842   2.68704   2.72653   2.73878   2.76204
 Alpha virt. eigenvalues --    2.77638   2.78236   2.81220   2.81369   2.86784
 Alpha virt. eigenvalues --    2.92509   2.93841   2.95585   3.00174   3.00757
 Alpha virt. eigenvalues --    3.03951   3.06540   3.14007   3.18477   3.24119
 Alpha virt. eigenvalues --    3.24475
          Condensed to atoms (all electrons):
               1          2          3          4          5          6
     1  C    5.108142   0.342034  -0.055956   0.003931  -0.000079   0.000001
     2  C    0.342034   5.072305   0.354189  -0.052446   0.003884  -0.000072
     3  C   -0.055956   0.354189   5.088614   0.357317  -0.052402   0.003872
     4  C    0.003931  -0.052446   0.357317   5.079324   0.356939  -0.052418
     5  C   -0.000079   0.003884  -0.052402   0.356939   5.079754   0.357056
     6  C    0.000001  -0.000072   0.003872  -0.052418   0.357056   5.079665
     7  C   -0.000000   0.000001  -0.000072   0.003876  -0.052455   0.357023
     8  C    0.000000  -0.000000   0.000001  -0.000072   0.003877  -0.052459
     9  C   -0.000000   0.000000  -0.000000   0.000001  -0.000072   0.003879
    10  C    0.000000  -0.000000   0.000000  -0.000000   0.000001  -0.000072
    11  C    0.000000   0.000000  -0.000000   0.000000  -0.000000   0.000001
    12  C    0.000000   0.000000   0.000000  -0.000000   0.000000  -0.000000
    13  H    0.395843  -0.033568   0.004061  -0.000081   0.000001  -0.000000
    14  H    0.000000   0.000000   0.000000  -0.000000  -0.000000  -0.000000
    15  H   -0.000000  -0.000000   0.000000  -0.000001  -0.000059  -0.003209
    16  H    0.391714  -0.041276  -0.003784  -0.000076  -0.000001  -0.000000
    17  H    0.391714  -0.041275  -0.003782  -0.000076  -0.000001  -0.000000
    18  H   -0.041167   0.399219  -0.043241  -0.003200  -0.000064  -0.000001
    19  H   -0.041168   0.399221  -0.043244  -0.003201  -0.000064  -0.000001
    20  H   -0.002874  -0.041797   0.396410  -0.041661  -0.003221  -0.000059
    21  H   -0.002874  -0.041794   0.396406  -0.041659  -0.003221  -0.000059
    22  H   -0.000056  -0.003157  -0.041702   0.397141  -0.041649  -0.003209
    23  H   -0.000056  -0.003158  -0.041703   0.397142  -0.041650  -0.003208
    24  H   -0.000000  -0.000057  -0.003221  -0.041681   0.397121  -0.041653
    25  H   -0.000000  -0.000057  -0.003221  -0.041681   0.397119  -0.041650
    26  H    0.000000  -0.000001  -0.000058  -0.003211  -0.041679   0.397134
    27  H    0.000000  -0.000001  -0.000059  -0.003210  -0.041676   0.397133
    28  H   -0.000000   0.000000  -0.000001  -0.000059  -0.003212  -0.041669
    29  H   -0.000000   0.000000  -0.000001  -0.000059  -0.003212  -0.041667
    30  H   -0.000000  -0.000000   0.000000  -0.000001  -0.000059  -0.003208
    31  H   -0.000000  -0.000000  -0.000000   0.000000  -0.000001  -0.000059
    32  H   -0.000000  -0.000000  -0.000000   0.000000  -0.000001  -0.000059
    33  H   -0.000000  -0.000000  -0.000000  -0.000000   0.000000  -0.000001
    34  H   -0.000000  -0.000000  -0.000000  -0.000000   0.000000  -0.000001
    35  H    0.000000  -0.000000  -0.000000  -0.000000  -0.000000  -0.000000
    36  H    0.000000  -0.000000  -0.000000  -0.000000  -0.000000  -0.000000
    37  H    0.000000   0.000000  -0.000000   0.000000  -0.000000   0.000000
    38  H    0.000000   0.000000   0.000000  -0.000000  -0.000000  -0.000000
               7          8          9         10         11         12
     1  C   -0.000000   0.000000  -0.000000   0.000000   0.000000   0.000000
     2  C    0.000001  -0.000000   0.000000  -0.000000   0.000000   0.000000
     3  C   -0.000072   0.000001  -0.000000   0.000000  -0.000000   0.000000
     4  C    0.003876  -0.000072   0.000001  -0.000000   0.000000  -0.000000
     5  C   -0.052455   0.003877  -0.000072   0.000001  -0.000000   0.000000
     6  C    0.357023  -0.052459   0.003879  -0.000072   0.000001  -0.000000
     7  C    5.079746   0.357024  -0.052439   0.003874  -0.000073   0.000001
     8  C    0.357024   5.079575   0.356940  -0.052375   0.003894  -0.000082
     9  C   -0.052439   0.356940   5.080099   0.356753  -0.052483   0.003993
    10  C    0.003874  -0.052375   0.356753   5.090111   0.352966  -0.057097
    11  C   -0.000073   0.003894  -0.052483   0.352966   5.069317   0.340993
    12  C    0.000001  -0.000082   0.003993  -0.057097   0.340993   5.111936
    13  H    0.000000  -0.000000   0.000000  -0.000000   0.000000   0.000000
    14  H   -0.000000  -0.000001  -0.000068  -0.003683  -0.038347   0.391486
    15  H   -0.041671   0.397156  -0.041682  -0.003219  -0.000057  -0.000000
    16  H   -0.000000  -0.000000  -0.000000  -0.000000   0.000000   0.000000
    17  H   -0.000000  -0.000000  -0.000000  -0.000000   0.000000   0.000000
    18  H    0.000000  -0.000000  -0.000000  -0.000000  -0.000000   0.000000
    19  H    0.000000  -0.000000  -0.000000  -0.000000  -0.000000   0.000000
    20  H   -0.000001   0.000000  -0.000000  -0.000000  -0.000000  -0.000000
    21  H   -0.000001   0.000000  -0.000000  -0.000000  -0.000000  -0.000000
    22  H   -0.000059  -0.000001   0.000000  -0.000000  -0.000000  -0.000000
    23  H   -0.000059  -0.000001   0.000000  -0.000000  -0.000000  -0.000000
    24  H   -0.003209  -0.000059  -0.000001   0.000000  -0.000000  -0.000000
    25  H   -0.003208  -0.000059  -0.000001   0.000000  -0.000000  -0.000000
    26  H   -0.041662  -0.003209  -0.000059  -0.000001   0.000000  -0.000000
    27  H   -0.041663  -0.003210  -0.000059  -0.000001   0.000000  -0.000000
    28  H    0.397127  -0.041668  -0.003214  -0.000059  -0.000000   0.000000
    29  H    0.397125  -0.041666  -0.003213  -0.000059  -0.000000   0.000000
    30  H   -0.041669   0.397154  -0.041681  -0.003220  -0.000057  -0.000000
    31  H   -0.003211  -0.041655   0.397116  -0.041716  -0.003172  -0.000055
    32  H   -0.003211  -0.041654   0.397114  -0.041712  -0.003172  -0.000055
    33  H   -0.000059  -0.003230  -0.041685   0.396685  -0.041871  -0.002806
    34  H   -0.000059  -0.003229  -0.041681   0.396684  -0.041872  -0.002807
    35  H   -0.000001  -0.000066  -0.003143  -0.043297   0.399868  -0.040754
    36  H   -0.000001  -0.000066  -0.003143  -0.043295   0.399865  -0.040754
    37  H   -0.000000   0.000001  -0.000087   0.004398  -0.036510   0.394975
    38  H   -0.000000  -0.000001  -0.000068  -0.003682  -0.038346   0.391485
              13         14         15         16         17         18
     1  C    0.395843   0.000000  -0.000000   0.391714   0.391714  -0.041167
     2  C   -0.033568   0.000000  -0.000000  -0.041276  -0.041275   0.399219
     3  C    0.004061   0.000000   0.000000  -0.003784  -0.003782  -0.043241
     4  C   -0.000081  -0.000000  -0.000001  -0.000076  -0.000076  -0.003200
     5  C    0.000001  -0.000000  -0.000059  -0.000001  -0.000001  -0.000064
     6  C   -0.000000  -0.000000  -0.003209  -0.000000  -0.000000  -0.000001
     7  C    0.000000  -0.000000  -0.041671  -0.000000  -0.000000   0.000000
     8  C   -0.000000  -0.000001   0.397156  -0.000000  -0.000000  -0.000000
     9  C    0.000000  -0.000068  -0.041682  -0.000000  -0.000000  -0.000000
    10  C   -0.000000  -0.003683  -0.003219  -0.000000  -0.000000  -0.000000
    11  C    0.000000  -0.038347  -0.000057   0.000000   0.000000  -0.000000
    12  C    0.000000   0.391486  -0.000000   0.000000   0.000000   0.000000
    13  H    0.522298   0.000000  -0.000000  -0.027163  -0.027163  -0.002333
    14  H    0.000000   0.545778  -0.000002   0.000000   0.000000   0.000000
    15  H   -0.000000  -0.000002   0.561968   0.000000  -0.000000   0.000000
    16  H   -0.027163   0.000000   0.000000   0.551184  -0.032507  -0.003349
    17  H   -0.027163   0.000000  -0.000000  -0.032507   0.551184   0.004559
    18  H   -0.002333   0.000000   0.000000  -0.003349   0.004559   0.563206
    19  H   -0.002331   0.000000  -0.000000   0.004559  -0.003352  -0.033748
    20  H   -0.000057   0.000000   0.000000   0.000132   0.002804   0.004599
    21  H   -0.000057  -0.000000  -0.000000   0.002804   0.000132  -0.003099
    22  H    0.000001   0.000000   0.000001   0.000014  -0.000001   0.002366
    23  H    0.000001   0.000000  -0.000002  -0.000001   0.000014   0.000231
    24  H    0.000000   0.000000  -0.000004  -0.000002   0.000000   0.000017
    25  H    0.000000  -0.000000   0.000017   0.000000  -0.000002  -0.000003
    26  H    0.000000   0.000000   0.000266   0.000000  -0.000000  -0.000002
    27  H    0.000000  -0.000000   0.002263  -0.000000   0.000000   0.000001
    28  H   -0.000000   0.000000  -0.002884  -0.000000  -0.000000  -0.000000
    29  H   -0.000000  -0.000000   0.004498  -0.000000  -0.000000   0.000000
    30  H   -0.000000   0.000000  -0.033148  -0.000000   0.000000  -0.000000
    31  H    0.000000  -0.000001   0.004499   0.000000   0.000000  -0.000000
    32  H    0.000000   0.000013  -0.002887   0.000000   0.000000   0.000000
    33  H   -0.000000   0.000146   0.000263   0.000000  -0.000000   0.000000
    34  H   -0.000000   0.002533   0.002263  -0.000000   0.000000   0.000000
    35  H    0.000000  -0.003001   0.000017   0.000000   0.000000  -0.000000
    36  H    0.000000   0.004284  -0.000003   0.000000   0.000000   0.000000
    37  H    0.000000  -0.028840   0.000000   0.000000   0.000000   0.000000
    38  H    0.000000  -0.030411   0.000000   0.000000   0.000000   0.000000
              19         20         21         22         23         24
     1  C   -0.041168  -0.002874  -0.002874  -0.000056  -0.000056  -0.000000
     2  C    0.399221  -0.041797  -0.041794  -0.003157  -0.003158  -0.000057
     3  C   -0.043244   0.396410   0.396406  -0.041702  -0.041703  -0.003221
     4  C   -0.003201  -0.041661  -0.041659   0.397141   0.397142  -0.041681
     5  C   -0.000064  -0.003221  -0.003221  -0.041649  -0.041650   0.397121
     6  C   -0.000001  -0.000059  -0.000059  -0.003209  -0.003208  -0.041653
     7  C    0.000000  -0.000001  -0.000001  -0.000059  -0.000059  -0.003209
     8  C   -0.000000   0.000000   0.000000  -0.000001  -0.000001  -0.000059
     9  C   -0.000000  -0.000000  -0.000000   0.000000   0.000000  -0.000001
    10  C   -0.000000  -0.000000  -0.000000  -0.000000  -0.000000   0.000000
    11  C   -0.000000  -0.000000  -0.000000  -0.000000  -0.000000  -0.000000
    12  C    0.000000  -0.000000  -0.000000  -0.000000  -0.000000  -0.000000
    13  H   -0.002331  -0.000057  -0.000057   0.000001   0.000001   0.000000
    14  H    0.000000   0.000000  -0.000000   0.000000   0.000000   0.000000
    15  H   -0.000000   0.000000  -0.000000   0.000001  -0.000002  -0.000004
    16  H    0.004559   0.000132   0.002804   0.000014  -0.000001  -0.000002
    17  H   -0.003352   0.002804   0.000132  -0.000001   0.000014   0.000000
    18  H   -0.033748   0.004599  -0.003099   0.002366   0.000231   0.000017
    19  H    0.563207  -0.003097   0.004598   0.000231   0.002367  -0.000003
    20  H   -0.003097   0.562995  -0.033461   0.004510  -0.002915   0.000262
    21  H    0.004598  -0.033461   0.562994  -0.002916   0.004510   0.002271
    22  H    0.000231   0.004510  -0.002916   0.561619  -0.033137  -0.002889
    23  H    0.002367  -0.002915   0.004510  -0.033137   0.561619   0.004497
    24  H   -0.000003   0.000262   0.002271  -0.002889   0.004497   0.561974
    25  H    0.000017   0.002271   0.000262   0.004497  -0.002888  -0.033158
    26  H    0.000001  -0.000004   0.000017   0.002265   0.000264  -0.002883
    27  H   -0.000002   0.000017  -0.000004   0.000264   0.002264   0.004498
    28  H    0.000000  -0.000002   0.000001  -0.000004   0.000017   0.000266
    29  H   -0.000000   0.000001  -0.000002   0.000017  -0.000004   0.002263
    30  H    0.000000  -0.000000   0.000000  -0.000002   0.000001   0.000017
    31  H    0.000000   0.000000  -0.000000   0.000000  -0.000000  -0.000002
    32  H   -0.000000  -0.000000   0.000000  -0.000000   0.000000   0.000001
    33  H    0.000000   0.000000  -0.000000  -0.000000   0.000000   0.000000
    34  H    0.000000  -0.000000   0.000000   0.000000  -0.000000  -0.000000
    35  H    0.000000   0.000000   0.000000   0.000000  -0.000000   0.000000
    36  H   -0.000000   0.000000   0.000000  -0.000000   0.000000  -0.000000
    37  H    0.000000  -0.000000  -0.000000   0.000000   0.000000  -0.000000
    38  H    0.000000  -0.000000   0.000000   0.000000   0.000000  -0.000000
              25         26         27         28         29         30
     1  C   -0.000000   0.000000   0.000000  -0.000000  -0.000000  -0.000000
     2  C   -0.000057  -0.000001  -0.000001   0.000000   0.000000  -0.000000
     3  C   -0.003221  -0.000058  -0.000059  -0.000001  -0.000001   0.000000
     4  C   -0.041681  -0.003211  -0.003210  -0.000059  -0.000059  -0.000001
     5  C    0.397119  -0.041679  -0.041676  -0.003212  -0.003212  -0.000059
     6  C   -0.041650   0.397134   0.397133  -0.041669  -0.041667  -0.003208
     7  C   -0.003208  -0.041662  -0.041663   0.397127   0.397125  -0.041669
     8  C   -0.000059  -0.003209  -0.003210  -0.041668  -0.041666   0.397154
     9  C   -0.000001  -0.000059  -0.000059  -0.003214  -0.003213  -0.041681
    10  C    0.000000  -0.000001  -0.000001  -0.000059  -0.000059  -0.003220
    11  C   -0.000000   0.000000   0.000000  -0.000000  -0.000000  -0.000057
    12  C   -0.000000  -0.000000  -0.000000   0.000000   0.000000  -0.000000
    13  H    0.000000   0.000000   0.000000  -0.000000  -0.000000  -0.000000
    14  H   -0.000000   0.000000  -0.000000   0.000000  -0.000000   0.000000
    15  H    0.000017   0.000266   0.002263  -0.002884   0.004498  -0.033148
    16  H    0.000000   0.000000  -0.000000  -0.000000  -0.000000  -0.000000
    17  H   -0.000002  -0.000000   0.000000  -0.000000  -0.000000   0.000000
    18  H   -0.000003  -0.000002   0.000001  -0.000000   0.000000  -0.000000
    19  H    0.000017   0.000001  -0.000002   0.000000  -0.000000   0.000000
    20  H    0.002271  -0.000004   0.000017  -0.000002   0.000001  -0.000000
    21  H    0.000262   0.000017  -0.000004   0.000001  -0.000002   0.000000
    22  H    0.004497   0.002265   0.000264  -0.000004   0.000017  -0.000002
    23  H   -0.002888   0.000264   0.002264   0.000017  -0.000004   0.000001
    24  H   -0.033158  -0.002883   0.004498   0.000266   0.002263   0.000017
    25  H    0.561974   0.004498  -0.002886   0.002263   0.000266  -0.000004
    26  H    0.004498   0.561973  -0.033147   0.004498  -0.002884   0.002263
    27  H   -0.002886  -0.033147   0.561972  -0.002883   0.004498   0.000266
    28  H    0.002263   0.004498  -0.002883   0.562028  -0.033154   0.004498
    29  H    0.000266  -0.002884   0.004498  -0.033154   0.562028  -0.002884
    30  H   -0.000004   0.002263   0.000266   0.004498  -0.002884   0.561967
    31  H    0.000001   0.000017  -0.000004   0.000265   0.002264  -0.002887
    32  H   -0.000002  -0.000004   0.000017   0.002264   0.000265   0.004499
    33  H   -0.000000  -0.000002   0.000001  -0.000004   0.000017   0.002263
    34  H    0.000000   0.000001  -0.000002   0.000017  -0.000004   0.000263
    35  H   -0.000000  -0.000000   0.000000  -0.000002   0.000001  -0.000003
    36  H    0.000000   0.000000  -0.000000   0.000001  -0.000002   0.000017
    37  H   -0.000000  -0.000000  -0.000000   0.000000   0.000000   0.000000
    38  H    0.000000  -0.000000   0.000000  -0.000000   0.000000  -0.000002
              31         32         33         34         35         36
     1  C   -0.000000  -0.000000  -0.000000  -0.000000   0.000000   0.000000
     2  C   -0.000000  -0.000000  -0.000000  -0.000000  -0.000000  -0.000000
     3  C   -0.000000  -0.000000  -0.000000  -0.000000  -0.000000  -0.000000
     4  C    0.000000   0.000000  -0.000000  -0.000000  -0.000000  -0.000000
     5  C   -0.000001  -0.000001   0.000000   0.000000  -0.000000  -0.000000
     6  C   -0.000059  -0.000059  -0.000001  -0.000001  -0.000000  -0.000000
     7  C   -0.003211  -0.003211  -0.000059  -0.000059  -0.000001  -0.000001
     8  C   -0.041655  -0.041654  -0.003230  -0.003229  -0.000066  -0.000066
     9  C    0.397116   0.397114  -0.041685  -0.041681  -0.003143  -0.003143
    10  C   -0.041716  -0.041712   0.396685   0.396684  -0.043297  -0.043295
    11  C   -0.003172  -0.003172  -0.041871  -0.041872   0.399868   0.399865
    12  C   -0.000055  -0.000055  -0.002806  -0.002807  -0.040754  -0.040754
    13  H    0.000000   0.000000  -0.000000  -0.000000   0.000000   0.000000
    14  H   -0.000001   0.000013   0.000146   0.002533  -0.003001   0.004284
    15  H    0.004499  -0.002887   0.000263   0.002263   0.000017  -0.000003
    16  H    0.000000   0.000000   0.000000  -0.000000   0.000000   0.000000
    17  H    0.000000   0.000000  -0.000000   0.000000   0.000000   0.000000
    18  H   -0.000000   0.000000   0.000000   0.000000  -0.000000   0.000000
    19  H    0.000000  -0.000000   0.000000   0.000000   0.000000  -0.000000
    20  H    0.000000  -0.000000   0.000000  -0.000000   0.000000   0.000000
    21  H   -0.000000   0.000000  -0.000000   0.000000   0.000000   0.000000
    22  H    0.000000  -0.000000  -0.000000   0.000000   0.000000  -0.000000
    23  H   -0.000000   0.000000   0.000000  -0.000000  -0.000000   0.000000
    24  H   -0.000002   0.000001   0.000000  -0.000000   0.000000  -0.000000
    25  H    0.000001  -0.000002  -0.000000   0.000000  -0.000000   0.000000
    26  H    0.000017  -0.000004  -0.000002   0.000001  -0.000000   0.000000
    27  H   -0.000004   0.000017   0.000001  -0.000002   0.000000  -0.000000
    28  H    0.000265   0.002264  -0.000004   0.000017  -0.000002   0.000001
    29  H    0.002264   0.000265   0.000017  -0.000004   0.000001  -0.000002
    30  H   -0.002887   0.004499   0.002263   0.000263  -0.000003   0.000017
    31  H    0.562017  -0.033183  -0.002909   0.004507   0.000230   0.002361
    32  H   -0.033183   0.562017   0.004507  -0.002912   0.002361   0.000230
    33  H   -0.002909   0.004507   0.563080  -0.033418   0.004596  -0.003093
    34  H    0.004507  -0.002912  -0.033418   0.563080  -0.003091   0.004596
    35  H    0.000230   0.002361   0.004596  -0.003091   0.561056  -0.033542
    36  H    0.002361   0.000230  -0.003093   0.004596  -0.033542   0.561057
    37  H    0.000001   0.000001  -0.000062  -0.000062  -0.002644  -0.002643
    38  H    0.000013  -0.000001   0.002532   0.000146   0.004284  -0.003002
              37         38
     1  C    0.000000   0.000000
     2  C    0.000000   0.000000
     3  C   -0.000000   0.000000
     4  C    0.000000  -0.000000
     5  C   -0.000000  -0.000000
     6  C    0.000000  -0.000000
     7  C   -0.000000  -0.000000
     8  C    0.000001  -0.000001
     9  C   -0.000087  -0.000068
    10  C    0.004398  -0.003682
    11  C   -0.036510  -0.038346
    12  C    0.394975   0.391485
    13  H    0.000000   0.000000
    14  H   -0.028840  -0.030411
    15  H    0.000000   0.000000
    16  H    0.000000   0.000000
    17  H    0.000000   0.000000
    18  H    0.000000   0.000000
    19  H    0.000000   0.000000
    20  H   -0.000000  -0.000000
    21  H   -0.000000   0.000000
    22  H    0.000000   0.000000
    23  H    0.000000   0.000000
    24  H   -0.000000  -0.000000
    25  H   -0.000000   0.000000
    26  H   -0.000000  -0.000000
    27  H   -0.000000   0.000000
    28  H    0.000000  -0.000000
    29  H    0.000000   0.000000
    30  H    0.000000  -0.000002
    31  H    0.000001   0.000013
    32  H    0.000001  -0.000001
    33  H   -0.000062   0.002532
    34  H   -0.000062   0.000146
    35  H   -0.002644   0.004284
    36  H   -0.002643  -0.003002
    37  H    0.535938  -0.028841
    38  H   -0.028841   0.545777
 Mulliken charges:
               1
     1  C   -0.489148
     2  C   -0.312194
     3  C   -0.308424
     4  C   -0.310882
     5  C   -0.310977
     6  C   -0.311029
     7  C   -0.311016
     8  C   -0.310863
     9  C   -0.311116
    10  C   -0.307983
    11  C   -0.310941
    12  C   -0.490458
    13  H    0.170548
    14  H    0.160116
    15  H    0.155616
    16  H    0.157751
    17  H    0.157751
    18  H    0.156009
    19  H    0.156009
    20  H    0.155149
    21  H    0.155150
    22  H    0.155854
    23  H    0.155854
    24  H    0.155634
    25  H    0.155635
    26  H    0.155609
    27  H    0.155610
    28  H    0.155567
    29  H    0.155567
    30  H    0.155617
    31  H    0.155564
    32  H    0.155565
    33  H    0.155048
    34  H    0.155048
    35  H    0.157133
    36  H    0.157133
    37  H    0.164375
    38  H    0.160117
 Sum of Mulliken charges =  -0.00000
 Mulliken charges with hydrogens summed into heavy atoms:
               1
     1  C   -0.003099
     2  C   -0.000176
     3  C    0.001875
     4  C    0.000827
     5  C    0.000292
     6  C    0.000190
     7  C    0.000118
     8  C    0.000371
     9  C    0.000012
    10  C    0.002114
    11  C    0.003325
    12  C   -0.005849
 Electronic spatial extent (au):  <R**2>=          64689.6696
 Charge=             -0.0000 electrons
 Dipole moment (field-independent basis, Debye):
    X=             -0.0069    Y=             -0.0013    Z=             -0.0000  Tot=              0.0070
 Quadrupole moment (field-independent basis, Debye-Ang):
   XX=            -85.0170   YY=            -83.4384   ZZ=            -80.8373
   XY=             -0.7961   XZ=              0.0008   YZ=              0.0013
 Traceless Quadrupole moment (field-independent basis, Debye-Ang):
   XX=             -1.9194   YY=             -0.3408   ZZ=              2.2602
   XY=             -0.7961   XZ=              0.0008   YZ=              0.0013
 Octapole moment (field-independent basis, Debye-Ang**2):
  XXX=           3264.8952  YYY=             -7.7579  ZZZ=             -0.0002  XYY=           1066.1655
  XXY=             16.7582  XXZ=             -0.0185  XZZ=           1032.8283  YZZ=             -2.5548
  YYZ=             -0.0007  XYZ=             -0.0186
 Hexadecapole moment (field-independent basis, Debye-Ang**3):
 XXXX=         -93914.2879 YYYY=           -290.4396 ZZZZ=           -164.9798 XXXY=           -409.4555
 XXXZ=              0.4985 YYYX=             25.7220 YYYZ=              0.0407 ZZZX=              0.0684
 ZZZY=              0.0201 XXYY=         -15378.1816 XXZZ=         -14894.6277 YYZZ=            -68.6975
 XXYZ=              0.2967 YYXZ=              0.0353 ZZXY=             12.1568
 N-N= 6.724041968457D+02 E-N=-2.436746570604D+03  KE= 4.700617515869D+02
 No NMR shielding tensors so no spin-rotation constants.
 Leave Link  601 at Thu Aug 29 20:24:45 2019, MaxMem=   280000000 cpu:               0.8 elap:               0.2
 (Enter /home/soft/g16/l9999.exe)
 1\1\GINC-NODE18\SP\RHF\6-31G(d)\C12H26\ROOT\29-Aug-2019\0\\#p hf/6-31g
 (d) 5d 7f nosymm\\Atom number=38\\0,1\C,0,-5.750393,0.434477,-0.000044
 \C,0,-7.030525,-0.40323,0.00003\C,0,-8.306562,0.440692,-0.00019\C,0,-9
 .586689,-0.397022,0.000053\C,0,-10.862723,0.446905,-0.000154\C,0,-12.1
 42844,-0.390814,0.000168\C,0,-13.418867,0.453124,-0.00028\C,0,-14.6989
 68,-0.384621,0.000211\C,0,-15.974986,0.459334,-0.000224\C,0,-17.255053
 ,-0.378198,0.000349\C,0,-18.531572,0.464871,-0.000347\C,0,-19.805822,-
 0.378986,0.000419\H,0,-4.85791909,-0.15576898,-0.00005729\H,0,-19.8523
 99,-1.017925,0.877881\H,0,-14.700574,-1.037926,0.871197\H,0,-5.748833,
 1.088263,-0.870682\H,0,-5.748776,1.088306,0.870562\H,0,-7.032066,-1.05
 719,-0.870476\H,0,-7.032158,-1.056883,0.870768\H,0,-8.304973,1.094747,
 0.870246\H,0,-8.304988,1.094252,-0.870997\H,0,-9.588293,-1.051059,-0.8
 70396\H,0,-9.588266,-1.050596,0.87085\H,0,-10.861174,1.100442,-0.87097
 8\H,0,-10.861102,1.100977,0.870268\H,0,-12.144398,-1.045015,-0.870156\
 H,0,-12.144475,-1.044215,0.871092\H,0,-13.417282,1.107415,0.869976\H,0
 ,-13.417312,1.106429,-0.871276\H,0,-14.700616,-1.038881,-0.870057\H,0,
 -15.973511,1.112604,-0.871264\H,0,-15.973421,1.113635,0.870042\H,0,-17
 .257642,-1.032795,-0.869819\H,0,-17.257716,-1.031477,0.871507\H,0,-18.
 531601,1.118572,0.869391\H,0,-18.531646,1.117046,-0.871231\H,0,-20.693
 056,0.24681,-0.000065\H,0,-19.852481,-1.019397,-0.875965\\Version=ES64
 L-G16RevA.03\HF=-469.5731043\RMSD=4.514e-09\Dipole=-0.0027062,-0.00051
 37,-0.0000132\Quadrupole=-1.4270464,-0.2533854,1.6804318,-0.5919172,0.
 0005878,0.0009508\PG=C01 [X(C12H26)]\\@


 IF AT FIRST YOU DON'T SUCCEED, TRY, TRY AGAIN.
 THEN GIVE UP;
 THERE'S NO USE BEING A DAMN FOOL ABOUT IT.

                                 -- W. C. FIELDS
 Job cpu time:       0 days  0 hours  0 minutes 36.7 seconds.
 Elapsed time:       0 days  0 hours  0 minutes  6.3 seconds.
 File lengths (MBytes):  RWF=     88 Int=      0 D2E=      0 Chk=      8 Scr=      8
 Normal termination of Gaussian 16 at Thu Aug 29 20:24:45 2019.
