 Entering Gaussian System, Link 0=g16
 Input=32ane_2.gjf
 Output=32ane_2.log
 Initial command:
 /home/soft/g16/l1.exe "/tmp/liwei01/gaussian/liaokang/Gau-199613.inp" -scrdir="/tmp/liwei01/gaussian/liaokang/"
 Entering Link 1 = /home/soft/g16/l1.exe PID=    199618.
  
 Copyright (c) 1988,1990,1992,1993,1995,1998,2003,2009,2016,
            Gaussian, Inc.  All Rights Reserved.
  
 This is part of the Gaussian(R) 16 program.  It is based on
 the Gaussian(R) 09 system (copyright 2009, Gaussian, Inc.),
 the Gaussian(R) 03 system (copyright 2003, Gaussian, Inc.),
 the Gaussian(R) 98 system (copyright 1998, Gaussian, Inc.),
 the Gaussian(R) 94 system (copyright 1995, Gaussian, Inc.),
 the Gaussian 92(TM) system (copyright 1992, Gaussian, Inc.),
 the Gaussian 90(TM) system (copyright 1990, Gaussian, Inc.),
 the Gaussian 88(TM) system (copyright 1988, Gaussian, Inc.),
 the Gaussian 86(TM) system (copyright 1986, Carnegie Mellon
 University), and the Gaussian 82(TM) system (copyright 1983,
 Carnegie Mellon University). Gaussian is a federally registered
 trademark of Gaussian, Inc.
  
 This software contains proprietary and confidential information,
 including trade secrets, belonging to Gaussian, Inc.
  
 This software is provided under written license and may be
 used, copied, transmitted, or stored only in accord with that
 written license.
  
 The following legend is applicable only to US Government
 contracts under FAR:
  
                    RESTRICTED RIGHTS LEGEND
  
 Use, reproduction and disclosure by the US Government is
 subject to restrictions as set forth in subparagraphs (a)
 and (c) of the Commercial Computer Software - Restricted
 Rights clause in FAR 52.227-19.
  
 Gaussian, Inc.
 340 Quinnipiac St., Bldg. 40, Wallingford CT 06492
  
  
 ---------------------------------------------------------------
 Warning -- This program may not be used in any manner that
 competes with the business of Gaussian, Inc. or will provide
 assistance to any competitor of Gaussian, Inc.  The licensee
 of this program is prohibited from giving any competitor of
 Gaussian, Inc. access to this program.  By using this program,
 the user acknowledges that Gaussian, Inc. is engaged in the
 business of creating and licensing software in the field of
 computational chemistry and represents and warrants to the
 licensee that it is not a competitor of Gaussian, Inc. and that
 it will not use this program in any manner prohibited above.
 ---------------------------------------------------------------
  

 Cite this work as:
 Gaussian 16, Revision A.03,
 M. J. Frisch, G. W. Trucks, H. B. Schlegel, G. E. Scuseria, 
 M. A. Robb, J. R. Cheeseman, G. Scalmani, V. Barone, 
 G. A. Petersson, H. Nakatsuji, X. Li, M. Caricato, A. V. Marenich, 
 J. Bloino, B. G. Janesko, R. Gomperts, B. Mennucci, H. P. Hratchian, 
 J. V. Ortiz, A. F. Izmaylov, J. L. Sonnenberg, D. Williams-Young, 
 F. Ding, F. Lipparini, F. Egidi, J. Goings, B. Peng, A. Petrone, 
 T. Henderson, D. Ranasinghe, V. G. Zakrzewski, J. Gao, N. Rega, 
 G. Zheng, W. Liang, M. Hada, M. Ehara, K. Toyota, R. Fukuda, 
 J. Hasegawa, M. Ishida, T. Nakajima, Y. Honda, O. Kitao, H. Nakai, 
 T. Vreven, K. Throssell, J. A. Montgomery, Jr., J. E. Peralta, 
 F. Ogliaro, M. J. Bearpark, J. J. Heyd, E. N. Brothers, K. N. Kudin, 
 V. N. Staroverov, T. A. Keith, R. Kobayashi, J. Normand, 
 K. Raghavachari, A. P. Rendell, J. C. Burant, S. S. Iyengar, 
 J. Tomasi, M. Cossi, J. M. Millam, M. Klene, C. Adamo, R. Cammi, 
 J. W. Ochterski, R. L. Martin, K. Morokuma, O. Farkas, 
 J. B. Foresman, and D. J. Fox, Gaussian, Inc., Wallingford CT, 2016.
 
 ******************************************
 Gaussian 16:  ES64L-G16RevA.03 25-Dec-2016
                29-Aug-2019 
 ******************************************
 %chk=32ane_2.chk
 %nproc=6
 Will use up to    6 processors via shared memory.
 ---------------------------
 #p hf/6-31g(d) 5d 7f nosymm
 ---------------------------
 1/38=1,172=1/1;
 2/12=2,15=1,17=6,18=5,40=1/2;
 3/5=1,6=6,7=1,8=11,11=9,25=1,30=1/1,2,3;
 4//1;
 5/5=2,38=5/2;
 6/7=2,8=2,9=2,10=2,28=1/1;
 99/5=1,9=1/99;
 Leave Link    1 at Thu Aug 29 20:24:32 2019, MaxMem=           0 cpu:               0.4 elap:               0.1
 (Enter /home/soft/g16/l101.exe)
 --------------
 Atom number=38
 --------------
 Symbolic Z-matrix:
 Charge =  0 Multiplicity = 1
 c                     14.699    0.38455   0.00015 
 c                     13.41888  -0.45318  -0.00014 
 c                     12.14286   0.39079   0.00014 
 c                     10.86272  -0.44691  -0.00015 
 c                     9.58669   0.39704   0.00014 
 c                     8.30655  -0.44065  -0.00015 
 c                     7.03051   0.40329   0.00013 
 c                     5.75036  -0.4344   -0.00016 
 c                     4.47433   0.40955   0.00013 
 c                     3.19418  -0.42814  -0.00016 
 c                     1.91815   0.4158    0.00012 
 c                     0.638    -0.4219   -0.00015 
 h                     15.59144  -0.20574  -0.00004 
 h                    -0.25447   0.16836   0.00003 
 h                     0.6364   -1.07597   0.87027 
 h                     14.70064   1.03862  -0.87025 
 h                     14.70063   1.03803   0.871 
 h                     13.41729  -1.10667  -0.87099 
 h                     13.41729  -1.10726   0.87027 
 h                     12.14447   1.04429   0.87099 
 h                     12.14447   1.04488  -0.87026 
 h                     10.86113  -1.10041  -0.87099 
 h                     10.86112  -1.101     0.87026 
 h                     9.5883    1.05113  -0.87027 
 h                     9.58829   1.05054   0.87098 
 h                     8.30495  -1.09416  -0.871 
 h                     8.30495  -1.09475   0.87025 
 h                     7.03211   1.0568    0.87097 
 h                     7.03212   1.05739  -0.87027 
 h                     5.74877  -1.08791  -0.871 
 h                     5.74876  -1.08849   0.87025 
 h                     4.47593   1.06364  -0.87028 
 h                     4.47593   1.06306   0.87097 
 h                     3.19258  -1.08165  -0.871 
 h                     3.19258  -1.08224   0.87025 
 h                     1.91974   1.06932   0.87096 
 h                     1.91974   1.06989  -0.87029 
 h                     0.63641  -1.07542  -0.87098 
 
 ITRead=  0  0  0  0  0  0  0  0  0  0  0  0  0  0  0  0  0  0  0  0
 ITRead=  0  0  0  0  0  0  0  0  0  0  0  0  0  0  0  0  0  0
 MicOpt= -1 -1 -1 -1 -1 -1 -1 -1 -1 -1 -1 -1 -1 -1 -1 -1 -1 -1 -1 -1
 MicOpt= -1 -1 -1 -1 -1 -1 -1 -1 -1 -1 -1 -1 -1 -1 -1 -1 -1 -1
 NAtoms=     38 NQM=       38 NQMF=       0 NMMI=      0 NMMIF=      0
                NMic=       0 NMicF=      0.
                    Isotopes and Nuclear Properties:
 (Nuclear quadrupole moments (NQMom) in fm**2, nuclear magnetic moments (NMagM)
  in nuclear magnetons)

  Atom         1           2           3           4           5           6           7           8           9          10
 IAtWgt=          12          12          12          12          12          12          12          12          12          12
 AtmWgt=  12.0000000  12.0000000  12.0000000  12.0000000  12.0000000  12.0000000  12.0000000  12.0000000  12.0000000  12.0000000
 NucSpn=           0           0           0           0           0           0           0           0           0           0
 AtZEff=  -0.0000000  -0.0000000  -0.0000000  -0.0000000  -0.0000000  -0.0000000  -0.0000000  -0.0000000  -0.0000000  -0.0000000
 NQMom=    0.0000000   0.0000000   0.0000000   0.0000000   0.0000000   0.0000000   0.0000000   0.0000000   0.0000000   0.0000000
 NMagM=    0.0000000   0.0000000   0.0000000   0.0000000   0.0000000   0.0000000   0.0000000   0.0000000   0.0000000   0.0000000
 AtZNuc=   6.0000000   6.0000000   6.0000000   6.0000000   6.0000000   6.0000000   6.0000000   6.0000000   6.0000000   6.0000000

  Atom        11          12          13          14          15          16          17          18          19          20
 IAtWgt=          12          12           1           1           1           1           1           1           1           1
 AtmWgt=  12.0000000  12.0000000   1.0078250   1.0078250   1.0078250   1.0078250   1.0078250   1.0078250   1.0078250   1.0078250
 NucSpn=           0           0           1           1           1           1           1           1           1           1
 AtZEff=  -0.0000000  -0.0000000  -0.0000000  -0.0000000  -0.0000000  -0.0000000  -0.0000000  -0.0000000  -0.0000000  -0.0000000
 NQMom=    0.0000000   0.0000000   0.0000000   0.0000000   0.0000000   0.0000000   0.0000000   0.0000000   0.0000000   0.0000000
 NMagM=    0.0000000   0.0000000   2.7928460   2.7928460   2.7928460   2.7928460   2.7928460   2.7928460   2.7928460   2.7928460
 AtZNuc=   6.0000000   6.0000000   1.0000000   1.0000000   1.0000000   1.0000000   1.0000000   1.0000000   1.0000000   1.0000000

  Atom        21          22          23          24          25          26          27          28          29          30
 IAtWgt=           1           1           1           1           1           1           1           1           1           1
 AtmWgt=   1.0078250   1.0078250   1.0078250   1.0078250   1.0078250   1.0078250   1.0078250   1.0078250   1.0078250   1.0078250
 NucSpn=           1           1           1           1           1           1           1           1           1           1
 AtZEff=  -0.0000000  -0.0000000  -0.0000000  -0.0000000  -0.0000000  -0.0000000  -0.0000000  -0.0000000  -0.0000000  -0.0000000
 NQMom=    0.0000000   0.0000000   0.0000000   0.0000000   0.0000000   0.0000000   0.0000000   0.0000000   0.0000000   0.0000000
 NMagM=    2.7928460   2.7928460   2.7928460   2.7928460   2.7928460   2.7928460   2.7928460   2.7928460   2.7928460   2.7928460
 AtZNuc=   1.0000000   1.0000000   1.0000000   1.0000000   1.0000000   1.0000000   1.0000000   1.0000000   1.0000000   1.0000000

  Atom        31          32          33          34          35          36          37          38
 IAtWgt=           1           1           1           1           1           1           1           1
 AtmWgt=   1.0078250   1.0078250   1.0078250   1.0078250   1.0078250   1.0078250   1.0078250   1.0078250
 NucSpn=           1           1           1           1           1           1           1           1
 AtZEff=  -0.0000000  -0.0000000  -0.0000000  -0.0000000  -0.0000000  -0.0000000  -0.0000000  -0.0000000
 NQMom=    0.0000000   0.0000000   0.0000000   0.0000000   0.0000000   0.0000000   0.0000000   0.0000000
 NMagM=    2.7928460   2.7928460   2.7928460   2.7928460   2.7928460   2.7928460   2.7928460   2.7928460
 AtZNuc=   1.0000000   1.0000000   1.0000000   1.0000000   1.0000000   1.0000000   1.0000000   1.0000000
 Leave Link  101 at Thu Aug 29 20:24:32 2019, MaxMem=   280000000 cpu:               0.9 elap:               0.2
 (Enter /home/soft/g16/l202.exe)
                          Input orientation:                          
 ---------------------------------------------------------------------
 Center     Atomic      Atomic             Coordinates (Angstroms)
 Number     Number       Type             X           Y           Z
 ---------------------------------------------------------------------
      1          6           0       14.698996    0.384549    0.000153
      2          6           0       13.418878   -0.453176   -0.000137
      3          6           0       12.142861    0.390790    0.000143
      4          6           0       10.862721   -0.446912   -0.000146
      5          6           0        9.586692    0.397040    0.000135
      6          6           0        8.306546   -0.440654   -0.000153
      7          6           0        7.030512    0.403292    0.000129
      8          6           0        5.750363   -0.434398   -0.000156
      9          6           0        4.474329    0.409546    0.000126
     10          6           0        3.194180   -0.428143   -0.000156
     11          6           0        1.918145    0.415800    0.000124
     12          6           0        0.638000   -0.421895   -0.000149
     13          1           0       15.591444   -0.205737   -0.000043
     14          1           0       -0.254470    0.168357    0.000032
     15          1           0        0.636403   -1.075973    0.870268
     16          1           0       14.700641    1.038620   -0.870254
     17          1           0       14.700632    1.038030    0.871004
     18          1           0       13.417295   -1.106670   -0.870988
     19          1           0       13.417287   -1.107260    0.870270
     20          1           0       12.144465    1.044289    0.870990
     21          1           0       12.144472    1.044878   -0.870262
     22          1           0       10.861129   -1.100414   -0.870992
     23          1           0       10.861122   -1.101003    0.870258
     24          1           0        9.588298    1.051132   -0.870269
     25          1           0        9.588292    1.050544    0.870980
     26          1           0        8.304951   -1.094160   -0.870998
     27          1           0        8.304945   -1.094748    0.870250
     28          1           0        7.032112    1.056799    0.870973
     29          1           0        7.032116    1.057386   -0.870274
     30          1           0        5.748766   -1.087906   -0.871001
     31          1           0        5.748762   -1.088493    0.870246
     32          1           0        4.475930    1.063640   -0.870278
     33          1           0        4.475929    1.063056    0.870968
     34          1           0        3.192581   -1.081654   -0.870997
     35          1           0        3.192579   -1.082235    0.870250
     36          1           0        1.919744    1.069316    0.870962
     37          1           0        1.919742    1.069887   -0.870286
     38          1           0        0.636410   -1.075422   -0.870979
 ---------------------------------------------------------------------
                    Distance matrix (angstroms):
                    1          2          3          4          5
     1  C    0.000000
     2  C    1.529864   0.000000
     3  C    2.556143   1.529869   0.000000
     4  C    3.925345   2.556165   1.529870   0.000000
     5  C    5.112319   3.925368   2.556177   1.529871   0.000000
     6  C    6.445493   5.112347   3.925380   2.556183   1.529871
     7  C    7.668507   6.445522   5.112364   3.925388   2.556188
     8  C    8.986028   7.668538   6.445538   5.112373   3.925393
     9  C   10.224698   8.986058   7.668555   6.445547   5.112378
    10  C   11.533484  10.224729   8.986075   7.668564   6.445552
    11  C   12.780889  11.533515  10.224747   8.986084   7.668570
    12  C   14.084103  12.780916  11.533529  10.224752   8.986086
    13  H    1.070000   2.186611   3.499795   4.734869   6.034930
    14  H   14.955029  13.687467  12.399326  11.134204   9.843819
    15  H   14.164983  12.827203  11.632157  10.282554   9.112331
    16  H    1.088770   2.150692   2.778401   4.206367   5.227014
    17  H    1.088771   2.150692   2.778401   4.206366   5.227013
    18  H    2.150669   1.088778   2.150683   2.778398   4.206366
    19  H    2.150669   1.088778   2.150683   2.778397   4.206366
    20  H    2.778352   2.150672   1.088778   2.150680   2.778403
    21  H    2.778354   2.150673   1.088778   2.150680   2.778403
    22  H    4.206332   2.778378   2.150675   1.088779   2.150679
    23  H    4.206331   2.778378   2.150675   1.088779   2.150679
    24  H    5.226969   4.206354   2.778392   2.150675   1.088780
    25  H    5.226967   4.206353   2.778391   2.150675   1.088780
    26  H    6.620370   5.226998   4.206366   2.778399   2.150677
    27  H    6.620368   5.226997   4.206365   2.778399   2.150676
    28  H    7.745409   6.620396   5.227013   4.206371   2.778402
    29  H    7.745412   6.620398   5.227015   4.206373   2.778404
    30  H    9.112280   7.745444   6.620414   5.227026   4.206378
    31  H    9.112278   7.745442   6.620412   5.227024   4.206377
    32  H   10.282504   9.112310   7.745463   6.620423   5.227032
    33  H   10.282499   9.112306   7.745458   6.620420   5.227028
    34  H   11.632121  10.282535   9.112326   7.745471   6.620428
    35  H   11.632117  10.282533   9.112323   7.745470   6.620426
    36  H   12.827178  11.632148  10.282550   9.112333   7.745475
    37  H   12.827185  11.632154  10.282557   9.112338   7.745481
    38  H   14.164982  12.827199  11.632156  10.282549   9.112329
                    6          7          8          9         10
     6  C    0.000000
     7  C    1.529872   0.000000
     8  C    2.556191   1.529871   0.000000
     9  C    3.925395   2.556191   1.529871   0.000000
    10  C    5.112381   3.925395   2.556191   1.529871   0.000000
    11  C    6.445555   5.112382   3.925396   2.556192   1.529871
    12  C    7.668569   6.445552   5.112378   3.925394   2.556188
    13  H    7.288684   8.582568   9.843737  11.134128  12.399258
    14  H    8.582650   7.288769   6.035009   4.734946   3.499857
    15  H    7.745473   6.620423   5.227030   4.206375   2.778407
    16  H    6.620406   7.745456   9.112317  10.282546  11.632158
    17  H    6.620405   7.745454   9.112315  10.282543  11.632155
    18  H    5.227015   6.620410   7.745460   9.112321  10.282550
    19  H    5.227014   6.620408   7.745457   9.112319  10.282546
    20  H    4.206372   5.227025   6.620419   7.745469   9.112330
    21  H    4.206373   5.227026   6.620421   7.745471   9.112332
    22  H    2.778406   4.206377   5.227032   6.620426   7.745477
    23  H    2.778405   4.206376   5.227030   6.620424   7.745474
    24  H    2.150678   2.778409   4.206381   5.227035   6.620430
    25  H    2.150678   2.778409   4.206380   5.227034   6.620428
    26  H    1.088781   2.150679   2.778412   4.206382   5.227038
    27  H    1.088780   2.150678   2.778409   4.206380   5.227034
    28  H    2.150676   1.088781   2.150678   2.778410   4.206381
    29  H    2.150676   1.088780   2.150678   2.778411   4.206383
    30  H    2.778408   2.150677   1.088782   2.150678   2.778411
    31  H    2.778408   2.150676   1.088780   2.150676   2.778408
    32  H    4.206380   2.778409   2.150677   1.088781   2.150677
    33  H    4.206379   2.778407   2.150676   1.088781   2.150677
    34  H    5.227034   4.206381   2.778408   2.150677   1.088781
    35  H    5.227034   4.206380   2.778409   2.150676   1.088782
    36  H    6.620430   5.227034   4.206381   2.778409   2.150678
    37  H    6.620433   5.227039   4.206383   2.778414   2.150677
    38  H    7.745467   6.620420   5.227022   4.206373   2.778397
                   11         12         13         14         15
    11  C    0.000000
    12  C    1.529871   0.000000
    13  H   13.687418  14.955006   0.000000
    14  H    2.186660   1.070000  15.850329   0.000000
    15  H    2.150674   1.088782  15.005599   1.760489   0.000000
    16  H   12.827224  14.165029   1.760460  15.005669  14.328423
    17  H   12.827220  14.165024   1.760461  15.005665  14.222220
    18  H   11.632162  12.827223   2.509412  13.758689  12.898997
    19  H   11.632159  12.827218   2.509411  13.758686  12.780922
    20  H   10.282559  11.632167   3.768677  12.460313  11.701752
    21  H   10.282562  11.632172   3.768678  12.460315  11.830600
    22  H    9.112338  10.282564   4.892328  11.221631  10.371962
    23  H    9.112336  10.282559   4.892327  11.221629  10.224750
    24  H    7.745481   9.112341   6.194737   9.920524   9.364319
    25  H    7.745479   9.112336   6.194736   9.920522   9.200999
    26  H    6.620432   7.745480   7.391944   8.695765   7.863776
    27  H    6.620430   7.745474   7.391942   8.695763   7.668565
    28  H    5.227037   6.620427   8.695678   7.392032   6.741944
    29  H    5.227038   6.620431   8.695681   7.392032   6.963178
    30  H    4.206382   5.227034   9.920438   6.194815   5.400779
    31  H    4.206380   5.227029   9.920436   6.194815   5.112374
    32  H    2.778410   4.206382  11.221554   4.892408   4.727516
    33  H    2.778411   4.206379  11.221549   4.892411   4.395157
    34  H    2.150676   2.778406  12.460240   3.768737   3.092908
    35  H    2.150677   2.778402  12.460237   3.768741   2.556184
    36  H    1.088781   2.150677  13.758626   2.509472   2.499846
    37  H    1.088782   2.150678  13.758632   2.509464   3.046507
    38  H    2.150676   1.088781  15.005596   1.760487   1.741247
                   16         17         18         19         20
    16  H    0.000000
    17  H    1.741258   0.000000
    18  H    2.499849   3.046511   0.000000
    19  H    3.046510   2.499849   1.741258   0.000000
    20  H    3.092895   2.556175   3.046508   2.499848   0.000000
    21  H    2.556177   3.092896   2.499848   3.046507   1.741252
    22  H    4.395147   4.727502   2.556174   3.092892   3.046507
    23  H    4.727502   4.395145   3.092893   2.556173   2.499850
    24  H    5.112358   5.400756   4.395148   4.727503   3.092898
    25  H    5.400755   5.112355   4.727503   4.395147   2.556181
    26  H    6.741929   6.963156   5.112359   5.400756   4.727510
    27  H    6.963156   6.741925   5.400757   5.112357   4.395156
    28  H    7.863748   7.668543   6.963159   6.741929   5.112368
    29  H    7.668548   7.863750   6.741932   6.963160   5.400767
    30  H    9.200988   9.364299   7.668552   7.863753   6.963171
    31  H    9.364299   9.200982   7.863754   7.668548   6.741942
    32  H   10.224742  10.371945   9.200992   9.364303   7.863766
    33  H   10.371942  10.224734   9.364302   9.200987   7.668559
    34  H   11.701752  11.830590  10.224745  10.371947   9.364314
    35  H   11.830590  11.701744  10.371949  10.224739   9.200998
    36  H   12.898996  12.780926  11.830595  11.701751  10.224752
    37  H   12.780937  12.899002  11.701757  11.830598  10.371965
    38  H   14.222228  14.328417  12.780923  12.898984  11.830594
                   21         22         23         24         25
    21  H    0.000000
    22  H    2.499850   0.000000
    23  H    3.046507   1.741250   0.000000
    24  H    2.556182   2.499850   3.046506   0.000000
    25  H    3.092897   3.046506   2.499850   1.741249   0.000000
    26  H    4.395157   2.556186   3.092900   2.499852   3.046507
    27  H    4.727510   3.092900   2.556185   3.046507   2.499852
    28  H    5.400765   4.727513   4.395160   3.092902   2.556188
    29  H    5.112371   4.395161   4.727513   2.556190   3.092903
    30  H    6.741945   5.112378   5.400772   4.395167   4.727518
    31  H    6.963171   5.400773   5.112375   4.727518   4.395164
    32  H    7.668565   6.741950   6.963176   5.112383   5.400777
    33  H    7.863763   6.963175   6.741946   5.400775   5.112378
    34  H    9.201005   7.668571   7.863769   6.741956   6.963180
    35  H    9.364314   7.863772   7.668566   6.963180   6.741950
    36  H   10.371958   9.364320   9.201007   7.863774   7.668571
    37  H   10.224761   9.201011   9.364322   7.668579   7.863780
    38  H   11.701759  10.224750  10.371948   9.201007   9.364312
                   26         27         28         29         30
    26  H    0.000000
    27  H    1.741248   0.000000
    28  H    3.046507   2.499852   0.000000
    29  H    2.499852   3.046506   1.741247   0.000000
    30  H    2.556193   3.092904   3.046508   2.499853   0.000000
    31  H    3.092906   2.556191   2.499853   3.046507   1.741247
    32  H    4.395168   4.727519   3.092906   2.556194   2.499852
    33  H    4.727519   4.395166   2.556191   3.092903   3.046507
    34  H    5.112385   5.400776   4.727519   4.395170   2.556193
    35  H    5.400781   5.112381   4.395166   4.727520   3.092908
    36  H    6.963183   6.741956   5.112383   5.400777   4.727521
    37  H    6.741958   6.963184   5.400785   5.112389   4.395167
    38  H    7.668564   7.863757   6.963172   6.741953   5.112371
                   31         32         33         34         35
    31  H    0.000000
    32  H    3.046506   0.000000
    33  H    2.499853   1.741246   0.000000
    34  H    3.092901   2.499854   3.046507   0.000000
    35  H    2.556191   3.046507   2.499852   1.741247   0.000000
    36  H    4.395170   3.092901   2.556193   3.046507   2.499856
    37  H    4.727520   2.556196   3.092912   2.499850   3.046508
    38  H    5.400757   4.395168   4.727512   2.556179   3.092883
                   36         37         38
    36  H    0.000000
    37  H    1.741248   0.000000
    38  H    3.046507   2.499858   0.000000
 Symmetry turned off by external request.
 Stoichiometry    C12H26
 Framework group  C1[X(C12H26)]
 Deg. of freedom   108
 Full point group                 C1      NOp   1
 Rotational constants (GHZ):           7.1253684           0.1477863           0.1463204
 Leave Link  202 at Thu Aug 29 20:24:32 2019, MaxMem=   280000000 cpu:               0.1 elap:               0.0
 (Enter /home/soft/g16/l301.exe)
 Standard basis: 6-31G(d) (5D, 7F)
 Ernie: Thresh=  0.10000D-02 Tol=  0.10000D-05 Strict=F.
   220 basis functions,   440 primitive gaussians,   232 cartesian basis functions
    49 alpha electrons       49 beta electrons
       nuclear repulsion energy       672.4800291569 Hartrees.
 IExCor=    0 DFT=F Ex=HF Corr=None ExCW=0 ScaHFX=  1.000000
 ScaDFX=  1.000000  1.000000  1.000000  1.000000 ScalE2=  1.000000  1.000000
 IRadAn=      5 IRanWt=     -1 IRanGd=            0 ICorTp=0 IEmpDi=  4
 NAtoms=   38 NActive=   38 NUniq=   38 SFac= 1.00D+00 NAtFMM=   60 NAOKFM=F Big=F
 Integral buffers will be    131072 words long.
 Raffenetti 1 integral format.
 Two-electron integral symmetry is turned off.
 Leave Link  301 at Thu Aug 29 20:24:32 2019, MaxMem=   280000000 cpu:               0.4 elap:               0.1
 (Enter /home/soft/g16/l302.exe)
 NPDir=0 NMtPBC=     1 NCelOv=     1 NCel=       1 NClECP=     1 NCelD=      1
         NCelK=      1 NCelE2=     1 NClLst=     1 CellRange=     0.0.
 One-electron integrals computed using PRISM.
 NBasis=   220 RedAO= T EigKep=  2.75D-03  NBF=   220
 NBsUse=   220 1.00D-06 EigRej= -1.00D+00 NBFU=   220
 Leave Link  302 at Thu Aug 29 20:24:33 2019, MaxMem=   280000000 cpu:               0.9 elap:               0.2
 (Enter /home/soft/g16/l303.exe)
 DipDrv:  MaxL=1.
 Leave Link  303 at Thu Aug 29 20:24:33 2019, MaxMem=   280000000 cpu:               0.2 elap:               0.1
 (Enter /home/soft/g16/l401.exe)
 ExpMin= 1.61D-01 ExpMax= 3.05D+03 ExpMxC= 4.57D+02 IAcc=3 IRadAn=         5 AccDes= 0.00D+00
 Harris functional with IExCor=  205 and IRadAn=       5 diagonalized for initial guess.
 HarFok:  IExCor=  205 AccDes= 0.00D+00 IRadAn=         5 IDoV= 1 UseB2=F ITyADJ=14
 ICtDFT=  3500011 ScaDFX=  1.000000  1.000000  1.000000  1.000000
 FoFCou: FMM=F IPFlag=           0 FMFlag=      100000 FMFlg1=           0
         NFxFlg=           0 DoJE=T BraDBF=F KetDBF=T FulRan=T
         wScrn=  0.000000 ICntrl=       500 IOpCl=  0 I1Cent=   200000004 NGrid=           0
         NMat0=    1 NMatS0=      1 NMatT0=    0 NMatD0=    1 NMtDS0=    0 NMtDT0=    0
 Symmetry not used in FoFCou.
 Harris En= -470.840282971993    
 JPrj=0 DoOrth=F DoCkMO=F.
 Leave Link  401 at Thu Aug 29 20:24:34 2019, MaxMem=   280000000 cpu:               7.7 elap:               1.4
 (Enter /home/soft/g16/l502.exe)
 Two-electron integral symmetry not used.
 Closed shell SCF:
 Using DIIS extrapolation, IDIIS=  1040.
 NGot=   280000000 LenX=   279888450 LenY=   279834185
 Requested convergence on RMS density matrix=1.00D-08 within 128 cycles.
 Requested convergence on MAX density matrix=1.00D-06.
 Requested convergence on             energy=1.00D-06.
 No special actions if energy rises.
 Fock matrices will be formed incrementally for  20 cycles.
 Integral accuracy reduced to 1.0D-05 until final iterations.

 Cycle   1  Pass 0  IDiag  1:
 FoFJK:  IHMeth= 1 ICntrl=       0 DoSepK=F KAlg= 0 I1Cent=           0 FoldK=F
 IRaf= 710000000 NMat=       1 IRICut=       1 DoRegI=T DoRafI=F ISym2E= 0 IDoP0=0 IntGTp=1.
 FoFCou: FMM=F IPFlag=           0 FMFlag=      100000 FMFlg1=           0
         NFxFlg=           0 DoJE=F BraDBF=F KetDBF=F FulRan=T
         wScrn=  0.000000 ICntrl=         0 IOpCl=  0 I1Cent=           0 NGrid=           0
         NMat0=    1 NMatS0=      1 NMatT0=    0 NMatD0=    1 NMtDS0=    0 NMtDT0=    0
 Symmetry not used in FoFCou.
 E= -468.801541300151    
 DIIS: error= 6.54D-02 at cycle   1 NSaved=   1.
 NSaved= 1 IEnMin= 1 EnMin= -468.801541300151     IErMin= 1 ErrMin= 6.54D-02
 ErrMax= 6.54D-02  0.00D+00 EMaxC= 1.00D-01 BMatC= 7.66D-01 BMatP= 7.66D-01
 IDIUse=3 WtCom= 3.46D-01 WtEn= 6.54D-01
 Coeff-Com:  0.100D+01
 Coeff-En:   0.100D+01
 Coeff:      0.100D+01
 Gap=     0.639 Goal=   None    Shift=    0.000
 GapD=    0.639 DampG=2.000 DampE=0.500 DampFc=1.0000 IDamp=-1.
 RMSDP=4.84D-03 MaxDP=1.22D-01              OVMax= 1.34D-01

 Cycle   2  Pass 0  IDiag  1:
 RMSU=  4.70D-03    CP:  9.46D-01
 E= -469.455439387398     Delta-E=       -0.653898087247 Rises=F Damp=F
 DIIS: error= 2.31D-02 at cycle   2 NSaved=   2.
 NSaved= 2 IEnMin= 2 EnMin= -469.455439387398     IErMin= 2 ErrMin= 2.31D-02
 ErrMax= 2.31D-02  0.00D+00 EMaxC= 1.00D-01 BMatC= 1.18D-01 BMatP= 7.66D-01
 IDIUse=3 WtCom= 7.69D-01 WtEn= 2.31D-01
 Coeff-Com:  0.253D+00 0.747D+00
 Coeff-En:   0.000D+00 0.100D+01
 Coeff:      0.194D+00 0.806D+00
 Gap=     0.659 Goal=   None    Shift=    0.000
 RMSDP=1.63D-03 MaxDP=3.22D-02 DE=-6.54D-01 OVMax= 4.34D-02

 Cycle   3  Pass 0  IDiag  1:
 RMSU=  8.36D-04    CP:  9.61D-01  7.11D-01
 E= -469.569137773609     Delta-E=       -0.113698386211 Rises=F Damp=F
 DIIS: error= 4.00D-03 at cycle   3 NSaved=   3.
 NSaved= 3 IEnMin= 3 EnMin= -469.569137773609     IErMin= 3 ErrMin= 4.00D-03
 ErrMax= 4.00D-03  0.00D+00 EMaxC= 1.00D-01 BMatC= 2.62D-03 BMatP= 1.18D-01
 IDIUse=3 WtCom= 9.60D-01 WtEn= 4.00D-02
 Coeff-Com: -0.310D-01 0.594D-01 0.972D+00
 Coeff-En:   0.000D+00 0.000D+00 0.100D+01
 Coeff:     -0.297D-01 0.570D-01 0.973D+00
 Gap=     0.640 Goal=   None    Shift=    0.000
 RMSDP=2.39D-04 MaxDP=6.79D-03 DE=-1.14D-01 OVMax= 8.00D-03

 Cycle   4  Pass 0  IDiag  1:
 RMSU=  1.12D-04    CP:  9.59D-01  7.54D-01  1.05D+00
 E= -469.572384413978     Delta-E=       -0.003246640369 Rises=F Damp=F
 DIIS: error= 5.41D-04 at cycle   4 NSaved=   4.
 NSaved= 4 IEnMin= 4 EnMin= -469.572384413978     IErMin= 4 ErrMin= 5.41D-04
 ErrMax= 5.41D-04  0.00D+00 EMaxC= 1.00D-01 BMatC= 5.53D-05 BMatP= 2.62D-03
 IDIUse=3 WtCom= 9.95D-01 WtEn= 5.41D-03
 Coeff-Com: -0.514D-03-0.197D-01-0.803D-01 0.110D+01
 Coeff-En:   0.000D+00 0.000D+00 0.000D+00 0.100D+01
 Coeff:     -0.511D-03-0.196D-01-0.798D-01 0.110D+01
 Gap=     0.641 Goal=   None    Shift=    0.000
 RMSDP=5.88D-05 MaxDP=1.23D-03 DE=-3.25D-03 OVMax= 1.80D-03

 Cycle   5  Pass 0  IDiag  1:
 RMSU=  3.72D-05    CP:  9.59D-01  7.55D-01  1.09D+00  1.23D+00
 E= -469.572475552383     Delta-E=       -0.000091138405 Rises=F Damp=F
 DIIS: error= 1.90D-04 at cycle   5 NSaved=   5.
 NSaved= 5 IEnMin= 5 EnMin= -469.572475552383     IErMin= 5 ErrMin= 1.90D-04
 ErrMax= 1.90D-04  0.00D+00 EMaxC= 1.00D-01 BMatC= 6.66D-06 BMatP= 5.53D-05
 IDIUse=3 WtCom= 9.98D-01 WtEn= 1.90D-03
 Coeff-Com:  0.223D-02-0.937D-02-0.910D-01 0.234D+00 0.864D+00
 Coeff-En:   0.000D+00 0.000D+00 0.000D+00 0.000D+00 0.100D+01
 Coeff:      0.222D-02-0.935D-02-0.908D-01 0.234D+00 0.864D+00
 Gap=     0.642 Goal=   None    Shift=    0.000
 RMSDP=1.63D-05 MaxDP=4.00D-04 DE=-9.11D-05 OVMax= 4.66D-04

 Cycle   6  Pass 0  IDiag  1:
 RMSU=  7.19D-06    CP:  9.59D-01  7.55D-01  1.10D+00  1.35D+00  9.72D-01
 E= -469.572484236491     Delta-E=       -0.000008684108 Rises=F Damp=F
 DIIS: error= 2.14D-05 at cycle   6 NSaved=   6.
 NSaved= 6 IEnMin= 6 EnMin= -469.572484236491     IErMin= 6 ErrMin= 2.14D-05
 ErrMax= 2.14D-05  0.00D+00 EMaxC= 1.00D-01 BMatC= 1.07D-07 BMatP= 6.66D-06
 IDIUse=1 WtCom= 1.00D+00 WtEn= 0.00D+00
 Coeff-Com:  0.128D-03 0.103D-03-0.147D-02-0.339D-01 0.330D-01 0.100D+01
 Coeff:      0.128D-03 0.103D-03-0.147D-02-0.339D-01 0.330D-01 0.100D+01
 Gap=     0.642 Goal=   None    Shift=    0.000
 RMSDP=3.34D-06 MaxDP=6.75D-05 DE=-8.68D-06 OVMax= 9.66D-05

 Initial convergence to 1.0D-05 achieved.  Increase integral accuracy.
 Cycle   7  Pass 1  IDiag  1:
 E= -469.572490501246     Delta-E=       -0.000006264756 Rises=F Damp=F
 DIIS: error= 1.66D-05 at cycle   1 NSaved=   1.
 NSaved= 1 IEnMin= 1 EnMin= -469.572490501246     IErMin= 1 ErrMin= 1.66D-05
 ErrMax= 1.66D-05  0.00D+00 EMaxC= 1.00D-01 BMatC= 2.53D-08 BMatP= 2.53D-08
 IDIUse=1 WtCom= 1.00D+00 WtEn= 0.00D+00
 Coeff-Com:  0.100D+01
 Coeff:      0.100D+01
 Gap=     0.642 Goal=   None    Shift=    0.000
 RMSDP=3.34D-06 MaxDP=6.75D-05 DE=-6.26D-06 OVMax= 2.44D-05

 Cycle   8  Pass 1  IDiag  1:
 RMSU=  2.33D-06    CP:  1.00D+00
 E= -469.572490520887     Delta-E=       -0.000000019641 Rises=F Damp=F
 DIIS: error= 1.75D-06 at cycle   2 NSaved=   2.
 NSaved= 2 IEnMin= 2 EnMin= -469.572490520887     IErMin= 2 ErrMin= 1.75D-06
 ErrMax= 1.75D-06  0.00D+00 EMaxC= 1.00D-01 BMatC= 5.66D-10 BMatP= 2.53D-08
 IDIUse=1 WtCom= 1.00D+00 WtEn= 0.00D+00
 Coeff-Com: -0.166D-01 0.102D+01
 Coeff:     -0.166D-01 0.102D+01
 Gap=     0.642 Goal=   None    Shift=    0.000
 RMSDP=2.59D-07 MaxDP=3.97D-06 DE=-1.96D-08 OVMax= 6.47D-06

 Cycle   9  Pass 1  IDiag  1:
 RMSU=  1.96D-07    CP:  1.00D+00  1.07D+00
 E= -469.572490521878     Delta-E=       -0.000000000991 Rises=F Damp=F
 DIIS: error= 6.89D-07 at cycle   3 NSaved=   3.
 NSaved= 3 IEnMin= 3 EnMin= -469.572490521878     IErMin= 3 ErrMin= 6.89D-07
 ErrMax= 6.89D-07  0.00D+00 EMaxC= 1.00D-01 BMatC= 1.01D-10 BMatP= 5.66D-10
 IDIUse=1 WtCom= 1.00D+00 WtEn= 0.00D+00
 Coeff-Com: -0.226D-01 0.156D+00 0.867D+00
 Coeff:     -0.226D-01 0.156D+00 0.867D+00
 Gap=     0.642 Goal=   None    Shift=    0.000
 RMSDP=7.55D-08 MaxDP=1.43D-06 DE=-9.91D-10 OVMax= 2.51D-06

 Cycle  10  Pass 1  IDiag  1:
 RMSU=  5.92D-08    CP:  1.00D+00  1.08D+00  1.20D+00
 E= -469.572490522056     Delta-E=       -0.000000000178 Rises=F Damp=F
 DIIS: error= 2.53D-07 at cycle   4 NSaved=   4.
 NSaved= 4 IEnMin= 4 EnMin= -469.572490522056     IErMin= 4 ErrMin= 2.53D-07
 ErrMax= 2.53D-07  0.00D+00 EMaxC= 1.00D-01 BMatC= 1.24D-11 BMatP= 1.01D-10
 IDIUse=1 WtCom= 1.00D+00 WtEn= 0.00D+00
 Coeff-Com:  0.542D-02-0.172D+00-0.116D+00 0.128D+01
 Coeff:      0.542D-02-0.172D+00-0.116D+00 0.128D+01
 Gap=     0.642 Goal=   None    Shift=    0.000
 RMSDP=5.22D-08 MaxDP=1.24D-06 DE=-1.78D-10 OVMax= 1.79D-06

 Cycle  11  Pass 1  IDiag  1:
 RMSU=  1.25D-08    CP:  1.00D+00  1.09D+00  1.43D+00  1.35D+00
 E= -469.572490522084     Delta-E=       -0.000000000028 Rises=F Damp=F
 DIIS: error= 4.31D-08 at cycle   5 NSaved=   5.
 NSaved= 5 IEnMin= 5 EnMin= -469.572490522084     IErMin= 5 ErrMin= 4.31D-08
 ErrMax= 4.31D-08  0.00D+00 EMaxC= 1.00D-01 BMatC= 2.66D-13 BMatP= 1.24D-11
 IDIUse=1 WtCom= 1.00D+00 WtEn= 0.00D+00
 Coeff-Com:  0.968D-03-0.149D-01-0.295D-01 0.810D-01 0.962D+00
 Coeff:      0.968D-03-0.149D-01-0.295D-01 0.810D-01 0.962D+00
 Gap=     0.642 Goal=   None    Shift=    0.000
 RMSDP=4.47D-09 MaxDP=7.56D-08 DE=-2.82D-11 OVMax= 1.68D-07

 SCF Done:  E(RHF) =  -469.572490522     A.U. after   11 cycles
            NFock= 11  Conv=0.45D-08     -V/T= 1.9989
 KE= 4.700735308862D+02 PE=-2.436900887307D+03 EE= 8.247748367414D+02
 Leave Link  502 at Thu Aug 29 20:24:38 2019, MaxMem=   280000000 cpu:              26.2 elap:               4.4
 (Enter /home/soft/g16/l601.exe)
 Copying SCF densities to generalized density rwf, IOpCl= 0 IROHF=0.

 **********************************************************************

            Population analysis using the SCF density.

 **********************************************************************

 Alpha  occ. eigenvalues --  -11.20977 -11.20976 -11.20839 -11.20838 -11.20813
 Alpha  occ. eigenvalues --  -11.20800 -11.20779 -11.20757 -11.20735 -11.20713
 Alpha  occ. eigenvalues --  -11.20215 -11.20215  -1.09581  -1.08151  -1.05763
 Alpha  occ. eigenvalues --   -1.02497  -0.98447  -0.93754  -0.88658  -0.83681
 Alpha  occ. eigenvalues --   -0.79907  -0.78943  -0.78365  -0.78257  -0.66145
 Alpha  occ. eigenvalues --   -0.64851  -0.62752  -0.60016  -0.59478  -0.59296
 Alpha  occ. eigenvalues --   -0.56908  -0.56872  -0.56422  -0.53921  -0.53619
 Alpha  occ. eigenvalues --   -0.51335  -0.50916  -0.50613  -0.48438  -0.48212
 Alpha  occ. eigenvalues --   -0.46748  -0.46653  -0.45927  -0.45880  -0.45772
 Alpha  occ. eigenvalues --   -0.45771  -0.45730  -0.45387  -0.41562
 Alpha virt. eigenvalues --    0.22655   0.23296   0.24219   0.25496   0.25794
 Alpha virt. eigenvalues --    0.26599   0.27471   0.27536   0.28435   0.30142
 Alpha virt. eigenvalues --    0.30320   0.31445   0.32920   0.33148   0.33583
 Alpha virt. eigenvalues --    0.33903   0.34341   0.34713   0.35240   0.35376
 Alpha virt. eigenvalues --    0.36095   0.36482   0.36708   0.37234   0.38081
 Alpha virt. eigenvalues --    0.38303   0.38387   0.39001   0.39321   0.41589
 Alpha virt. eigenvalues --    0.42172   0.43733   0.44843   0.45874   0.49420
 Alpha virt. eigenvalues --    0.53301   0.54122   0.66592   0.68988   0.70098
 Alpha virt. eigenvalues --    0.72143   0.75328   0.75486   0.76684   0.76709
 Alpha virt. eigenvalues --    0.77043   0.77465   0.79001   0.79537   0.80615
 Alpha virt. eigenvalues --    0.82683   0.86424   0.86907   0.87135   0.89554
 Alpha virt. eigenvalues --    0.93942   0.94859   0.96191   0.97718   0.98689
 Alpha virt. eigenvalues --    0.99513   1.02347   1.02680   1.02808   1.07200
 Alpha virt. eigenvalues --    1.08190   1.10099   1.11311   1.12418   1.12708
 Alpha virt. eigenvalues --    1.12745   1.14385   1.14916   1.15382   1.17671
 Alpha virt. eigenvalues --    1.18475   1.19251   1.20127   1.20323   1.21007
 Alpha virt. eigenvalues --    1.21159   1.21694   1.22562   1.22565   1.22643
 Alpha virt. eigenvalues --    1.22958   1.23365   1.23447   1.23482   1.23971
 Alpha virt. eigenvalues --    1.24057   1.25978   1.26069   1.27207   1.28122
 Alpha virt. eigenvalues --    1.28314   1.29081   1.34802   1.38357   1.47722
 Alpha virt. eigenvalues --    1.54558   1.56349   1.62607   1.64353   1.67396
 Alpha virt. eigenvalues --    1.71039   1.72611   1.73675   1.75129   1.75364
 Alpha virt. eigenvalues --    1.78811   1.78971   1.84402   1.87395   1.91417
 Alpha virt. eigenvalues --    1.95080   1.96681   2.02901   2.07621   2.10572
 Alpha virt. eigenvalues --    2.14547   2.16027   2.20261   2.20614   2.23473
 Alpha virt. eigenvalues --    2.24420   2.24987   2.25437   2.26148   2.26968
 Alpha virt. eigenvalues --    2.29285   2.29430   2.30630   2.32617   2.34029
 Alpha virt. eigenvalues --    2.34241   2.35330   2.38196   2.38639   2.38765
 Alpha virt. eigenvalues --    2.40528   2.43520   2.47855   2.48277   2.55697
 Alpha virt. eigenvalues --    2.58844   2.60095   2.62899   2.62902   2.67186
 Alpha virt. eigenvalues --    2.68313   2.68458   2.72571   2.73678   2.76619
 Alpha virt. eigenvalues --    2.77546   2.78105   2.81179   2.81321   2.86847
 Alpha virt. eigenvalues --    2.92562   2.93931   2.95570   3.00225   3.00768
 Alpha virt. eigenvalues --    3.03953   3.06506   3.13945   3.18453   3.24114
 Alpha virt. eigenvalues --    3.24466
          Condensed to atoms (all electrons):
               1          2          3          4          5          6
     1  C    5.108141   0.342036  -0.055963   0.003932  -0.000079   0.000001
     2  C    0.342036   5.072304   0.354188  -0.052448   0.003884  -0.000072
     3  C   -0.055963   0.354188   5.088618   0.357316  -0.052401   0.003872
     4  C    0.003932  -0.052448   0.357316   5.079323   0.356939  -0.052414
     5  C   -0.000079   0.003884  -0.052401   0.356939   5.079739   0.357061
     6  C    0.000001  -0.000072   0.003872  -0.052414   0.357061   5.079653
     7  C   -0.000000   0.000001  -0.000072   0.003876  -0.052447   0.357027
     8  C    0.000000  -0.000000   0.000001  -0.000072   0.003876  -0.052446
     9  C   -0.000000   0.000000  -0.000000   0.000001  -0.000072   0.003876
    10  C    0.000000  -0.000000   0.000000  -0.000000   0.000001  -0.000072
    11  C    0.000000   0.000000  -0.000000   0.000000  -0.000000   0.000001
    12  C    0.000000   0.000000   0.000000  -0.000000   0.000000  -0.000000
    13  H    0.395845  -0.033573   0.004062  -0.000081   0.000001  -0.000000
    14  H    0.000000   0.000000  -0.000000   0.000000  -0.000000   0.000000
    15  H    0.000000   0.000000  -0.000000  -0.000000  -0.000000  -0.000000
    16  H    0.391716  -0.041271  -0.003784  -0.000076  -0.000001  -0.000000
    17  H    0.391716  -0.041272  -0.003784  -0.000076  -0.000001  -0.000000
    18  H   -0.041166   0.399221  -0.043242  -0.003201  -0.000064  -0.000001
    19  H   -0.041166   0.399221  -0.043242  -0.003201  -0.000064  -0.000001
    20  H   -0.002874  -0.041795   0.396410  -0.041660  -0.003221  -0.000059
    21  H   -0.002874  -0.041795   0.396410  -0.041660  -0.003221  -0.000059
    22  H   -0.000056  -0.003157  -0.041701   0.397142  -0.041650  -0.003209
    23  H   -0.000056  -0.003157  -0.041701   0.397142  -0.041650  -0.003209
    24  H   -0.000000  -0.000057  -0.003220  -0.041679   0.397122  -0.041653
    25  H   -0.000000  -0.000057  -0.003220  -0.041679   0.397122  -0.041653
    26  H    0.000000  -0.000001  -0.000058  -0.003210  -0.041674   0.397131
    27  H    0.000000  -0.000001  -0.000058  -0.003210  -0.041674   0.397131
    28  H   -0.000000   0.000000  -0.000001  -0.000059  -0.003210  -0.041664
    29  H   -0.000000   0.000000  -0.000001  -0.000059  -0.003210  -0.041664
    30  H   -0.000000  -0.000000   0.000000  -0.000001  -0.000059  -0.003209
    31  H   -0.000000  -0.000000   0.000000  -0.000001  -0.000059  -0.003209
    32  H   -0.000000  -0.000000  -0.000000   0.000000  -0.000001  -0.000059
    33  H   -0.000000  -0.000000  -0.000000   0.000000  -0.000001  -0.000059
    34  H   -0.000000  -0.000000  -0.000000  -0.000000   0.000000  -0.000001
    35  H   -0.000000  -0.000000  -0.000000  -0.000000   0.000000  -0.000001
    36  H    0.000000  -0.000000  -0.000000  -0.000000  -0.000000   0.000000
    37  H    0.000000  -0.000000  -0.000000  -0.000000  -0.000000   0.000000
    38  H    0.000000   0.000000  -0.000000  -0.000000  -0.000000  -0.000000
               7          8          9         10         11         12
     1  C   -0.000000   0.000000  -0.000000   0.000000   0.000000   0.000000
     2  C    0.000001  -0.000000   0.000000  -0.000000   0.000000   0.000000
     3  C   -0.000072   0.000001  -0.000000   0.000000  -0.000000   0.000000
     4  C    0.003876  -0.000072   0.000001  -0.000000   0.000000  -0.000000
     5  C   -0.052447   0.003876  -0.000072   0.000001  -0.000000   0.000000
     6  C    0.357027  -0.052446   0.003876  -0.000072   0.000001  -0.000000
     7  C    5.079652   0.357061  -0.052412   0.003872  -0.000072   0.000001
     8  C    0.357061   5.079737   0.356940  -0.052398   0.003884  -0.000079
     9  C   -0.052412   0.356940   5.079318   0.357317  -0.052443   0.003931
    10  C    0.003872  -0.052398   0.357317   5.088610   0.354189  -0.055955
    11  C   -0.000072   0.003884  -0.052443   0.354189   5.072305   0.342034
    12  C    0.000001  -0.000079   0.003931  -0.055955   0.342034   5.108137
    13  H    0.000000  -0.000000   0.000000  -0.000000   0.000000   0.000000
    14  H   -0.000000   0.000001  -0.000081   0.004061  -0.033567   0.395844
    15  H   -0.000000  -0.000001  -0.000076  -0.003783  -0.041276   0.391714
    16  H   -0.000000  -0.000000  -0.000000  -0.000000   0.000000   0.000000
    17  H   -0.000000  -0.000000  -0.000000  -0.000000   0.000000   0.000000
    18  H    0.000000  -0.000000  -0.000000  -0.000000  -0.000000   0.000000
    19  H    0.000000  -0.000000  -0.000000  -0.000000  -0.000000   0.000000
    20  H   -0.000001   0.000000  -0.000000  -0.000000  -0.000000  -0.000000
    21  H   -0.000001   0.000000  -0.000000  -0.000000  -0.000000  -0.000000
    22  H   -0.000059  -0.000001   0.000000  -0.000000  -0.000000  -0.000000
    23  H   -0.000059  -0.000001   0.000000  -0.000000  -0.000000  -0.000000
    24  H   -0.003209  -0.000059  -0.000001   0.000000  -0.000000  -0.000000
    25  H   -0.003209  -0.000059  -0.000001   0.000000  -0.000000  -0.000000
    26  H   -0.041664  -0.003210  -0.000059  -0.000001   0.000000  -0.000000
    27  H   -0.041664  -0.003210  -0.000059  -0.000001   0.000000  -0.000000
    28  H    0.397131  -0.041674  -0.003210  -0.000058  -0.000001   0.000000
    29  H    0.397131  -0.041674  -0.003210  -0.000058  -0.000001   0.000000
    30  H   -0.041653   0.397121  -0.041679  -0.003220  -0.000057  -0.000000
    31  H   -0.041653   0.397121  -0.041679  -0.003220  -0.000057  -0.000000
    32  H   -0.003209  -0.041651   0.397141  -0.041701  -0.003157  -0.000056
    33  H   -0.003209  -0.041651   0.397141  -0.041701  -0.003157  -0.000056
    34  H   -0.000059  -0.003221  -0.041660   0.396408  -0.041795  -0.002874
    35  H   -0.000059  -0.003221  -0.041661   0.396408  -0.041795  -0.002874
    36  H   -0.000001  -0.000064  -0.003200  -0.043243   0.399220  -0.041166
    37  H   -0.000001  -0.000064  -0.003200  -0.043243   0.399220  -0.041166
    38  H   -0.000000  -0.000001  -0.000076  -0.003783  -0.041275   0.391714
              13         14         15         16         17         18
     1  C    0.395845   0.000000   0.000000   0.391716   0.391716  -0.041166
     2  C   -0.033573   0.000000   0.000000  -0.041271  -0.041272   0.399221
     3  C    0.004062  -0.000000  -0.000000  -0.003784  -0.003784  -0.043242
     4  C   -0.000081   0.000000  -0.000000  -0.000076  -0.000076  -0.003201
     5  C    0.000001  -0.000000  -0.000000  -0.000001  -0.000001  -0.000064
     6  C   -0.000000   0.000000  -0.000000  -0.000000  -0.000000  -0.000001
     7  C    0.000000  -0.000000  -0.000000  -0.000000  -0.000000   0.000000
     8  C   -0.000000   0.000001  -0.000001  -0.000000  -0.000000  -0.000000
     9  C    0.000000  -0.000081  -0.000076  -0.000000  -0.000000  -0.000000
    10  C   -0.000000   0.004061  -0.003783  -0.000000  -0.000000  -0.000000
    11  C    0.000000  -0.033567  -0.041276   0.000000   0.000000  -0.000000
    12  C    0.000000   0.395844   0.391714   0.000000   0.000000   0.000000
    13  H    0.522305   0.000000   0.000000  -0.027165  -0.027165  -0.002333
    14  H    0.000000   0.522289  -0.027162   0.000000   0.000000   0.000000
    15  H    0.000000  -0.027162   0.551178   0.000000   0.000000   0.000000
    16  H   -0.027165   0.000000   0.000000   0.551169  -0.032503  -0.003350
    17  H   -0.027165   0.000000   0.000000  -0.032503   0.551169   0.004559
    18  H   -0.002333   0.000000   0.000000  -0.003350   0.004559   0.563195
    19  H   -0.002333   0.000000   0.000000   0.004559  -0.003350  -0.033745
    20  H   -0.000057  -0.000000   0.000000   0.000132   0.002803   0.004598
    21  H   -0.000057  -0.000000  -0.000000   0.002803   0.000132  -0.003097
    22  H    0.000001   0.000000   0.000000   0.000014  -0.000001   0.002366
    23  H    0.000001   0.000000   0.000000  -0.000001   0.000014   0.000231
    24  H    0.000000  -0.000000   0.000000  -0.000002   0.000000   0.000017
    25  H    0.000000  -0.000000  -0.000000   0.000000  -0.000002  -0.000003
    26  H    0.000000  -0.000000  -0.000000   0.000000  -0.000000  -0.000002
    27  H    0.000000  -0.000000  -0.000000  -0.000000   0.000000   0.000001
    28  H   -0.000000   0.000000   0.000000  -0.000000  -0.000000  -0.000000
    29  H   -0.000000   0.000000  -0.000000  -0.000000  -0.000000   0.000000
    30  H   -0.000000   0.000000   0.000000  -0.000000   0.000000  -0.000000
    31  H   -0.000000   0.000000  -0.000002   0.000000  -0.000000   0.000000
    32  H    0.000000   0.000001  -0.000001   0.000000   0.000000  -0.000000
    33  H    0.000000   0.000001   0.000014   0.000000   0.000000   0.000000
    34  H   -0.000000  -0.000057   0.000132   0.000000  -0.000000   0.000000
    35  H   -0.000000  -0.000057   0.002804  -0.000000   0.000000   0.000000
    36  H    0.000000  -0.002332  -0.003350   0.000000   0.000000  -0.000000
    37  H    0.000000  -0.002332   0.004559   0.000000   0.000000   0.000000
    38  H    0.000000  -0.027163  -0.032506   0.000000   0.000000   0.000000
              19         20         21         22         23         24
     1  C   -0.041166  -0.002874  -0.002874  -0.000056  -0.000056  -0.000000
     2  C    0.399221  -0.041795  -0.041795  -0.003157  -0.003157  -0.000057
     3  C   -0.043242   0.396410   0.396410  -0.041701  -0.041701  -0.003220
     4  C   -0.003201  -0.041660  -0.041660   0.397142   0.397142  -0.041679
     5  C   -0.000064  -0.003221  -0.003221  -0.041650  -0.041650   0.397122
     6  C   -0.000001  -0.000059  -0.000059  -0.003209  -0.003209  -0.041653
     7  C    0.000000  -0.000001  -0.000001  -0.000059  -0.000059  -0.003209
     8  C   -0.000000   0.000000   0.000000  -0.000001  -0.000001  -0.000059
     9  C   -0.000000  -0.000000  -0.000000   0.000000   0.000000  -0.000001
    10  C   -0.000000  -0.000000  -0.000000  -0.000000  -0.000000   0.000000
    11  C   -0.000000  -0.000000  -0.000000  -0.000000  -0.000000  -0.000000
    12  C    0.000000  -0.000000  -0.000000  -0.000000  -0.000000  -0.000000
    13  H   -0.002333  -0.000057  -0.000057   0.000001   0.000001   0.000000
    14  H    0.000000  -0.000000  -0.000000   0.000000   0.000000  -0.000000
    15  H    0.000000   0.000000  -0.000000   0.000000   0.000000   0.000000
    16  H    0.004559   0.000132   0.002803   0.000014  -0.000001  -0.000002
    17  H   -0.003350   0.002803   0.000132  -0.000001   0.000014   0.000000
    18  H   -0.033745   0.004598  -0.003097   0.002366   0.000231   0.000017
    19  H    0.563195  -0.003097   0.004598   0.000231   0.002366  -0.000003
    20  H   -0.003097   0.562980  -0.033458   0.004509  -0.002915   0.000262
    21  H    0.004598  -0.033458   0.562980  -0.002915   0.004509   0.002271
    22  H    0.000231   0.004509  -0.002915   0.561608  -0.033136  -0.002888
    23  H    0.002366  -0.002915   0.004509  -0.033136   0.561609   0.004497
    24  H   -0.000003   0.000262   0.002271  -0.002888   0.004497   0.561948
    25  H    0.000017   0.002271   0.000262   0.004497  -0.002888  -0.033155
    26  H    0.000001  -0.000004   0.000017   0.002264   0.000264  -0.002884
    27  H   -0.000002   0.000017  -0.000004   0.000264   0.002264   0.004498
    28  H    0.000000  -0.000002   0.000001  -0.000004   0.000017   0.000266
    29  H   -0.000000   0.000001  -0.000002   0.000017  -0.000004   0.002263
    30  H    0.000000  -0.000000   0.000000  -0.000002   0.000001   0.000017
    31  H   -0.000000   0.000000  -0.000000   0.000001  -0.000002  -0.000004
    32  H    0.000000   0.000000  -0.000000   0.000000  -0.000000  -0.000002
    33  H   -0.000000  -0.000000   0.000000  -0.000000   0.000000   0.000001
    34  H    0.000000   0.000000  -0.000000  -0.000000   0.000000   0.000000
    35  H    0.000000  -0.000000   0.000000   0.000000  -0.000000  -0.000000
    36  H    0.000000   0.000000   0.000000   0.000000  -0.000000   0.000000
    37  H   -0.000000   0.000000   0.000000  -0.000000   0.000000  -0.000000
    38  H    0.000000  -0.000000   0.000000   0.000000   0.000000  -0.000000
              25         26         27         28         29         30
     1  C   -0.000000   0.000000   0.000000  -0.000000  -0.000000  -0.000000
     2  C   -0.000057  -0.000001  -0.000001   0.000000   0.000000  -0.000000
     3  C   -0.003220  -0.000058  -0.000058  -0.000001  -0.000001   0.000000
     4  C   -0.041679  -0.003210  -0.003210  -0.000059  -0.000059  -0.000001
     5  C    0.397122  -0.041674  -0.041674  -0.003210  -0.003210  -0.000059
     6  C   -0.041653   0.397131   0.397131  -0.041664  -0.041664  -0.003209
     7  C   -0.003209  -0.041664  -0.041664   0.397131   0.397131  -0.041653
     8  C   -0.000059  -0.003210  -0.003210  -0.041674  -0.041674   0.397121
     9  C   -0.000001  -0.000059  -0.000059  -0.003210  -0.003210  -0.041679
    10  C    0.000000  -0.000001  -0.000001  -0.000058  -0.000058  -0.003220
    11  C   -0.000000   0.000000   0.000000  -0.000001  -0.000001  -0.000057
    12  C   -0.000000  -0.000000  -0.000000   0.000000   0.000000  -0.000000
    13  H    0.000000   0.000000   0.000000  -0.000000  -0.000000  -0.000000
    14  H   -0.000000  -0.000000  -0.000000   0.000000   0.000000   0.000000
    15  H   -0.000000  -0.000000  -0.000000   0.000000  -0.000000   0.000000
    16  H    0.000000   0.000000  -0.000000  -0.000000  -0.000000  -0.000000
    17  H   -0.000002  -0.000000   0.000000  -0.000000  -0.000000   0.000000
    18  H   -0.000003  -0.000002   0.000001  -0.000000   0.000000  -0.000000
    19  H    0.000017   0.000001  -0.000002   0.000000  -0.000000   0.000000
    20  H    0.002271  -0.000004   0.000017  -0.000002   0.000001  -0.000000
    21  H    0.000262   0.000017  -0.000004   0.000001  -0.000002   0.000000
    22  H    0.004497   0.002264   0.000264  -0.000004   0.000017  -0.000002
    23  H   -0.002888   0.000264   0.002264   0.000017  -0.000004   0.000001
    24  H   -0.033155  -0.002884   0.004498   0.000266   0.002263   0.000017
    25  H    0.561948   0.004498  -0.002884   0.002263   0.000266  -0.000004
    26  H    0.004498   0.561951  -0.033146   0.004497  -0.002883   0.002263
    27  H   -0.002884  -0.033146   0.561952  -0.002883   0.004497   0.000266
    28  H    0.002263   0.004497  -0.002883   0.561952  -0.033146   0.004498
    29  H    0.000266  -0.002883   0.004497  -0.033146   0.561952  -0.002884
    30  H   -0.000004   0.002263   0.000266   0.004498  -0.002884   0.561950
    31  H    0.000017   0.000266   0.002263  -0.002884   0.004498  -0.033155
    32  H    0.000001   0.000017  -0.000004   0.000264   0.002265  -0.002888
    33  H   -0.000002  -0.000004   0.000017   0.002265   0.000264   0.004497
    34  H   -0.000000  -0.000002   0.000001  -0.000004   0.000017   0.002271
    35  H    0.000000   0.000001  -0.000002   0.000017  -0.000004   0.000262
    36  H   -0.000000  -0.000000   0.000000  -0.000002   0.000001  -0.000003
    37  H    0.000000   0.000000  -0.000000   0.000001  -0.000002   0.000017
    38  H    0.000000  -0.000000  -0.000000  -0.000000   0.000000  -0.000002
              31         32         33         34         35         36
     1  C   -0.000000  -0.000000  -0.000000  -0.000000  -0.000000   0.000000
     2  C   -0.000000  -0.000000  -0.000000  -0.000000  -0.000000  -0.000000
     3  C    0.000000  -0.000000  -0.000000  -0.000000  -0.000000  -0.000000
     4  C   -0.000001   0.000000   0.000000  -0.000000  -0.000000  -0.000000
     5  C   -0.000059  -0.000001  -0.000001   0.000000   0.000000  -0.000000
     6  C   -0.003209  -0.000059  -0.000059  -0.000001  -0.000001   0.000000
     7  C   -0.041653  -0.003209  -0.003209  -0.000059  -0.000059  -0.000001
     8  C    0.397121  -0.041651  -0.041651  -0.003221  -0.003221  -0.000064
     9  C   -0.041679   0.397141   0.397141  -0.041660  -0.041661  -0.003200
    10  C   -0.003220  -0.041701  -0.041701   0.396408   0.396408  -0.043243
    11  C   -0.000057  -0.003157  -0.003157  -0.041795  -0.041795   0.399220
    12  C   -0.000000  -0.000056  -0.000056  -0.002874  -0.002874  -0.041166
    13  H   -0.000000   0.000000   0.000000  -0.000000  -0.000000   0.000000
    14  H    0.000000   0.000001   0.000001  -0.000057  -0.000057  -0.002332
    15  H   -0.000002  -0.000001   0.000014   0.000132   0.002804  -0.003350
    16  H    0.000000   0.000000   0.000000   0.000000  -0.000000   0.000000
    17  H   -0.000000   0.000000   0.000000  -0.000000   0.000000   0.000000
    18  H    0.000000  -0.000000   0.000000   0.000000   0.000000  -0.000000
    19  H   -0.000000   0.000000  -0.000000   0.000000   0.000000   0.000000
    20  H    0.000000   0.000000  -0.000000   0.000000  -0.000000   0.000000
    21  H   -0.000000  -0.000000   0.000000  -0.000000   0.000000   0.000000
    22  H    0.000001   0.000000  -0.000000  -0.000000   0.000000   0.000000
    23  H   -0.000002  -0.000000   0.000000   0.000000  -0.000000  -0.000000
    24  H   -0.000004  -0.000002   0.000001   0.000000  -0.000000   0.000000
    25  H    0.000017   0.000001  -0.000002  -0.000000   0.000000  -0.000000
    26  H    0.000266   0.000017  -0.000004  -0.000002   0.000001  -0.000000
    27  H    0.002263  -0.000004   0.000017   0.000001  -0.000002   0.000000
    28  H   -0.002884   0.000264   0.002265  -0.000004   0.000017  -0.000002
    29  H    0.004498   0.002265   0.000264   0.000017  -0.000004   0.000001
    30  H   -0.033155  -0.002888   0.004497   0.002271   0.000262  -0.000003
    31  H    0.561949   0.004497  -0.002888   0.000262   0.002271   0.000017
    32  H    0.004497   0.561611  -0.033136  -0.002915   0.004510   0.000231
    33  H   -0.002888  -0.033136   0.561611   0.004510  -0.002916   0.002366
    34  H    0.000262  -0.002915   0.004510   0.562984  -0.033459   0.004598
    35  H    0.002271   0.004510  -0.002916  -0.033459   0.562985  -0.003098
    36  H    0.000017   0.000231   0.002366   0.004598  -0.003098   0.563201
    37  H   -0.000003   0.002366   0.000231  -0.003098   0.004598  -0.033747
    38  H    0.000000   0.000014  -0.000001   0.002804   0.000132   0.004559
              37         38
     1  C    0.000000   0.000000
     2  C   -0.000000   0.000000
     3  C   -0.000000  -0.000000
     4  C   -0.000000  -0.000000
     5  C   -0.000000  -0.000000
     6  C    0.000000  -0.000000
     7  C   -0.000001  -0.000000
     8  C   -0.000064  -0.000001
     9  C   -0.003200  -0.000076
    10  C   -0.043243  -0.003783
    11  C    0.399220  -0.041275
    12  C   -0.041166   0.391714
    13  H    0.000000   0.000000
    14  H   -0.002332  -0.027163
    15  H    0.004559  -0.032506
    16  H    0.000000   0.000000
    17  H    0.000000   0.000000
    18  H    0.000000   0.000000
    19  H   -0.000000   0.000000
    20  H    0.000000  -0.000000
    21  H    0.000000   0.000000
    22  H   -0.000000   0.000000
    23  H    0.000000   0.000000
    24  H   -0.000000  -0.000000
    25  H    0.000000   0.000000
    26  H    0.000000  -0.000000
    27  H   -0.000000  -0.000000
    28  H    0.000001  -0.000000
    29  H   -0.000002   0.000000
    30  H    0.000017  -0.000002
    31  H   -0.000003   0.000000
    32  H    0.002366   0.000014
    33  H    0.000231  -0.000001
    34  H   -0.003098   0.002804
    35  H    0.004598   0.000132
    36  H   -0.033747   0.004559
    37  H    0.563202  -0.003350
    38  H   -0.003350   0.551178
 Mulliken charges:
               1
     1  C   -0.489151
     2  C   -0.312200
     3  C   -0.308430
     4  C   -0.310889
     5  C   -0.310988
     6  C   -0.311041
     7  C   -0.311040
     8  C   -0.310988
     9  C   -0.310888
    10  C   -0.308429
    11  C   -0.312198
    12  C   -0.489150
    13  H    0.170548
    14  H    0.170555
    15  H    0.157755
    16  H    0.157758
    17  H    0.157758
    18  H    0.156015
    19  H    0.156015
    20  H    0.155159
    21  H    0.155159
    22  H    0.155862
    23  H    0.155862
    24  H    0.155654
    25  H    0.155654
    26  H    0.155628
    27  H    0.155628
    28  H    0.155628
    29  H    0.155628
    30  H    0.155654
    31  H    0.155654
    32  H    0.155861
    33  H    0.155862
    34  H    0.155158
    35  H    0.155157
    36  H    0.156013
    37  H    0.156012
    38  H    0.157755
 Sum of Mulliken charges =  -0.00000
 Mulliken charges with hydrogens summed into heavy atoms:
               1
     1  C   -0.003087
     2  C   -0.000171
     3  C    0.001888
     4  C    0.000835
     5  C    0.000320
     6  C    0.000216
     7  C    0.000216
     8  C    0.000319
     9  C    0.000835
    10  C    0.001886
    11  C   -0.000173
    12  C   -0.003085
 Electronic spatial extent (au):  <R**2>=          28096.9752
 Charge=             -0.0000 electrons
 Dipole moment (field-independent basis, Debye):
    X=              0.0001    Y=             -0.0000    Z=             -0.0000  Tot=              0.0001
 Quadrupole moment (field-independent basis, Debye-Ang):
   XX=            -85.1308   YY=            -83.4641   ZZ=            -80.8842
   XY=             -0.8978   XZ=             -0.0003   YZ=             -0.0009
 Traceless Quadrupole moment (field-independent basis, Debye-Ang):
   XX=             -1.9711   YY=             -0.3044   ZZ=              2.2755
   XY=             -0.8978   XZ=             -0.0003   YZ=             -0.0009
 Octapole moment (field-independent basis, Debye-Ang**2):
  XXX=          -1958.4944  YYY=              4.6775  ZZZ=              0.0017  XYY=           -640.0120
  XXY=            -12.1789  XXZ=             -0.0043  XZZ=           -620.2610  YZZ=              1.5110
  YYZ=              0.0006  XYZ=             -0.0067
 Hexadecapole moment (field-independent basis, Debye-Ang**3):
 XXXX=         -40393.4575 YYYY=           -290.1843 ZZZZ=           -165.0477 XXXY=           -293.3236
 XXXZ=             -0.1141 YYYX=            -37.2499 YYYZ=             -0.0284 ZZZX=             -0.0199
 ZZZY=             -0.0139 XXYY=          -6663.8487 XXZZ=          -6457.4277 YYZZ=            -68.6935
 XXYZ=             -0.0703 YYXZ=             -0.0100 ZZXY=             -9.1970
 N-N= 6.724800291569D+02 E-N=-2.436900884651D+03  KE= 4.700735308862D+02
 No NMR shielding tensors so no spin-rotation constants.
 Leave Link  601 at Thu Aug 29 20:24:39 2019, MaxMem=   280000000 cpu:               0.5 elap:               0.1
 (Enter /home/soft/g16/l9999.exe)
 1\1\GINC-NODE18\SP\RHF\6-31G(d)\C12H26\ROOT\29-Aug-2019\0\\#p hf/6-31g
 (d) 5d 7f nosymm\\Atom number=38\\0,1\C,0,14.698996,0.384549,0.000153\
 C,0,13.418878,-0.453176,-0.000137\C,0,12.142861,0.39079,0.000143\C,0,1
 0.862721,-0.446912,-0.000146\C,0,9.586692,0.39704,0.000135\C,0,8.30654
 6,-0.440654,-0.000153\C,0,7.030512,0.403292,0.000129\C,0,5.750363,-0.4
 34398,-0.000156\C,0,4.474329,0.409546,0.000126\C,0,3.19418,-0.428143,-
 0.000156\C,0,1.918145,0.4158,0.000124\C,0,0.638,-0.421895,-0.000149\H,
 0,15.59144356,-0.20573679,-0.00004283\H,0,-0.25446993,0.16835697,0.000
 03215\H,0,0.636403,-1.075973,0.870268\H,0,14.700641,1.03862,-0.870254\
 H,0,14.700632,1.03803,0.871004\H,0,13.417295,-1.10667,-0.870988\H,0,13
 .417287,-1.10726,0.87027\H,0,12.144465,1.044289,0.87099\H,0,12.144472,
 1.044878,-0.870262\H,0,10.861129,-1.100414,-0.870992\H,0,10.861122,-1.
 101003,0.870258\H,0,9.588298,1.051132,-0.870269\H,0,9.588292,1.050544,
 0.87098\H,0,8.304951,-1.09416,-0.870998\H,0,8.304945,-1.094748,0.87025
 \H,0,7.032112,1.056799,0.870973\H,0,7.032116,1.057386,-0.870274\H,0,5.
 748766,-1.087906,-0.871001\H,0,5.748762,-1.088493,0.870246\H,0,4.47593
 ,1.06364,-0.870278\H,0,4.475929,1.063056,0.870968\H,0,3.192581,-1.0816
 54,-0.870997\H,0,3.192579,-1.082235,0.87025\H,0,1.919744,1.069316,0.87
 0962\H,0,1.919742,1.069887,-0.870286\H,0,0.63641,-1.075422,-0.870979\\
 Version=ES64L-G16RevA.03\HF=-469.5724905\RMSD=4.468e-09\Dipole=0.00001
 99,-0.0000007,-0.0000001\Quadrupole=-1.4654604,-0.2263109,1.6917712,-0
 .6675218,-0.0002244,-0.0006423\PG=C01 [X(C12H26)]\\@


 The hours that make us happy make us wise.
                         -- John Masefield
 Job cpu time:       0 days  0 hours  0 minutes 37.6 seconds.
 Elapsed time:       0 days  0 hours  0 minutes  6.5 seconds.
 File lengths (MBytes):  RWF=     88 Int=      0 D2E=      0 Chk=      8 Scr=      8
 Normal termination of Gaussian 16 at Thu Aug 29 20:24:39 2019.
