 Entering Gaussian System, Link 0=g16
 Input=32ane_1.gjf
 Output=32ane_1.log
 Initial command:
 /home/soft/g16/l1.exe "/tmp/liwei01/gaussian/liaokang/Gau-199612.inp" -scrdir="/tmp/liwei01/gaussian/liaokang/"
 Entering Link 1 = /home/soft/g16/l1.exe PID=    199617.
  
 Copyright (c) 1988,1990,1992,1993,1995,1998,2003,2009,2016,
            Gaussian, Inc.  All Rights Reserved.
  
 This is part of the Gaussian(R) 16 program.  It is based on
 the Gaussian(R) 09 system (copyright 2009, Gaussian, Inc.),
 the Gaussian(R) 03 system (copyright 2003, Gaussian, Inc.),
 the Gaussian(R) 98 system (copyright 1998, Gaussian, Inc.),
 the Gaussian(R) 94 system (copyright 1995, Gaussian, Inc.),
 the Gaussian 92(TM) system (copyright 1992, Gaussian, Inc.),
 the Gaussian 90(TM) system (copyright 1990, Gaussian, Inc.),
 the Gaussian 88(TM) system (copyright 1988, Gaussian, Inc.),
 the Gaussian 86(TM) system (copyright 1986, Carnegie Mellon
 University), and the Gaussian 82(TM) system (copyright 1983,
 Carnegie Mellon University). Gaussian is a federally registered
 trademark of Gaussian, Inc.
  
 This software contains proprietary and confidential information,
 including trade secrets, belonging to Gaussian, Inc.
  
 This software is provided under written license and may be
 used, copied, transmitted, or stored only in accord with that
 written license.
  
 The following legend is applicable only to US Government
 contracts under FAR:
  
                    RESTRICTED RIGHTS LEGEND
  
 Use, reproduction and disclosure by the US Government is
 subject to restrictions as set forth in subparagraphs (a)
 and (c) of the Commercial Computer Software - Restricted
 Rights clause in FAR 52.227-19.
  
 Gaussian, Inc.
 340 Quinnipiac St., Bldg. 40, Wallingford CT 06492
  
  
 ---------------------------------------------------------------
 Warning -- This program may not be used in any manner that
 competes with the business of Gaussian, Inc. or will provide
 assistance to any competitor of Gaussian, Inc.  The licensee
 of this program is prohibited from giving any competitor of
 Gaussian, Inc. access to this program.  By using this program,
 the user acknowledges that Gaussian, Inc. is engaged in the
 business of creating and licensing software in the field of
 computational chemistry and represents and warrants to the
 licensee that it is not a competitor of Gaussian, Inc. and that
 it will not use this program in any manner prohibited above.
 ---------------------------------------------------------------
  

 Cite this work as:
 Gaussian 16, Revision A.03,
 M. J. Frisch, G. W. Trucks, H. B. Schlegel, G. E. Scuseria, 
 M. A. Robb, J. R. Cheeseman, G. Scalmani, V. Barone, 
 G. A. Petersson, H. Nakatsuji, X. Li, M. Caricato, A. V. Marenich, 
 J. Bloino, B. G. Janesko, R. Gomperts, B. Mennucci, H. P. Hratchian, 
 J. V. Ortiz, A. F. Izmaylov, J. L. Sonnenberg, D. Williams-Young, 
 F. Ding, F. Lipparini, F. Egidi, J. Goings, B. Peng, A. Petrone, 
 T. Henderson, D. Ranasinghe, V. G. Zakrzewski, J. Gao, N. Rega, 
 G. Zheng, W. Liang, M. Hada, M. Ehara, K. Toyota, R. Fukuda, 
 J. Hasegawa, M. Ishida, T. Nakajima, Y. Honda, O. Kitao, H. Nakai, 
 T. Vreven, K. Throssell, J. A. Montgomery, Jr., J. E. Peralta, 
 F. Ogliaro, M. J. Bearpark, J. J. Heyd, E. N. Brothers, K. N. Kudin, 
 V. N. Staroverov, T. A. Keith, R. Kobayashi, J. Normand, 
 K. Raghavachari, A. P. Rendell, J. C. Burant, S. S. Iyengar, 
 J. Tomasi, M. Cossi, J. M. Millam, M. Klene, C. Adamo, R. Cammi, 
 J. W. Ochterski, R. L. Martin, K. Morokuma, O. Farkas, 
 J. B. Foresman, and D. J. Fox, Gaussian, Inc., Wallingford CT, 2016.
 
 ******************************************
 Gaussian 16:  ES64L-G16RevA.03 25-Dec-2016
                29-Aug-2019 
 ******************************************
 %chk=32ane_1.chk
 %nproc=6
 Will use up to    6 processors via shared memory.
 ---------------------------
 #p hf/6-31g(d) 5d 7f nosymm
 ---------------------------
 1/38=1,172=1/1;
 2/12=2,15=1,17=6,18=5,40=1/2;
 3/5=1,6=6,7=1,8=11,11=9,25=1,30=1/1,2,3;
 4//1;
 5/5=2,38=5/2;
 6/7=2,8=2,9=2,10=2,28=1/1;
 99/5=1,9=1/99;
 Leave Link    1 at Thu Aug 29 20:24:32 2019, MaxMem=           0 cpu:               0.6 elap:               0.1
 (Enter /home/soft/g16/l101.exe)
 --------------
 Atom number=38
 --------------
 Symbolic Z-matrix:
 Charge =  0 Multiplicity = 1
 c                     19.80587   0.37882   0.00018 
 c                     18.5316  -0.46502  -0.00012 
 c                     17.25509   0.37808   0.00016 
 c                     15.97501  -0.45943  -0.00013 
 c                     14.699    0.38455   0.00015 
 c                     13.41888  -0.45318  -0.00014 
 c                     12.14286   0.39079   0.00014 
 c                     10.86272  -0.44691  -0.00015 
 c                     9.58669   0.39704   0.00014 
 c                     8.30655  -0.44065  -0.00015 
 c                     7.03051   0.40329   0.00013 
 c                     5.75036  -0.4344   -0.00016 
 h                     4.8579    0.15586   0.00004 
 h                     20.69309  -0.24699  -0.00003 
 h                     19.85249   1.01879  -0.87653 
 h                     19.85248   1.0182    0.87732 
 h                     18.53164  -1.11765  -0.87065 
 h                     18.53163  -1.11824   0.86998 
 h                     17.25773   1.03172   0.87105 
 h                     17.25774   1.03231  -0.87028 
 h                     15.97348  -1.11292  -0.871 
 h                     15.97347  -1.11351   0.87031 
 h                     14.70064   1.03862  -0.87025 
 h                     14.70063   1.03803   0.871 
 h                     13.41729  -1.10667  -0.87099 
 h                     13.41729  -1.10726   0.87027 
 h                     12.14447   1.04429   0.87099 
 h                     12.14447   1.04488  -0.87026 
 h                     10.86113  -1.10041  -0.87099 
 h                     10.86112  -1.101     0.87026 
 h                     9.5883    1.05113  -0.87027 
 h                     9.58829   1.05054   0.87098 
 h                     8.30495  -1.09416  -0.871 
 h                     8.30495  -1.09475   0.87025 
 h                     7.03211   1.0568    0.87097 
 h                     7.03212   1.05739  -0.87027 
 h                     5.74877  -1.08791  -0.871 
 h                     5.74876  -1.08849   0.87025 
 
 ITRead=  0  0  0  0  0  0  0  0  0  0  0  0  0  0  0  0  0  0  0  0
 ITRead=  0  0  0  0  0  0  0  0  0  0  0  0  0  0  0  0  0  0
 MicOpt= -1 -1 -1 -1 -1 -1 -1 -1 -1 -1 -1 -1 -1 -1 -1 -1 -1 -1 -1 -1
 MicOpt= -1 -1 -1 -1 -1 -1 -1 -1 -1 -1 -1 -1 -1 -1 -1 -1 -1 -1
 NAtoms=     38 NQM=       38 NQMF=       0 NMMI=      0 NMMIF=      0
                NMic=       0 NMicF=      0.
                    Isotopes and Nuclear Properties:
 (Nuclear quadrupole moments (NQMom) in fm**2, nuclear magnetic moments (NMagM)
  in nuclear magnetons)

  Atom         1           2           3           4           5           6           7           8           9          10
 IAtWgt=          12          12          12          12          12          12          12          12          12          12
 AtmWgt=  12.0000000  12.0000000  12.0000000  12.0000000  12.0000000  12.0000000  12.0000000  12.0000000  12.0000000  12.0000000
 NucSpn=           0           0           0           0           0           0           0           0           0           0
 AtZEff=  -0.0000000  -0.0000000  -0.0000000  -0.0000000  -0.0000000  -0.0000000  -0.0000000  -0.0000000  -0.0000000  -0.0000000
 NQMom=    0.0000000   0.0000000   0.0000000   0.0000000   0.0000000   0.0000000   0.0000000   0.0000000   0.0000000   0.0000000
 NMagM=    0.0000000   0.0000000   0.0000000   0.0000000   0.0000000   0.0000000   0.0000000   0.0000000   0.0000000   0.0000000
 AtZNuc=   6.0000000   6.0000000   6.0000000   6.0000000   6.0000000   6.0000000   6.0000000   6.0000000   6.0000000   6.0000000

  Atom        11          12          13          14          15          16          17          18          19          20
 IAtWgt=          12          12           1           1           1           1           1           1           1           1
 AtmWgt=  12.0000000  12.0000000   1.0078250   1.0078250   1.0078250   1.0078250   1.0078250   1.0078250   1.0078250   1.0078250
 NucSpn=           0           0           1           1           1           1           1           1           1           1
 AtZEff=  -0.0000000  -0.0000000  -0.0000000  -0.0000000  -0.0000000  -0.0000000  -0.0000000  -0.0000000  -0.0000000  -0.0000000
 NQMom=    0.0000000   0.0000000   0.0000000   0.0000000   0.0000000   0.0000000   0.0000000   0.0000000   0.0000000   0.0000000
 NMagM=    0.0000000   0.0000000   2.7928460   2.7928460   2.7928460   2.7928460   2.7928460   2.7928460   2.7928460   2.7928460
 AtZNuc=   6.0000000   6.0000000   1.0000000   1.0000000   1.0000000   1.0000000   1.0000000   1.0000000   1.0000000   1.0000000

  Atom        21          22          23          24          25          26          27          28          29          30
 IAtWgt=           1           1           1           1           1           1           1           1           1           1
 AtmWgt=   1.0078250   1.0078250   1.0078250   1.0078250   1.0078250   1.0078250   1.0078250   1.0078250   1.0078250   1.0078250
 NucSpn=           1           1           1           1           1           1           1           1           1           1
 AtZEff=  -0.0000000  -0.0000000  -0.0000000  -0.0000000  -0.0000000  -0.0000000  -0.0000000  -0.0000000  -0.0000000  -0.0000000
 NQMom=    0.0000000   0.0000000   0.0000000   0.0000000   0.0000000   0.0000000   0.0000000   0.0000000   0.0000000   0.0000000
 NMagM=    2.7928460   2.7928460   2.7928460   2.7928460   2.7928460   2.7928460   2.7928460   2.7928460   2.7928460   2.7928460
 AtZNuc=   1.0000000   1.0000000   1.0000000   1.0000000   1.0000000   1.0000000   1.0000000   1.0000000   1.0000000   1.0000000

  Atom        31          32          33          34          35          36          37          38
 IAtWgt=           1           1           1           1           1           1           1           1
 AtmWgt=   1.0078250   1.0078250   1.0078250   1.0078250   1.0078250   1.0078250   1.0078250   1.0078250
 NucSpn=           1           1           1           1           1           1           1           1
 AtZEff=  -0.0000000  -0.0000000  -0.0000000  -0.0000000  -0.0000000  -0.0000000  -0.0000000  -0.0000000
 NQMom=    0.0000000   0.0000000   0.0000000   0.0000000   0.0000000   0.0000000   0.0000000   0.0000000
 NMagM=    2.7928460   2.7928460   2.7928460   2.7928460   2.7928460   2.7928460   2.7928460   2.7928460
 AtZNuc=   1.0000000   1.0000000   1.0000000   1.0000000   1.0000000   1.0000000   1.0000000   1.0000000
 Leave Link  101 at Thu Aug 29 20:24:32 2019, MaxMem=   280000000 cpu:               0.8 elap:               0.2
 (Enter /home/soft/g16/l202.exe)
                          Input orientation:                          
 ---------------------------------------------------------------------
 Center     Atomic      Atomic             Coordinates (Angstroms)
 Number     Number       Type             X           Y           Z
 ---------------------------------------------------------------------
      1          6           0       19.805866    0.378823    0.000178
      2          6           0       18.531600   -0.465018   -0.000115
      3          6           0       17.255090    0.378081    0.000164
      4          6           0       15.975006   -0.459434   -0.000127
      5          6           0       14.698996    0.384549    0.000153
      6          6           0       13.418878   -0.453176   -0.000137
      7          6           0       12.142861    0.390790    0.000143
      8          6           0       10.862721   -0.446912   -0.000146
      9          6           0        9.586692    0.397040    0.000135
     10          6           0        8.306546   -0.440654   -0.000153
     11          6           0        7.030512    0.403292    0.000129
     12          6           0        5.750363   -0.434398   -0.000156
     13          1           0        4.857898    0.155861    0.000041
     14          1           0       20.693090   -0.246986   -0.000030
     15          1           0       19.852490    1.018793   -0.876528
     16          1           0       19.852481    1.018197    0.877318
     17          1           0       18.531643   -1.117652   -0.870651
     18          1           0       18.531634   -1.118243    0.869977
     19          1           0       17.257726    1.031717    0.871051
     20          1           0       17.257735    1.032308   -0.870279
     21          1           0       15.973479   -1.112916   -0.871004
     22          1           0       15.973470   -1.113507    0.870307
     23          1           0       14.700641    1.038620   -0.870254
     24          1           0       14.700632    1.038030    0.871004
     25          1           0       13.417295   -1.106670   -0.870988
     26          1           0       13.417287   -1.107260    0.870270
     27          1           0       12.144465    1.044289    0.870990
     28          1           0       12.144472    1.044878   -0.870262
     29          1           0       10.861129   -1.100414   -0.870992
     30          1           0       10.861122   -1.101003    0.870258
     31          1           0        9.588298    1.051132   -0.870269
     32          1           0        9.588292    1.050544    0.870980
     33          1           0        8.304951   -1.094160   -0.870998
     34          1           0        8.304945   -1.094748    0.870250
     35          1           0        7.032112    1.056799    0.870973
     36          1           0        7.032116    1.057386   -0.870274
     37          1           0        5.748766   -1.087906   -0.871001
     38          1           0        5.748762   -1.088493    0.870246
 ---------------------------------------------------------------------
                    Distance matrix (angstroms):
                    1          2          3          4          5
     1  C    0.000000
     2  C    1.528339   0.000000
     3  C    2.550776   1.529802   0.000000
     4  C    3.921500   2.556600   1.529721   0.000000
     5  C    5.106873   3.925636   2.556102   1.529872   0.000000
     6  C    6.440950   5.112736   3.925240   2.556136   1.529864
     7  C    7.663014   6.445804   5.112245   3.925330   2.556143
     8  C    8.981185   7.668900   6.445386   5.112300   3.925345
     9  C   10.219190   8.986352   7.668421   6.445472   5.112319
    10  C   11.528482  10.225083   8.985920   7.668483   6.445493
    11  C   12.775377  11.533819  10.224609   8.986004   7.668507
    12  C   14.079009  12.781274  11.533380  10.224674   8.986028
    13  H   14.949631  13.687791  12.399184  11.134122   9.843755
    14  H    1.085727   2.172459   3.494360   4.722865   6.027271
    15  H    1.086439   2.171300   2.815242   4.241240   5.265865
    16  H    1.086438   2.171300   2.815242   4.241240   5.265865
    17  H    2.149750   1.088009   2.150610   2.779830   4.207623
    18  H    2.149750   1.088009   2.150610   2.779830   4.207623
    19  H    2.770868   2.149861   1.088894   2.151245   2.779278
    20  H    2.770868   2.149861   1.088894   2.151244   2.779278
    21  H    4.203740   2.778885   2.150473   1.088792   2.150726
    22  H    4.203740   2.778885   2.150473   1.088793   2.150726
    23  H    5.220757   4.206461   2.778336   2.150649   1.088770
    24  H    5.220757   4.206461   2.778336   2.150650   1.088771
    25  H    6.616605   5.227452   4.206193   2.778345   2.150669
    26  H    6.616604   5.227451   4.206192   2.778344   2.150669
    27  H    7.739394   6.620599   5.226917   4.206313   2.778352
    28  H    7.739396   6.620600   5.226918   4.206314   2.778354
    29  H    9.107985   7.745856   6.620241   5.226949   4.206332
    30  H    9.107984   7.745854   6.620240   5.226948   4.206331
    31  H   10.276593   9.112548   7.745344   6.620347   5.226969
    32  H   10.276591   9.112546   7.745342   6.620346   5.226967
    33  H   11.627539  10.282928   9.112157   7.745388   6.620370
    34  H   11.627537  10.282926   9.112155   7.745387   6.620368
    35  H   12.821339  11.632409  10.282424   9.112252   7.745409
    36  H   12.821342  11.632413  10.282427   9.112254   7.745412
    37  H   14.160237  12.827598  11.632005  10.282479   9.112280
    38  H   14.160233  12.827595  11.632002  10.282477   9.112278
                    6          7          8          9         10
     6  C    0.000000
     7  C    1.529869   0.000000
     8  C    2.556165   1.529870   0.000000
     9  C    3.925368   2.556177   1.529871   0.000000
    10  C    5.112347   3.925380   2.556183   1.529871   0.000000
    11  C    6.445522   5.112364   3.925388   2.556188   1.529872
    12  C    7.668538   6.445538   5.112373   3.925393   2.556191
    13  H    8.582617   7.288750   6.035001   4.734941   3.499858
    14  H    7.277134   8.573982   9.832402  11.125055  12.388058
    15  H    6.657786   7.784685   9.150535  10.321905  11.670769
    16  H    6.657786   7.784685   9.150534  10.321904  11.670768
    17  H    5.228737   6.621949   7.747260   9.113984  10.284391
    18  H    5.228737   6.621949   7.747259   9.113983  10.284390
    19  H    4.207212   5.227917   6.621285   7.746359   9.113204
    20  H    4.207212   5.227917   6.621286   7.746360   9.113206
    21  H    2.778426   4.206384   5.227026   6.620415   7.745462
    22  H    2.778426   4.206383   5.227025   6.620414   7.745460
    23  H    2.150692   2.778401   4.206367   5.227014   6.620406
    24  H    2.150692   2.778401   4.206366   5.227013   6.620405
    25  H    1.088778   2.150683   2.778398   4.206366   5.227015
    26  H    1.088778   2.150683   2.778397   4.206366   5.227014
    27  H    2.150672   1.088778   2.150680   2.778403   4.206372
    28  H    2.150673   1.088778   2.150680   2.778403   4.206373
    29  H    2.778378   2.150675   1.088779   2.150679   2.778406
    30  H    2.778378   2.150675   1.088779   2.150679   2.778405
    31  H    4.206354   2.778392   2.150675   1.088780   2.150678
    32  H    4.206353   2.778391   2.150675   1.088780   2.150678
    33  H    5.226998   4.206366   2.778399   2.150677   1.088781
    34  H    5.226997   4.206365   2.778399   2.150676   1.088780
    35  H    6.620396   5.227013   4.206371   2.778402   2.150676
    36  H    6.620398   5.227015   4.206373   2.778404   2.150676
    37  H    7.745444   6.620414   5.227026   4.206378   2.778408
    38  H    7.745442   6.620412   5.227024   4.206377   2.778408
                   11         12         13         14         15
    11  C    0.000000
    12  C    1.529871   0.000000
    13  H    2.186658   1.070000   0.000000
    14  H   13.678044  14.943902  15.840316   0.000000
    15  H   12.866642  14.203865  15.044960   1.754153   0.000000
    16  H   12.866641  14.203863  15.044958   1.754153   1.753846
    17  H   11.633896  12.829096  13.760496   2.487548   2.511786
    18  H   11.633895  12.829094  13.760494   2.487548   3.059716
    19  H   10.283449  11.633052  12.461201   3.767703   3.128418
    20  H   10.283451  11.633054  12.461203   3.767704   2.594798
    21  H    9.112322  10.282551  11.221616   4.876798   4.426165
    22  H    9.112321  10.282549  11.221613   4.876798   4.758669
    23  H    7.745456   9.112317   9.920498   6.190276   5.151891
    24  H    7.745454   9.112315   9.920495   6.190276   5.440209
    25  H    6.620410   7.745460   8.695744   7.377995   6.777120
    26  H    6.620408   7.745457   8.695741   7.377994   6.998803
    27  H    5.227025   6.620419   7.392017   8.689365   7.903678
    28  H    5.227026   6.620421   7.392019   8.689366   7.708065
    29  H    4.206377   5.227032   6.194813   9.907289   9.237729
    30  H    4.206376   5.227030   6.194811   9.907287   9.401569
    31  H    2.778409   4.206381   4.892406  11.214225  10.264245
    32  H    2.778409   4.206380   4.892404  11.214222  10.411943
    33  H    2.150679   2.778412   3.768745  12.447581  11.739261
    34  H    2.150678   2.778409   3.768743  12.447579  11.868618
    35  H    1.088781   2.150678   2.509466  13.750666  12.938984
    36  H    1.088780   2.150678   2.509466  13.750670  12.820434
    37  H    2.150677   1.088782   1.760488  14.993284  14.260198
    38  H    2.150676   1.088780   1.760486  14.993280  14.366872
                   16         17         18         19         20
    16  H    0.000000
    17  H    3.059716   0.000000
    18  H    2.511786   1.740628   0.000000
    19  H    2.594798   3.045682   2.499034   0.000000
    20  H    3.128418   2.499034   3.045682   1.741330   0.000000
    21  H    4.758669   2.558168   3.094382   3.046883   2.500260
    22  H    4.426165   3.094382   2.558168   2.500260   3.046883
    23  H    5.440210   4.396144   4.728316   3.093683   2.557102
    24  H    5.151891   4.728316   4.396145   2.557102   3.093683
    25  H    6.998804   5.114360   5.402551   4.728246   4.395931
    26  H    6.777119   5.402550   5.114359   4.395929   4.728245
    27  H    7.708063   6.964434   6.743328   5.113276   5.401638
    28  H    7.903680   6.743329   6.964436   5.401640   5.113278
    29  H    9.401570   7.670533   7.865617   6.963989   6.742779
    30  H    9.237727   7.865617   7.670531   6.742777   6.963989
    31  H   10.411945   9.202556   9.365784   7.864649   7.669460
    32  H   10.264242   9.365782   9.202554   7.669457   7.864647
    33  H   11.868619  10.226719  10.373843   9.365162   9.201859
    34  H   11.739258  10.373843  10.226716   9.201855   9.365162
    35  H   12.820429  11.832189  11.703410  10.225645  10.372846
    36  H   12.938987  11.703415  11.832191  10.372848  10.225650
    37  H   14.366874  12.782912  12.900916  11.831471  11.702635
    38  H   14.260192  12.900915  12.782907  11.702630  11.831470
                   21         22         23         24         25
    21  H    0.000000
    22  H    1.741311   0.000000
    23  H    2.499845   3.046522   0.000000
    24  H    3.046523   2.499846   1.741258   0.000000
    25  H    2.556192   3.092925   2.499849   3.046511   0.000000
    26  H    3.092925   2.556191   3.046510   2.499849   1.741258
    27  H    4.727518   4.395152   3.092895   2.556175   3.046508
    28  H    4.395153   4.727519   2.556177   3.092896   2.499848
    29  H    5.112365   5.400771   4.395147   4.727502   2.556174
    30  H    5.400771   5.112363   4.727502   4.395145   3.092893
    31  H    6.741932   6.963167   5.112358   5.400756   4.395148
    32  H    6.963166   6.741930   5.400755   5.112355   4.727503
    33  H    7.668551   7.863759   6.741929   6.963156   5.112359
    34  H    7.863759   7.668548   6.963156   6.741925   5.400757
    35  H    9.364304   9.200984   7.863748   7.668543   6.963159
    36  H    9.200988   9.364305   7.668548   7.863750   6.741932
    37  H   10.224744  10.371952   9.200988   9.364299   7.668552
    38  H   10.371952  10.224739   9.364299   9.200982   7.863754
                   26         27         28         29         30
    26  H    0.000000
    27  H    2.499848   0.000000
    28  H    3.046507   1.741252   0.000000
    29  H    3.092892   3.046507   2.499850   0.000000
    30  H    2.556173   2.499850   3.046507   1.741250   0.000000
    31  H    4.727503   3.092898   2.556182   2.499850   3.046506
    32  H    4.395147   2.556181   3.092897   3.046506   2.499850
    33  H    5.400756   4.727510   4.395157   2.556186   3.092900
    34  H    5.112357   4.395156   4.727510   3.092900   2.556185
    35  H    6.741929   5.112368   5.400765   4.727513   4.395160
    36  H    6.963160   5.400767   5.112371   4.395161   4.727513
    37  H    7.863753   6.963171   6.741945   5.112378   5.400772
    38  H    7.668548   6.741942   6.963171   5.400773   5.112375
                   31         32         33         34         35
    31  H    0.000000
    32  H    1.741249   0.000000
    33  H    2.499852   3.046507   0.000000
    34  H    3.046507   2.499852   1.741248   0.000000
    35  H    3.092902   2.556188   3.046507   2.499852   0.000000
    36  H    2.556190   3.092903   2.499852   3.046506   1.741247
    37  H    4.395167   4.727518   2.556193   3.092904   3.046508
    38  H    4.727518   4.395164   3.092906   2.556191   2.499853
                   36         37         38
    36  H    0.000000
    37  H    2.499853   0.000000
    38  H    3.046507   1.741247   0.000000
 Symmetry turned off by external request.
 Stoichiometry    C12H26
 Framework group  C1[X(C12H26)]
 Deg. of freedom   108
 Full point group                 C1      NOp   1
 Rotational constants (GHZ):           7.1209918           0.1477801           0.1463143
 Leave Link  202 at Thu Aug 29 20:24:32 2019, MaxMem=   280000000 cpu:               0.1 elap:               0.0
 (Enter /home/soft/g16/l301.exe)
 Standard basis: 6-31G(d) (5D, 7F)
 Ernie: Thresh=  0.10000D-02 Tol=  0.10000D-05 Strict=F.
   220 basis functions,   440 primitive gaussians,   232 cartesian basis functions
    49 alpha electrons       49 beta electrons
       nuclear repulsion energy       672.4021188876 Hartrees.
 IExCor=    0 DFT=F Ex=HF Corr=None ExCW=0 ScaHFX=  1.000000
 ScaDFX=  1.000000  1.000000  1.000000  1.000000 ScalE2=  1.000000  1.000000
 IRadAn=      5 IRanWt=     -1 IRanGd=            0 ICorTp=0 IEmpDi=  4
 NAtoms=   38 NActive=   38 NUniq=   38 SFac= 1.00D+00 NAtFMM=   60 NAOKFM=F Big=F
 Integral buffers will be    131072 words long.
 Raffenetti 1 integral format.
 Two-electron integral symmetry is turned off.
 Leave Link  301 at Thu Aug 29 20:24:32 2019, MaxMem=   280000000 cpu:               0.4 elap:               0.1
 (Enter /home/soft/g16/l302.exe)
 NPDir=0 NMtPBC=     1 NCelOv=     1 NCel=       1 NClECP=     1 NCelD=      1
         NCelK=      1 NCelE2=     1 NClLst=     1 CellRange=     0.0.
 One-electron integrals computed using PRISM.
 NBasis=   220 RedAO= T EigKep=  2.75D-03  NBF=   220
 NBsUse=   220 1.00D-06 EigRej= -1.00D+00 NBFU=   220
 Leave Link  302 at Thu Aug 29 20:24:33 2019, MaxMem=   280000000 cpu:               0.9 elap:               0.2
 (Enter /home/soft/g16/l303.exe)
 DipDrv:  MaxL=1.
 Leave Link  303 at Thu Aug 29 20:24:33 2019, MaxMem=   280000000 cpu:               0.2 elap:               0.1
 (Enter /home/soft/g16/l401.exe)
 ExpMin= 1.61D-01 ExpMax= 3.05D+03 ExpMxC= 4.57D+02 IAcc=3 IRadAn=         5 AccDes= 0.00D+00
 Harris functional with IExCor=  205 and IRadAn=       5 diagonalized for initial guess.
 HarFok:  IExCor=  205 AccDes= 0.00D+00 IRadAn=         5 IDoV= 1 UseB2=F ITyADJ=14
 ICtDFT=  3500011 ScaDFX=  1.000000  1.000000  1.000000  1.000000
 FoFCou: FMM=F IPFlag=           0 FMFlag=      100000 FMFlg1=           0
         NFxFlg=           0 DoJE=T BraDBF=F KetDBF=T FulRan=T
         wScrn=  0.000000 ICntrl=       500 IOpCl=  0 I1Cent=   200000004 NGrid=           0
         NMat0=    1 NMatS0=      1 NMatT0=    0 NMatD0=    1 NMtDS0=    0 NMtDT0=    0
 Symmetry not used in FoFCou.
 Harris En= -470.840476977264    
 JPrj=0 DoOrth=F DoCkMO=F.
 Leave Link  401 at Thu Aug 29 20:24:34 2019, MaxMem=   280000000 cpu:               7.8 elap:               1.4
 (Enter /home/soft/g16/l502.exe)
 Two-electron integral symmetry not used.
 Closed shell SCF:
 Using DIIS extrapolation, IDIIS=  1040.
 NGot=   280000000 LenX=   279888450 LenY=   279834185
 Requested convergence on RMS density matrix=1.00D-08 within 128 cycles.
 Requested convergence on MAX density matrix=1.00D-06.
 Requested convergence on             energy=1.00D-06.
 No special actions if energy rises.
 Fock matrices will be formed incrementally for  20 cycles.
 Integral accuracy reduced to 1.0D-05 until final iterations.

 Cycle   1  Pass 0  IDiag  1:
 FoFJK:  IHMeth= 1 ICntrl=       0 DoSepK=F KAlg= 0 I1Cent=           0 FoldK=F
 IRaf= 710000000 NMat=       1 IRICut=       1 DoRegI=T DoRafI=F ISym2E= 0 IDoP0=0 IntGTp=1.
 FoFCou: FMM=F IPFlag=           0 FMFlag=      100000 FMFlg1=           0
         NFxFlg=           0 DoJE=F BraDBF=F KetDBF=F FulRan=T
         wScrn=  0.000000 ICntrl=         0 IOpCl=  0 I1Cent=           0 NGrid=           0
         NMat0=    1 NMatS0=      1 NMatT0=    0 NMatD0=    1 NMtDS0=    0 NMtDT0=    0
 Symmetry not used in FoFCou.
 E= -468.801976649511    
 DIIS: error= 6.54D-02 at cycle   1 NSaved=   1.
 NSaved= 1 IEnMin= 1 EnMin= -468.801976649511     IErMin= 1 ErrMin= 6.54D-02
 ErrMax= 6.54D-02  0.00D+00 EMaxC= 1.00D-01 BMatC= 7.66D-01 BMatP= 7.66D-01
 IDIUse=3 WtCom= 3.46D-01 WtEn= 6.54D-01
 Coeff-Com:  0.100D+01
 Coeff-En:   0.100D+01
 Coeff:      0.100D+01
 Gap=     0.639 Goal=   None    Shift=    0.000
 GapD=    0.639 DampG=2.000 DampE=0.500 DampFc=1.0000 IDamp=-1.
 RMSDP=4.84D-03 MaxDP=1.22D-01              OVMax= 1.34D-01

 Cycle   2  Pass 0  IDiag  1:
 RMSU=  4.70D-03    CP:  9.46D-01
 E= -469.455684227558     Delta-E=       -0.653707578048 Rises=F Damp=F
 DIIS: error= 2.32D-02 at cycle   2 NSaved=   2.
 NSaved= 2 IEnMin= 2 EnMin= -469.455684227558     IErMin= 2 ErrMin= 2.32D-02
 ErrMax= 2.32D-02  0.00D+00 EMaxC= 1.00D-01 BMatC= 1.19D-01 BMatP= 7.66D-01
 IDIUse=3 WtCom= 7.68D-01 WtEn= 2.32D-01
 Coeff-Com:  0.253D+00 0.747D+00
 Coeff-En:   0.000D+00 0.100D+01
 Coeff:      0.194D+00 0.806D+00
 Gap=     0.658 Goal=   None    Shift=    0.000
 RMSDP=1.63D-03 MaxDP=3.24D-02 DE=-6.54D-01 OVMax= 4.34D-02

 Cycle   3  Pass 0  IDiag  1:
 RMSU=  8.41D-04    CP:  9.61D-01  7.10D-01
 E= -469.569727468202     Delta-E=       -0.114043240643 Rises=F Damp=F
 DIIS: error= 4.01D-03 at cycle   3 NSaved=   3.
 NSaved= 3 IEnMin= 3 EnMin= -469.569727468202     IErMin= 3 ErrMin= 4.01D-03
 ErrMax= 4.01D-03  0.00D+00 EMaxC= 1.00D-01 BMatC= 2.65D-03 BMatP= 1.19D-01
 IDIUse=3 WtCom= 9.60D-01 WtEn= 4.01D-02
 Coeff-Com: -0.310D-01 0.598D-01 0.971D+00
 Coeff-En:   0.000D+00 0.000D+00 0.100D+01
 Coeff:     -0.298D-01 0.574D-01 0.972D+00
 Gap=     0.639 Goal=   None    Shift=    0.000
 RMSDP=2.40D-04 MaxDP=6.80D-03 DE=-1.14D-01 OVMax= 8.03D-03

 Cycle   4  Pass 0  IDiag  1:
 RMSU=  1.12D-04    CP:  9.59D-01  7.53D-01  1.05D+00
 E= -469.572998141107     Delta-E=       -0.003270672905 Rises=F Damp=F
 DIIS: error= 5.34D-04 at cycle   4 NSaved=   4.
 NSaved= 4 IEnMin= 4 EnMin= -469.572998141107     IErMin= 4 ErrMin= 5.34D-04
 ErrMax= 5.34D-04  0.00D+00 EMaxC= 1.00D-01 BMatC= 5.55D-05 BMatP= 2.65D-03
 IDIUse=3 WtCom= 9.95D-01 WtEn= 5.34D-03
 Coeff-Com: -0.538D-03-0.198D-01-0.796D-01 0.110D+01
 Coeff-En:   0.000D+00 0.000D+00 0.000D+00 0.100D+01
 Coeff:     -0.535D-03-0.197D-01-0.791D-01 0.110D+01
 Gap=     0.641 Goal=   None    Shift=    0.000
 RMSDP=5.91D-05 MaxDP=1.22D-03 DE=-3.27D-03 OVMax= 1.88D-03

 Cycle   5  Pass 0  IDiag  1:
 RMSU=  3.74D-05    CP:  9.59D-01  7.54D-01  1.09D+00  1.23D+00
 E= -469.573089331489     Delta-E=       -0.000091190382 Rises=F Damp=F
 DIIS: error= 1.91D-04 at cycle   5 NSaved=   5.
 NSaved= 5 IEnMin= 5 EnMin= -469.573089331489     IErMin= 5 ErrMin= 1.91D-04
 ErrMax= 1.91D-04  0.00D+00 EMaxC= 1.00D-01 BMatC= 6.68D-06 BMatP= 5.55D-05
 IDIUse=3 WtCom= 9.98D-01 WtEn= 1.91D-03
 Coeff-Com:  0.222D-02-0.941D-02-0.908D-01 0.234D+00 0.864D+00
 Coeff-En:   0.000D+00 0.000D+00 0.000D+00 0.000D+00 0.100D+01
 Coeff:      0.222D-02-0.939D-02-0.906D-01 0.233D+00 0.864D+00
 Gap=     0.642 Goal=   None    Shift=    0.000
 RMSDP=1.63D-05 MaxDP=3.95D-04 DE=-9.12D-05 OVMax= 4.73D-04

 Cycle   6  Pass 0  IDiag  1:
 RMSU=  7.21D-06    CP:  9.59D-01  7.54D-01  1.10D+00  1.35D+00  9.72D-01
 E= -469.573098044872     Delta-E=       -0.000008713384 Rises=F Damp=F
 DIIS: error= 2.13D-05 at cycle   6 NSaved=   6.
 NSaved= 6 IEnMin= 6 EnMin= -469.573098044872     IErMin= 6 ErrMin= 2.13D-05
 ErrMax= 2.13D-05  0.00D+00 EMaxC= 1.00D-01 BMatC= 1.07D-07 BMatP= 6.68D-06
 IDIUse=1 WtCom= 1.00D+00 WtEn= 0.00D+00
 Coeff-Com:  0.129D-03 0.101D-03-0.149D-02-0.339D-01 0.333D-01 0.100D+01
 Coeff:      0.129D-03 0.101D-03-0.149D-02-0.339D-01 0.333D-01 0.100D+01
 Gap=     0.642 Goal=   None    Shift=    0.000
 RMSDP=3.35D-06 MaxDP=6.96D-05 DE=-8.71D-06 OVMax= 9.32D-05

 Initial convergence to 1.0D-05 achieved.  Increase integral accuracy.
 Cycle   7  Pass 1  IDiag  1:
 E= -469.573104336304     Delta-E=       -0.000006291432 Rises=F Damp=F
 DIIS: error= 1.65D-05 at cycle   1 NSaved=   1.
 NSaved= 1 IEnMin= 1 EnMin= -469.573104336304     IErMin= 1 ErrMin= 1.65D-05
 ErrMax= 1.65D-05  0.00D+00 EMaxC= 1.00D-01 BMatC= 2.53D-08 BMatP= 2.53D-08
 IDIUse=1 WtCom= 1.00D+00 WtEn= 0.00D+00
 Coeff-Com:  0.100D+01
 Coeff:      0.100D+01
 Gap=     0.642 Goal=   None    Shift=    0.000
 RMSDP=3.35D-06 MaxDP=6.96D-05 DE=-6.29D-06 OVMax= 2.42D-05

 Cycle   8  Pass 1  IDiag  1:
 RMSU=  2.33D-06    CP:  1.00D+00
 E= -469.573104355846     Delta-E=       -0.000000019542 Rises=F Damp=F
 DIIS: error= 1.51D-06 at cycle   2 NSaved=   2.
 NSaved= 2 IEnMin= 2 EnMin= -469.573104355846     IErMin= 2 ErrMin= 1.51D-06
 ErrMax= 1.51D-06  0.00D+00 EMaxC= 1.00D-01 BMatC= 5.45D-10 BMatP= 2.53D-08
 IDIUse=1 WtCom= 1.00D+00 WtEn= 0.00D+00
 Coeff-Com: -0.187D-01 0.102D+01
 Coeff:     -0.187D-01 0.102D+01
 Gap=     0.642 Goal=   None    Shift=    0.000
 RMSDP=2.58D-07 MaxDP=4.13D-06 DE=-1.95D-08 OVMax= 6.54D-06

 Cycle   9  Pass 1  IDiag  1:
 RMSU=  1.94D-07    CP:  1.00D+00  1.07D+00
 E= -469.573104356821     Delta-E=       -0.000000000975 Rises=F Damp=F
 DIIS: error= 6.74D-07 at cycle   3 NSaved=   3.
 NSaved= 3 IEnMin= 3 EnMin= -469.573104356821     IErMin= 3 ErrMin= 6.74D-07
 ErrMax= 6.74D-07  0.00D+00 EMaxC= 1.00D-01 BMatC= 9.64D-11 BMatP= 5.45D-10
 IDIUse=1 WtCom= 1.00D+00 WtEn= 0.00D+00
 Coeff-Com: -0.220D-01 0.149D+00 0.873D+00
 Coeff:     -0.220D-01 0.149D+00 0.873D+00
 Gap=     0.642 Goal=   None    Shift=    0.000
 RMSDP=7.50D-08 MaxDP=1.52D-06 DE=-9.75D-10 OVMax= 2.49D-06

 Cycle  10  Pass 1  IDiag  1:
 RMSU=  5.78D-08    CP:  1.00D+00  1.08D+00  1.21D+00
 E= -469.573104356994     Delta-E=       -0.000000000174 Rises=F Damp=F
 DIIS: error= 2.52D-07 at cycle   4 NSaved=   4.
 NSaved= 4 IEnMin= 4 EnMin= -469.573104356994     IErMin= 4 ErrMin= 2.52D-07
 ErrMax= 2.52D-07  0.00D+00 EMaxC= 1.00D-01 BMatC= 1.22D-11 BMatP= 9.64D-11
 IDIUse=1 WtCom= 1.00D+00 WtEn= 0.00D+00
 Coeff-Com:  0.545D-02-0.173D+00-0.107D+00 0.127D+01
 Coeff:      0.545D-02-0.173D+00-0.107D+00 0.127D+01
 Gap=     0.642 Goal=   None    Shift=    0.000
 RMSDP=5.19D-08 MaxDP=1.28D-06 DE=-1.74D-10 OVMax= 1.72D-06

 Cycle  11  Pass 1  IDiag  1:
 RMSU=  1.25D-08    CP:  1.00D+00  1.09D+00  1.44D+00  1.35D+00
 E= -469.573104357027     Delta-E=       -0.000000000033 Rises=F Damp=F
 DIIS: error= 4.33D-08 at cycle   5 NSaved=   5.
 NSaved= 5 IEnMin= 5 EnMin= -469.573104357027     IErMin= 5 ErrMin= 4.33D-08
 ErrMax= 4.33D-08  0.00D+00 EMaxC= 1.00D-01 BMatC= 2.59D-13 BMatP= 1.22D-11
 IDIUse=1 WtCom= 1.00D+00 WtEn= 0.00D+00
 Coeff-Com:  0.903D-03-0.130D-01-0.283D-01 0.673D-01 0.973D+00
 Coeff:      0.903D-03-0.130D-01-0.283D-01 0.673D-01 0.973D+00
 Gap=     0.642 Goal=   None    Shift=    0.000
 RMSDP=4.52D-09 MaxDP=7.81D-08 DE=-3.27D-11 OVMax= 1.73D-07

 SCF Done:  E(RHF) =  -469.573104357     A.U. after   11 cycles
            NFock= 11  Conv=0.45D-08     -V/T= 1.9990
 KE= 4.700617120112D+02 PE=-2.436742405645D+03 EE= 8.247054703893D+02
 Leave Link  502 at Thu Aug 29 20:24:38 2019, MaxMem=   280000000 cpu:              26.2 elap:               4.4
 (Enter /home/soft/g16/l601.exe)
 Copying SCF densities to generalized density rwf, IOpCl= 0 IROHF=0.

 **********************************************************************

            Population analysis using the SCF density.

 **********************************************************************

 Alpha  occ. eigenvalues --  -11.20995 -11.20974 -11.20836 -11.20811 -11.20802
 Alpha  occ. eigenvalues --  -11.20784 -11.20764 -11.20743 -11.20723 -11.20703
 Alpha  occ. eigenvalues --  -11.20328 -11.20214  -1.09571  -1.08141  -1.05755
 Alpha  occ. eigenvalues --   -1.02485  -0.98429  -0.93731  -0.88642  -0.83679
 Alpha  occ. eigenvalues --   -0.79914  -0.78935  -0.78355  -0.78256  -0.66138
 Alpha  occ. eigenvalues --   -0.64850  -0.62766  -0.60049  -0.59404  -0.59044
 Alpha  occ. eigenvalues --   -0.56923  -0.56894  -0.56268  -0.53932  -0.53688
 Alpha  occ. eigenvalues --   -0.51257  -0.50882  -0.50696  -0.48496  -0.48294
 Alpha  occ. eigenvalues --   -0.46790  -0.46711  -0.45948  -0.45880  -0.45766
 Alpha  occ. eigenvalues --   -0.45727  -0.45634  -0.45382  -0.41500
 Alpha virt. eigenvalues --    0.22659   0.23297   0.24216   0.25491   0.25805
 Alpha virt. eigenvalues --    0.26607   0.27490   0.27525   0.28433   0.30159
 Alpha virt. eigenvalues --    0.30273   0.31416   0.32753   0.33168   0.33485
 Alpha virt. eigenvalues --    0.33878   0.34438   0.34785   0.35242   0.35382
 Alpha virt. eigenvalues --    0.36112   0.36388   0.36671   0.37201   0.38090
 Alpha virt. eigenvalues --    0.38331   0.38338   0.39038   0.39321   0.41632
 Alpha virt. eigenvalues --    0.42197   0.43762   0.44869   0.45860   0.49437
 Alpha virt. eigenvalues --    0.53332   0.54173   0.66613   0.68997   0.70171
 Alpha virt. eigenvalues --    0.72136   0.75242   0.75437   0.76654   0.76691
 Alpha virt. eigenvalues --    0.77091   0.77469   0.79059   0.79526   0.80755
 Alpha virt. eigenvalues --    0.82589   0.86642   0.86956   0.87121   0.89418
 Alpha virt. eigenvalues --    0.94213   0.94920   0.96169   0.97650   0.98727
 Alpha virt. eigenvalues --    0.99501   1.02385   1.02743   1.02928   1.07240
 Alpha virt. eigenvalues --    1.08070   1.10171   1.11331   1.12431   1.12742
 Alpha virt. eigenvalues --    1.12755   1.14384   1.14993   1.15233   1.17735
 Alpha virt. eigenvalues --    1.18122   1.18834   1.20020   1.20145   1.20999
 Alpha virt. eigenvalues --    1.21152   1.21751   1.22567   1.22591   1.22700
 Alpha virt. eigenvalues --    1.22997   1.23355   1.23408   1.23462   1.23906
 Alpha virt. eigenvalues --    1.24055   1.25943   1.26280   1.27192   1.27857
 Alpha virt. eigenvalues --    1.28275   1.28830   1.34723   1.38781   1.47644
 Alpha virt. eigenvalues --    1.55014   1.56165   1.62349   1.64626   1.67108
 Alpha virt. eigenvalues --    1.70823   1.72528   1.73596   1.75016   1.75382
 Alpha virt. eigenvalues --    1.78760   1.78937   1.84543   1.87670   1.91420
 Alpha virt. eigenvalues --    1.95214   1.96792   2.02873   2.07726   2.10547
 Alpha virt. eigenvalues --    2.14733   2.15987   2.20433   2.20516   2.23393
 Alpha virt. eigenvalues --    2.24421   2.24783   2.25316   2.26156   2.26967
 Alpha virt. eigenvalues --    2.29100   2.29298   2.30557   2.32828   2.33602
 Alpha virt. eigenvalues --    2.34371   2.35296   2.38186   2.38312   2.38637
 Alpha virt. eigenvalues --    2.40534   2.43140   2.47670   2.48712   2.55824
 Alpha virt. eigenvalues --    2.59156   2.60220   2.62627   2.63223   2.67143
 Alpha virt. eigenvalues --    2.67842   2.68704   2.72653   2.73877   2.76203
 Alpha virt. eigenvalues --    2.77637   2.78235   2.81220   2.81369   2.86783
 Alpha virt. eigenvalues --    2.92509   2.93840   2.95585   3.00174   3.00756
 Alpha virt. eigenvalues --    3.03950   3.06540   3.14006   3.18476   3.24118
 Alpha virt. eigenvalues --    3.24474
          Condensed to atoms (all electrons):
               1          2          3          4          5          6
     1  C    5.111935   0.340993  -0.057096   0.003993  -0.000082   0.000001
     2  C    0.340993   5.069317   0.352967  -0.052483   0.003894  -0.000073
     3  C   -0.057096   0.352967   5.090112   0.356752  -0.052375   0.003874
     4  C    0.003993  -0.052483   0.356752   5.080098   0.356941  -0.052438
     5  C   -0.000082   0.003894  -0.052375   0.356941   5.079574   0.357024
     6  C    0.000001  -0.000073   0.003874  -0.052438   0.357024   5.079745
     7  C   -0.000000   0.000001  -0.000072   0.003879  -0.052458   0.357023
     8  C    0.000000  -0.000000   0.000001  -0.000072   0.003877  -0.052454
     9  C   -0.000000   0.000000  -0.000000   0.000001  -0.000072   0.003876
    10  C    0.000000  -0.000000   0.000000  -0.000000   0.000001  -0.000072
    11  C    0.000000   0.000000  -0.000000   0.000000  -0.000000   0.000001
    12  C    0.000000   0.000000   0.000000  -0.000000   0.000000  -0.000000
    13  H    0.000000   0.000000  -0.000000   0.000000  -0.000000   0.000000
    14  H    0.394975  -0.036510   0.004398  -0.000087   0.000001  -0.000000
    15  H    0.391486  -0.038347  -0.003683  -0.000068  -0.000001  -0.000000
    16  H    0.391486  -0.038347  -0.003683  -0.000068  -0.000001  -0.000000
    17  H   -0.040754   0.399866  -0.043296  -0.003143  -0.000066  -0.000001
    18  H   -0.040754   0.399866  -0.043296  -0.003143  -0.000066  -0.000001
    19  H   -0.002806  -0.041872   0.396684  -0.041683  -0.003229  -0.000059
    20  H   -0.002806  -0.041872   0.396684  -0.041683  -0.003229  -0.000059
    21  H   -0.000055  -0.003172  -0.041714   0.397115  -0.041654  -0.003211
    22  H   -0.000055  -0.003172  -0.041714   0.397115  -0.041654  -0.003211
    23  H   -0.000000  -0.000057  -0.003220  -0.041681   0.397155  -0.041670
    24  H   -0.000000  -0.000057  -0.003220  -0.041681   0.397155  -0.041670
    25  H    0.000000  -0.000000  -0.000059  -0.003214  -0.041667   0.397126
    26  H    0.000000  -0.000000  -0.000059  -0.003214  -0.041667   0.397126
    27  H   -0.000000   0.000000  -0.000001  -0.000059  -0.003209  -0.041662
    28  H   -0.000000   0.000000  -0.000001  -0.000059  -0.003209  -0.041662
    29  H   -0.000000  -0.000000   0.000000  -0.000001  -0.000059  -0.003209
    30  H   -0.000000  -0.000000   0.000000  -0.000001  -0.000059  -0.003209
    31  H   -0.000000  -0.000000  -0.000000   0.000000  -0.000001  -0.000059
    32  H   -0.000000  -0.000000  -0.000000   0.000000  -0.000001  -0.000059
    33  H   -0.000000  -0.000000  -0.000000  -0.000000   0.000000  -0.000001
    34  H   -0.000000  -0.000000  -0.000000  -0.000000   0.000000  -0.000001
    35  H    0.000000  -0.000000  -0.000000  -0.000000  -0.000000   0.000000
    36  H    0.000000  -0.000000  -0.000000  -0.000000  -0.000000   0.000000
    37  H    0.000000   0.000000  -0.000000  -0.000000  -0.000000  -0.000000
    38  H    0.000000   0.000000  -0.000000  -0.000000  -0.000000  -0.000000
               7          8          9         10         11         12
     1  C   -0.000000   0.000000  -0.000000   0.000000   0.000000   0.000000
     2  C    0.000001  -0.000000   0.000000  -0.000000   0.000000   0.000000
     3  C   -0.000072   0.000001  -0.000000   0.000000  -0.000000   0.000000
     4  C    0.003879  -0.000072   0.000001  -0.000000   0.000000  -0.000000
     5  C   -0.052458   0.003877  -0.000072   0.000001  -0.000000   0.000000
     6  C    0.357023  -0.052454   0.003876  -0.000072   0.000001  -0.000000
     7  C    5.079665   0.357056  -0.052417   0.003872  -0.000072   0.000001
     8  C    0.357056   5.079753   0.356940  -0.052401   0.003884  -0.000079
     9  C   -0.052417   0.356940   5.079322   0.357317  -0.052445   0.003931
    10  C    0.003872  -0.052401   0.357317   5.088613   0.354190  -0.055955
    11  C   -0.000072   0.003884  -0.052445   0.354190   5.072305   0.342034
    12  C    0.000001  -0.000079   0.003931  -0.055955   0.342034   5.108140
    13  H   -0.000000   0.000001  -0.000081   0.004061  -0.033568   0.395843
    14  H    0.000000  -0.000000   0.000000  -0.000000   0.000000   0.000000
    15  H   -0.000000  -0.000000  -0.000000   0.000000   0.000000   0.000000
    16  H   -0.000000  -0.000000  -0.000000   0.000000   0.000000   0.000000
    17  H   -0.000000  -0.000000  -0.000000  -0.000000  -0.000000   0.000000
    18  H   -0.000000  -0.000000  -0.000000  -0.000000  -0.000000   0.000000
    19  H   -0.000001   0.000000  -0.000000  -0.000000  -0.000000  -0.000000
    20  H   -0.000001   0.000000  -0.000000  -0.000000  -0.000000  -0.000000
    21  H   -0.000059  -0.000001   0.000000  -0.000000  -0.000000  -0.000000
    22  H   -0.000059  -0.000001   0.000000  -0.000000  -0.000000  -0.000000
    23  H   -0.003208  -0.000059  -0.000001   0.000000  -0.000000  -0.000000
    24  H   -0.003208  -0.000059  -0.000001   0.000000  -0.000000  -0.000000
    25  H   -0.041669  -0.003211  -0.000059  -0.000001   0.000000  -0.000000
    26  H   -0.041669  -0.003211  -0.000059  -0.000001   0.000000  -0.000000
    27  H    0.397133  -0.041677  -0.003210  -0.000058  -0.000001   0.000000
    28  H    0.397133  -0.041677  -0.003210  -0.000058  -0.000001   0.000000
    29  H   -0.041652   0.397120  -0.041681  -0.003220  -0.000057  -0.000000
    30  H   -0.041652   0.397120  -0.041681  -0.003221  -0.000057  -0.000000
    31  H   -0.003208  -0.041650   0.397141  -0.041702  -0.003157  -0.000056
    32  H   -0.003208  -0.041650   0.397141  -0.041702  -0.003157  -0.000056
    33  H   -0.000059  -0.003221  -0.041660   0.396407  -0.041796  -0.002874
    34  H   -0.000059  -0.003221  -0.041660   0.396408  -0.041796  -0.002874
    35  H   -0.000001  -0.000064  -0.003200  -0.043243   0.399220  -0.041167
    36  H   -0.000001  -0.000064  -0.003200  -0.043243   0.399219  -0.041167
    37  H   -0.000000  -0.000001  -0.000076  -0.003783  -0.041275   0.391714
    38  H   -0.000000  -0.000001  -0.000076  -0.003783  -0.041275   0.391714
              13         14         15         16         17         18
     1  C    0.000000   0.394975   0.391486   0.391486  -0.040754  -0.040754
     2  C    0.000000  -0.036510  -0.038347  -0.038347   0.399866   0.399866
     3  C   -0.000000   0.004398  -0.003683  -0.003683  -0.043296  -0.043296
     4  C    0.000000  -0.000087  -0.000068  -0.000068  -0.003143  -0.003143
     5  C   -0.000000   0.000001  -0.000001  -0.000001  -0.000066  -0.000066
     6  C    0.000000  -0.000000  -0.000000  -0.000000  -0.000001  -0.000001
     7  C   -0.000000   0.000000  -0.000000  -0.000000  -0.000000  -0.000000
     8  C    0.000001  -0.000000  -0.000000  -0.000000  -0.000000  -0.000000
     9  C   -0.000081   0.000000  -0.000000  -0.000000  -0.000000  -0.000000
    10  C    0.004061  -0.000000   0.000000   0.000000  -0.000000  -0.000000
    11  C   -0.033568   0.000000   0.000000   0.000000  -0.000000  -0.000000
    12  C    0.395843   0.000000   0.000000   0.000000   0.000000   0.000000
    13  H    0.522299   0.000000   0.000000   0.000000   0.000000   0.000000
    14  H    0.000000   0.535937  -0.028840  -0.028840  -0.002644  -0.002644
    15  H    0.000000  -0.028840   0.545777  -0.030411  -0.003002   0.004284
    16  H    0.000000  -0.028840  -0.030411   0.545777   0.004284  -0.003002
    17  H    0.000000  -0.002644  -0.003002   0.004284   0.561055  -0.033541
    18  H    0.000000  -0.002644   0.004284  -0.003002  -0.033541   0.561055
    19  H   -0.000000  -0.000062   0.000146   0.002532   0.004596  -0.003092
    20  H   -0.000000  -0.000062   0.002532   0.000146  -0.003092   0.004596
    21  H    0.000000   0.000001   0.000013  -0.000001   0.002361   0.000230
    22  H    0.000000   0.000001  -0.000001   0.000013   0.000230   0.002361
    23  H   -0.000000   0.000000  -0.000002   0.000000   0.000017  -0.000003
    24  H   -0.000000   0.000000   0.000000  -0.000002  -0.000003   0.000017
    25  H   -0.000000   0.000000   0.000000  -0.000000  -0.000002   0.000001
    26  H   -0.000000   0.000000  -0.000000   0.000000   0.000001  -0.000002
    27  H    0.000000  -0.000000   0.000000  -0.000000  -0.000000   0.000000
    28  H    0.000000  -0.000000  -0.000000   0.000000   0.000000  -0.000000
    29  H    0.000000  -0.000000  -0.000000   0.000000  -0.000000   0.000000
    30  H    0.000000  -0.000000   0.000000  -0.000000   0.000000  -0.000000
    31  H    0.000001   0.000000   0.000000   0.000000  -0.000000   0.000000
    32  H    0.000001   0.000000   0.000000   0.000000   0.000000  -0.000000
    33  H   -0.000057  -0.000000   0.000000  -0.000000   0.000000   0.000000
    34  H   -0.000057  -0.000000  -0.000000   0.000000   0.000000   0.000000
    35  H   -0.002332   0.000000   0.000000   0.000000  -0.000000   0.000000
    36  H   -0.002332   0.000000   0.000000   0.000000   0.000000  -0.000000
    37  H   -0.027163   0.000000   0.000000   0.000000   0.000000   0.000000
    38  H   -0.027164   0.000000   0.000000   0.000000   0.000000   0.000000
              19         20         21         22         23         24
     1  C   -0.002806  -0.002806  -0.000055  -0.000055  -0.000000  -0.000000
     2  C   -0.041872  -0.041872  -0.003172  -0.003172  -0.000057  -0.000057
     3  C    0.396684   0.396684  -0.041714  -0.041714  -0.003220  -0.003220
     4  C   -0.041683  -0.041683   0.397115   0.397115  -0.041681  -0.041681
     5  C   -0.003229  -0.003229  -0.041654  -0.041654   0.397155   0.397155
     6  C   -0.000059  -0.000059  -0.003211  -0.003211  -0.041670  -0.041670
     7  C   -0.000001  -0.000001  -0.000059  -0.000059  -0.003208  -0.003208
     8  C    0.000000   0.000000  -0.000001  -0.000001  -0.000059  -0.000059
     9  C   -0.000000  -0.000000   0.000000   0.000000  -0.000001  -0.000001
    10  C   -0.000000  -0.000000  -0.000000  -0.000000   0.000000   0.000000
    11  C   -0.000000  -0.000000  -0.000000  -0.000000  -0.000000  -0.000000
    12  C   -0.000000  -0.000000  -0.000000  -0.000000  -0.000000  -0.000000
    13  H   -0.000000  -0.000000   0.000000   0.000000  -0.000000  -0.000000
    14  H   -0.000062  -0.000062   0.000001   0.000001   0.000000   0.000000
    15  H    0.000146   0.002532   0.000013  -0.000001  -0.000002   0.000000
    16  H    0.002532   0.000146  -0.000001   0.000013   0.000000  -0.000002
    17  H    0.004596  -0.003092   0.002361   0.000230   0.000017  -0.000003
    18  H   -0.003092   0.004596   0.000230   0.002361  -0.000003   0.000017
    19  H    0.563079  -0.033417   0.004507  -0.002910   0.000263   0.002263
    20  H   -0.033417   0.563079  -0.002910   0.004507   0.002263   0.000263
    21  H    0.004507  -0.002910   0.562015  -0.033182  -0.002887   0.004499
    22  H   -0.002910   0.004507  -0.033182   0.562016   0.004499  -0.002887
    23  H    0.000263   0.002263  -0.002887   0.004499   0.561966  -0.033147
    24  H    0.002263   0.000263   0.004499  -0.002887  -0.033147   0.561967
    25  H   -0.000004   0.000017   0.002264   0.000265  -0.002884   0.004498
    26  H    0.000017  -0.000004   0.000265   0.002264   0.004498  -0.002884
    27  H   -0.000002   0.000001  -0.000004   0.000017   0.000266   0.002263
    28  H    0.000001  -0.000002   0.000017  -0.000004   0.002263   0.000266
    29  H   -0.000000   0.000000  -0.000002   0.000001   0.000017  -0.000004
    30  H    0.000000  -0.000000   0.000001  -0.000002  -0.000004   0.000017
    31  H    0.000000  -0.000000   0.000000  -0.000000  -0.000002   0.000001
    32  H   -0.000000   0.000000  -0.000000   0.000000   0.000001  -0.000002
    33  H    0.000000  -0.000000  -0.000000   0.000000   0.000000  -0.000000
    34  H   -0.000000   0.000000   0.000000  -0.000000  -0.000000   0.000000
    35  H    0.000000   0.000000   0.000000  -0.000000   0.000000  -0.000000
    36  H    0.000000   0.000000  -0.000000   0.000000  -0.000000   0.000000
    37  H   -0.000000   0.000000   0.000000   0.000000  -0.000000   0.000000
    38  H    0.000000  -0.000000   0.000000   0.000000   0.000000  -0.000000
              25         26         27         28         29         30
     1  C    0.000000   0.000000  -0.000000  -0.000000  -0.000000  -0.000000
     2  C   -0.000000  -0.000000   0.000000   0.000000  -0.000000  -0.000000
     3  C   -0.000059  -0.000059  -0.000001  -0.000001   0.000000   0.000000
     4  C   -0.003214  -0.003214  -0.000059  -0.000059  -0.000001  -0.000001
     5  C   -0.041667  -0.041667  -0.003209  -0.003209  -0.000059  -0.000059
     6  C    0.397126   0.397126  -0.041662  -0.041662  -0.003209  -0.003209
     7  C   -0.041669  -0.041669   0.397133   0.397133  -0.041652  -0.041652
     8  C   -0.003211  -0.003211  -0.041677  -0.041677   0.397120   0.397120
     9  C   -0.000059  -0.000059  -0.003210  -0.003210  -0.041681  -0.041681
    10  C   -0.000001  -0.000001  -0.000058  -0.000058  -0.003220  -0.003221
    11  C    0.000000   0.000000  -0.000001  -0.000001  -0.000057  -0.000057
    12  C   -0.000000  -0.000000   0.000000   0.000000  -0.000000  -0.000000
    13  H   -0.000000  -0.000000   0.000000   0.000000   0.000000   0.000000
    14  H    0.000000   0.000000  -0.000000  -0.000000  -0.000000  -0.000000
    15  H    0.000000  -0.000000   0.000000  -0.000000  -0.000000   0.000000
    16  H   -0.000000   0.000000  -0.000000   0.000000   0.000000  -0.000000
    17  H   -0.000002   0.000001  -0.000000   0.000000  -0.000000   0.000000
    18  H    0.000001  -0.000002   0.000000  -0.000000   0.000000  -0.000000
    19  H   -0.000004   0.000017  -0.000002   0.000001  -0.000000   0.000000
    20  H    0.000017  -0.000004   0.000001  -0.000002   0.000000  -0.000000
    21  H    0.002264   0.000265  -0.000004   0.000017  -0.000002   0.000001
    22  H    0.000265   0.002264   0.000017  -0.000004   0.000001  -0.000002
    23  H   -0.002884   0.004498   0.000266   0.002263   0.000017  -0.000004
    24  H    0.004498  -0.002884   0.002263   0.000266  -0.000004   0.000017
    25  H    0.562027  -0.033153   0.004498  -0.002883   0.002263   0.000266
    26  H   -0.033153   0.562027  -0.002883   0.004498   0.000266   0.002263
    27  H    0.004498  -0.002883   0.561971  -0.033146   0.004498  -0.002884
    28  H   -0.002883   0.004498  -0.033146   0.561971  -0.002884   0.004498
    29  H    0.002263   0.000266   0.004498  -0.002884   0.561972  -0.033157
    30  H    0.000266   0.002263  -0.002884   0.004498  -0.033157   0.561972
    31  H    0.000017  -0.000004   0.000264   0.002265  -0.002889   0.004497
    32  H   -0.000004   0.000017   0.002265   0.000264   0.004497  -0.002889
    33  H   -0.000002   0.000001  -0.000004   0.000017   0.002271   0.000262
    34  H    0.000001  -0.000002   0.000017  -0.000004   0.000262   0.002271
    35  H   -0.000000   0.000000  -0.000002   0.000001  -0.000003   0.000017
    36  H    0.000000  -0.000000   0.000001  -0.000002   0.000017  -0.000003
    37  H   -0.000000  -0.000000  -0.000000   0.000000  -0.000002   0.000000
    38  H   -0.000000  -0.000000   0.000000  -0.000000   0.000000  -0.000002
              31         32         33         34         35         36
     1  C   -0.000000  -0.000000  -0.000000  -0.000000   0.000000   0.000000
     2  C   -0.000000  -0.000000  -0.000000  -0.000000  -0.000000  -0.000000
     3  C   -0.000000  -0.000000  -0.000000  -0.000000  -0.000000  -0.000000
     4  C    0.000000   0.000000  -0.000000  -0.000000  -0.000000  -0.000000
     5  C   -0.000001  -0.000001   0.000000   0.000000  -0.000000  -0.000000
     6  C   -0.000059  -0.000059  -0.000001  -0.000001   0.000000   0.000000
     7  C   -0.003208  -0.003208  -0.000059  -0.000059  -0.000001  -0.000001
     8  C   -0.041650  -0.041650  -0.003221  -0.003221  -0.000064  -0.000064
     9  C    0.397141   0.397141  -0.041660  -0.041660  -0.003200  -0.003200
    10  C   -0.041702  -0.041702   0.396407   0.396408  -0.043243  -0.043243
    11  C   -0.003157  -0.003157  -0.041796  -0.041796   0.399220   0.399219
    12  C   -0.000056  -0.000056  -0.002874  -0.002874  -0.041167  -0.041167
    13  H    0.000001   0.000001  -0.000057  -0.000057  -0.002332  -0.002332
    14  H    0.000000   0.000000  -0.000000  -0.000000   0.000000   0.000000
    15  H    0.000000   0.000000   0.000000  -0.000000   0.000000   0.000000
    16  H    0.000000   0.000000  -0.000000   0.000000   0.000000   0.000000
    17  H   -0.000000   0.000000   0.000000   0.000000  -0.000000   0.000000
    18  H    0.000000  -0.000000   0.000000   0.000000   0.000000  -0.000000
    19  H    0.000000  -0.000000   0.000000  -0.000000   0.000000   0.000000
    20  H   -0.000000   0.000000  -0.000000   0.000000   0.000000   0.000000
    21  H    0.000000  -0.000000  -0.000000   0.000000   0.000000  -0.000000
    22  H   -0.000000   0.000000   0.000000  -0.000000  -0.000000   0.000000
    23  H   -0.000002   0.000001   0.000000  -0.000000   0.000000  -0.000000
    24  H    0.000001  -0.000002  -0.000000   0.000000  -0.000000   0.000000
    25  H    0.000017  -0.000004  -0.000002   0.000001  -0.000000   0.000000
    26  H   -0.000004   0.000017   0.000001  -0.000002   0.000000  -0.000000
    27  H    0.000264   0.002265  -0.000004   0.000017  -0.000002   0.000001
    28  H    0.002265   0.000264   0.000017  -0.000004   0.000001  -0.000002
    29  H   -0.002889   0.004497   0.002271   0.000262  -0.000003   0.000017
    30  H    0.004497  -0.002889   0.000262   0.002271   0.000017  -0.000003
    31  H    0.561618  -0.033136  -0.002916   0.004510   0.000231   0.002366
    32  H   -0.033136   0.561618   0.004510  -0.002916   0.002366   0.000231
    33  H   -0.002916   0.004510   0.562994  -0.033460   0.004598  -0.003098
    34  H    0.004510  -0.002916  -0.033460   0.562994  -0.003098   0.004599
    35  H    0.000231   0.002366   0.004598  -0.003098   0.563206  -0.033747
    36  H    0.002366   0.000231  -0.003098   0.004599  -0.033747   0.563205
    37  H    0.000014  -0.000001   0.002804   0.000132   0.004559  -0.003350
    38  H   -0.000001   0.000014   0.000132   0.002804  -0.003350   0.004559
              37         38
     1  C    0.000000   0.000000
     2  C    0.000000   0.000000
     3  C   -0.000000  -0.000000
     4  C   -0.000000  -0.000000
     5  C   -0.000000  -0.000000
     6  C   -0.000000  -0.000000
     7  C   -0.000000  -0.000000
     8  C   -0.000001  -0.000001
     9  C   -0.000076  -0.000076
    10  C   -0.003783  -0.003783
    11  C   -0.041275  -0.041275
    12  C    0.391714   0.391714
    13  H   -0.027163  -0.027164
    14  H    0.000000   0.000000
    15  H    0.000000   0.000000
    16  H    0.000000   0.000000
    17  H    0.000000   0.000000
    18  H    0.000000   0.000000
    19  H   -0.000000   0.000000
    20  H    0.000000  -0.000000
    21  H    0.000000   0.000000
    22  H    0.000000   0.000000
    23  H   -0.000000   0.000000
    24  H    0.000000  -0.000000
    25  H   -0.000000  -0.000000
    26  H   -0.000000  -0.000000
    27  H   -0.000000   0.000000
    28  H    0.000000  -0.000000
    29  H   -0.000002   0.000000
    30  H    0.000000  -0.000002
    31  H    0.000014  -0.000001
    32  H   -0.000001   0.000014
    33  H    0.002804   0.000132
    34  H    0.000132   0.002804
    35  H    0.004559  -0.003350
    36  H   -0.003350   0.004559
    37  H    0.551183  -0.032506
    38  H   -0.032506   0.551183
 Mulliken charges:
               1
     1  C   -0.490458
     2  C   -0.310942
     3  C   -0.307984
     4  C   -0.311117
     5  C   -0.310863
     6  C   -0.311017
     7  C   -0.311030
     8  C   -0.310978
     9  C   -0.310882
    10  C   -0.308425
    11  C   -0.312195
    12  C   -0.489148
    13  H    0.170548
    14  H    0.164375
    15  H    0.160117
    16  H    0.160117
    17  H    0.157134
    18  H    0.157134
    19  H    0.155049
    20  H    0.155049
    21  H    0.155565
    22  H    0.155565
    23  H    0.155617
    24  H    0.155617
    25  H    0.155567
    26  H    0.155567
    27  H    0.155610
    28  H    0.155610
    29  H    0.155635
    30  H    0.155635
    31  H    0.155854
    32  H    0.155855
    33  H    0.155150
    34  H    0.155150
    35  H    0.156009
    36  H    0.156009
    37  H    0.157751
    38  H    0.157752
 Sum of Mulliken charges =  -0.00000
 Mulliken charges with hydrogens summed into heavy atoms:
               1
     1  C   -0.005849
     2  C    0.003325
     3  C    0.002113
     4  C    0.000013
     5  C    0.000370
     6  C    0.000118
     7  C    0.000189
     8  C    0.000292
     9  C    0.000827
    10  C    0.001875
    11  C   -0.000177
    12  C   -0.003098
 Electronic spatial extent (au):  <R**2>=          64689.8255
 Charge=             -0.0000 electrons
 Dipole moment (field-independent basis, Debye):
    X=              0.0069    Y=              0.0013    Z=              0.0000  Tot=              0.0070
 Quadrupole moment (field-independent basis, Debye-Ang):
   XX=            -85.0169   YY=            -83.4385   ZZ=            -80.8371
   XY=             -0.7961   XZ=             -0.0003   YZ=             -0.0009
 Traceless Quadrupole moment (field-independent basis, Debye-Ang):
   XX=             -1.9194   YY=             -0.3410   ZZ=              2.2604
   XY=             -0.7961   XZ=             -0.0003   YZ=             -0.0009
 Octapole moment (field-independent basis, Debye-Ang**2):
  XXX=          -3264.8971  YYY=              7.7680  ZZZ=             -0.0013  XYY=          -1066.1674
  XXY=            -16.7537  XXZ=             -0.0072  XZZ=          -1032.8263  YZZ=              2.5580
  YYZ=             -0.0004  XYZ=             -0.0113
 Hexadecapole moment (field-independent basis, Debye-Ang**3):
 XXXX=         -93914.5359 YYYY=           -290.4355 ZZZZ=           -164.9793 XXXY=           -409.2195
 XXXZ=             -0.2185 YYYX=             25.9387 YYYZ=             -0.0287 ZZZX=             -0.0585
 ZZZY=             -0.0141 XXYY=         -15378.2301 XXZZ=         -14894.6244 YYZZ=            -68.6968
 XXYZ=             -0.1653 YYXZ=             -0.0238 ZZXY=             12.2265
 N-N= 6.724021188876D+02 E-N=-2.436742403111D+03  KE= 4.700617120112D+02
 No NMR shielding tensors so no spin-rotation constants.
 Leave Link  601 at Thu Aug 29 20:24:39 2019, MaxMem=   280000000 cpu:               0.6 elap:               0.1
 (Enter /home/soft/g16/l9999.exe)
 1\1\GINC-NODE18\SP\RHF\6-31G(d)\C12H26\ROOT\29-Aug-2019\0\\#p hf/6-31g
 (d) 5d 7f nosymm\\Atom number=38\\0,1\C,0,19.805866,0.378823,0.000178\
 C,0,18.5316,-0.465018,-0.000115\C,0,17.25509,0.378081,0.000164\C,0,15.
 975006,-0.459434,-0.000127\C,0,14.698996,0.384549,0.000153\C,0,13.4188
 78,-0.453176,-0.000137\C,0,12.142861,0.39079,0.000143\C,0,10.862721,-0
 .446912,-0.000146\C,0,9.586692,0.39704,0.000135\C,0,8.306546,-0.440654
 ,-0.000153\C,0,7.030512,0.403292,0.000129\C,0,5.750363,-0.434398,-0.00
 0156\H,0,4.85789778,0.15586109,0.00004123\H,0,20.69309,-0.246986,-0.00
 003\H,0,19.85249,1.018793,-0.876528\H,0,19.852481,1.018197,0.877318\H,
 0,18.531643,-1.117652,-0.870651\H,0,18.531634,-1.118243,0.869977\H,0,1
 7.257726,1.031717,0.871051\H,0,17.257735,1.032308,-0.870279\H,0,15.973
 479,-1.112916,-0.871004\H,0,15.97347,-1.113507,0.870307\H,0,14.700641,
 1.03862,-0.870254\H,0,14.700632,1.03803,0.871004\H,0,13.417295,-1.1066
 7,-0.870988\H,0,13.417287,-1.10726,0.87027\H,0,12.144465,1.044289,0.87
 099\H,0,12.144472,1.044878,-0.870262\H,0,10.861129,-1.100414,-0.870992
 \H,0,10.861122,-1.101003,0.870258\H,0,9.588298,1.051132,-0.870269\H,0,
 9.588292,1.050544,0.87098\H,0,8.304951,-1.09416,-0.870998\H,0,8.304945
 ,-1.094748,0.87025\H,0,7.032112,1.056799,0.870973\H,0,7.032116,1.05738
 6,-0.870274\H,0,5.748766,-1.087906,-0.871001\H,0,5.748762,-1.088493,0.
 870246\\Version=ES64L-G16RevA.03\HF=-469.5731044\RMSD=4.516e-09\Dipole
 =0.0027067,0.000513,0.000001\Quadrupole=-1.4270455,-0.2535043,1.680549
 8,-0.591881,-0.0001991,-0.0006564\PG=C01 [X(C12H26)]\\@


 The hours that make us happy make us wise.
                         -- John Masefield
 Job cpu time:       0 days  0 hours  0 minutes 37.7 seconds.
 Elapsed time:       0 days  0 hours  0 minutes  6.6 seconds.
 File lengths (MBytes):  RWF=     88 Int=      0 D2E=      0 Chk=      8 Scr=      8
 Normal termination of Gaussian 16 at Thu Aug 29 20:24:39 2019.
