 Entering Gaussian System, Link 0=g16
 Input=32ane_10.gjf
 Output=32ane_10.log
 Initial command:
 /home/soft/g16/l1.exe "/tmp/liwei01/gaussian/liaokang/Gau-200059.inp" -scrdir="/tmp/liwei01/gaussian/liaokang/"
 Entering Link 1 = /home/soft/g16/l1.exe PID=    200060.
  
 Copyright (c) 1988,1990,1992,1993,1995,1998,2003,2009,2016,
            Gaussian, Inc.  All Rights Reserved.
  
 This is part of the Gaussian(R) 16 program.  It is based on
 the Gaussian(R) 09 system (copyright 2009, Gaussian, Inc.),
 the Gaussian(R) 03 system (copyright 2003, Gaussian, Inc.),
 the Gaussian(R) 98 system (copyright 1998, Gaussian, Inc.),
 the Gaussian(R) 94 system (copyright 1995, Gaussian, Inc.),
 the Gaussian 92(TM) system (copyright 1992, Gaussian, Inc.),
 the Gaussian 90(TM) system (copyright 1990, Gaussian, Inc.),
 the Gaussian 88(TM) system (copyright 1988, Gaussian, Inc.),
 the Gaussian 86(TM) system (copyright 1986, Carnegie Mellon
 University), and the Gaussian 82(TM) system (copyright 1983,
 Carnegie Mellon University). Gaussian is a federally registered
 trademark of Gaussian, Inc.
  
 This software contains proprietary and confidential information,
 including trade secrets, belonging to Gaussian, Inc.
  
 This software is provided under written license and may be
 used, copied, transmitted, or stored only in accord with that
 written license.
  
 The following legend is applicable only to US Government
 contracts under FAR:
  
                    RESTRICTED RIGHTS LEGEND
  
 Use, reproduction and disclosure by the US Government is
 subject to restrictions as set forth in subparagraphs (a)
 and (c) of the Commercial Computer Software - Restricted
 Rights clause in FAR 52.227-19.
  
 Gaussian, Inc.
 340 Quinnipiac St., Bldg. 40, Wallingford CT 06492
  
  
 ---------------------------------------------------------------
 Warning -- This program may not be used in any manner that
 competes with the business of Gaussian, Inc. or will provide
 assistance to any competitor of Gaussian, Inc.  The licensee
 of this program is prohibited from giving any competitor of
 Gaussian, Inc. access to this program.  By using this program,
 the user acknowledges that Gaussian, Inc. is engaged in the
 business of creating and licensing software in the field of
 computational chemistry and represents and warrants to the
 licensee that it is not a competitor of Gaussian, Inc. and that
 it will not use this program in any manner prohibited above.
 ---------------------------------------------------------------
  

 Cite this work as:
 Gaussian 16, Revision A.03,
 M. J. Frisch, G. W. Trucks, H. B. Schlegel, G. E. Scuseria, 
 M. A. Robb, J. R. Cheeseman, G. Scalmani, V. Barone, 
 G. A. Petersson, H. Nakatsuji, X. Li, M. Caricato, A. V. Marenich, 
 J. Bloino, B. G. Janesko, R. Gomperts, B. Mennucci, H. P. Hratchian, 
 J. V. Ortiz, A. F. Izmaylov, J. L. Sonnenberg, D. Williams-Young, 
 F. Ding, F. Lipparini, F. Egidi, J. Goings, B. Peng, A. Petrone, 
 T. Henderson, D. Ranasinghe, V. G. Zakrzewski, J. Gao, N. Rega, 
 G. Zheng, W. Liang, M. Hada, M. Ehara, K. Toyota, R. Fukuda, 
 J. Hasegawa, M. Ishida, T. Nakajima, Y. Honda, O. Kitao, H. Nakai, 
 T. Vreven, K. Throssell, J. A. Montgomery, Jr., J. E. Peralta, 
 F. Ogliaro, M. J. Bearpark, J. J. Heyd, E. N. Brothers, K. N. Kudin, 
 V. N. Staroverov, T. A. Keith, R. Kobayashi, J. Normand, 
 K. Raghavachari, A. P. Rendell, J. C. Burant, S. S. Iyengar, 
 J. Tomasi, M. Cossi, J. M. Millam, M. Klene, C. Adamo, R. Cammi, 
 J. W. Ochterski, R. L. Martin, K. Morokuma, O. Farkas, 
 J. B. Foresman, and D. J. Fox, Gaussian, Inc., Wallingford CT, 2016.
 
 ******************************************
 Gaussian 16:  ES64L-G16RevA.03 25-Dec-2016
                29-Aug-2019 
 ******************************************
 %chk=32ane_10.chk
 %nproc=6
 Will use up to    6 processors via shared memory.
 ---------------------------
 #p hf/6-31g(d) 5d 7f nosymm
 ---------------------------
 1/38=1,172=1/1;
 2/12=2,15=1,17=6,18=5,40=1/2;
 3/5=1,6=6,7=1,8=11,11=9,25=1,30=1/1,2,3;
 4//1;
 5/5=2,38=5/2;
 6/7=2,8=2,9=2,10=2,28=1/1;
 99/5=1,9=1/99;
 Leave Link    1 at Thu Aug 29 20:24:42 2019, MaxMem=           0 cpu:               0.3 elap:               0.1
 (Enter /home/soft/g16/l101.exe)
 --------------
 Atom number=26
 --------------
 Symbolic Z-matrix:
 Charge =  0 Multiplicity = 1
 c                    -0.63804   0.42204   0.00011 
 c                    -1.91818  -0.41566  -0.00007 
 c                    -3.19422   0.42826  -0.00006 
 c                    -4.47435  -0.40944  -0.00006 
 c                    -5.75039   0.43448  -0.00004 
 c                    -7.03052  -0.40323   0.00003 
 c                    -8.30656   0.44069  -0.00019 
 c                    -9.58669  -0.39702   0.00005 
 h                     0.25443  -0.16821  -0.00007 
 h                    -10.47916   0.19323  -0.00009 
 h                    -4.47594  -1.06327   0.87055 
 h                    -0.63647   1.07608  -0.87034 
 h                    -0.63642   1.07561   0.8709 
 h                    -1.91971  -1.06937  -0.87076 
 h                    -1.91982  -1.06956   0.87049 
 h                    -3.19263   1.08207   0.87056 
 h                    -3.19263   1.08207  -0.87068 
 h                    -4.47595  -1.06324  -0.8707 
 h                    -5.74883   1.08826  -0.87068 
 h                    -5.74878   1.08831   0.87056 
 h                    -7.03207  -1.05719  -0.87048 
 h                    -7.03216  -1.05688   0.87077 
 h                    -8.30497   1.09475   0.87025 
 h                    -8.30499   1.09425  -0.871 
 h                    -9.58829  -1.05106  -0.8704 
 h                    -9.58827  -1.0506    0.87085 
 
 ITRead=  0  0  0  0  0  0  0  0  0  0  0  0  0  0  0  0  0  0  0  0
 ITRead=  0  0  0  0  0  0
 MicOpt= -1 -1 -1 -1 -1 -1 -1 -1 -1 -1 -1 -1 -1 -1 -1 -1 -1 -1 -1 -1
 MicOpt= -1 -1 -1 -1 -1 -1
 NAtoms=     26 NQM=       26 NQMF=       0 NMMI=      0 NMMIF=      0
                NMic=       0 NMicF=      0.
                    Isotopes and Nuclear Properties:
 (Nuclear quadrupole moments (NQMom) in fm**2, nuclear magnetic moments (NMagM)
  in nuclear magnetons)

  Atom         1           2           3           4           5           6           7           8           9          10
 IAtWgt=          12          12          12          12          12          12          12          12           1           1
 AtmWgt=  12.0000000  12.0000000  12.0000000  12.0000000  12.0000000  12.0000000  12.0000000  12.0000000   1.0078250   1.0078250
 NucSpn=           0           0           0           0           0           0           0           0           1           1
 AtZEff=  -0.0000000  -0.0000000  -0.0000000  -0.0000000  -0.0000000  -0.0000000  -0.0000000  -0.0000000  -0.0000000  -0.0000000
 NQMom=    0.0000000   0.0000000   0.0000000   0.0000000   0.0000000   0.0000000   0.0000000   0.0000000   0.0000000   0.0000000
 NMagM=    0.0000000   0.0000000   0.0000000   0.0000000   0.0000000   0.0000000   0.0000000   0.0000000   2.7928460   2.7928460
 AtZNuc=   6.0000000   6.0000000   6.0000000   6.0000000   6.0000000   6.0000000   6.0000000   6.0000000   1.0000000   1.0000000

  Atom        11          12          13          14          15          16          17          18          19          20
 IAtWgt=           1           1           1           1           1           1           1           1           1           1
 AtmWgt=   1.0078250   1.0078250   1.0078250   1.0078250   1.0078250   1.0078250   1.0078250   1.0078250   1.0078250   1.0078250
 NucSpn=           1           1           1           1           1           1           1           1           1           1
 AtZEff=  -0.0000000  -0.0000000  -0.0000000  -0.0000000  -0.0000000  -0.0000000  -0.0000000  -0.0000000  -0.0000000  -0.0000000
 NQMom=    0.0000000   0.0000000   0.0000000   0.0000000   0.0000000   0.0000000   0.0000000   0.0000000   0.0000000   0.0000000
 NMagM=    2.7928460   2.7928460   2.7928460   2.7928460   2.7928460   2.7928460   2.7928460   2.7928460   2.7928460   2.7928460
 AtZNuc=   1.0000000   1.0000000   1.0000000   1.0000000   1.0000000   1.0000000   1.0000000   1.0000000   1.0000000   1.0000000

  Atom        21          22          23          24          25          26
 IAtWgt=           1           1           1           1           1           1
 AtmWgt=   1.0078250   1.0078250   1.0078250   1.0078250   1.0078250   1.0078250
 NucSpn=           1           1           1           1           1           1
 AtZEff=  -0.0000000  -0.0000000  -0.0000000  -0.0000000  -0.0000000  -0.0000000
 NQMom=    0.0000000   0.0000000   0.0000000   0.0000000   0.0000000   0.0000000
 NMagM=    2.7928460   2.7928460   2.7928460   2.7928460   2.7928460   2.7928460
 AtZNuc=   1.0000000   1.0000000   1.0000000   1.0000000   1.0000000   1.0000000
 Leave Link  101 at Thu Aug 29 20:24:42 2019, MaxMem=   280000000 cpu:               0.5 elap:               0.1
 (Enter /home/soft/g16/l202.exe)
                          Input orientation:                          
 ---------------------------------------------------------------------
 Center     Atomic      Atomic             Coordinates (Angstroms)
 Number     Number       Type             X           Y           Z
 ---------------------------------------------------------------------
      1          6           0       -0.638038    0.422037    0.000110
      2          6           0       -1.918178   -0.415658   -0.000065
      3          6           0       -3.194218    0.428261   -0.000059
      4          6           0       -4.474353   -0.409444   -0.000063
      5          6           0       -5.750393    0.434477   -0.000044
      6          6           0       -7.030525   -0.403230    0.000030
      7          6           0       -8.306562    0.440692   -0.000190
      8          6           0       -9.586689   -0.397022    0.000053
      9          1           0        0.254432   -0.168215   -0.000071
     10          1           0      -10.479160    0.193229   -0.000092
     11          1           0       -4.475936   -1.063266    0.870548
     12          1           0       -0.636465    1.076076   -0.870338
     13          1           0       -0.636417    1.075615    0.870904
     14          1           0       -1.919713   -1.069374   -0.870755
     15          1           0       -1.919821   -1.069558    0.870487
     16          1           0       -3.192634    1.082072    0.870560
     17          1           0       -3.192634    1.082069   -0.870681
     18          1           0       -4.475948   -1.063238   -0.870696
     19          1           0       -5.748833    1.088263   -0.870682
     20          1           0       -5.748776    1.088306    0.870562
     21          1           0       -7.032066   -1.057190   -0.870476
     22          1           0       -7.032158   -1.056883    0.870768
     23          1           0       -8.304973    1.094747    0.870246
     24          1           0       -8.304988    1.094252   -0.870997
     25          1           0       -9.588293   -1.051059   -0.870396
     26          1           0       -9.588266   -1.050596    0.870850
 ---------------------------------------------------------------------
                    Distance matrix (angstroms):
                    1          2          3          4          5
     1  C    0.000000
     2  C    1.529866   0.000000
     3  C    2.556188   1.529862   0.000000
     4  C    3.925388   2.556183   1.529868   0.000000
     5  C    5.112370   3.925379   2.556183   1.529863   0.000000
     6  C    6.445538   5.112362   3.925383   2.556180   1.529866
     7  C    7.668547   6.445524   5.112359   3.925373   2.556177
     8  C    8.986057   7.668534   6.445524   5.112351   3.925374
     9  H    1.070000   2.186655   3.499853   4.734934   6.034995
    10  H    9.843781   8.582607   7.288732   6.034975   4.734917
    11  H    4.206334   2.778397   2.150677   1.088783   2.150676
    12  H    1.088783   2.150682   2.778336   4.206368   5.226980
    13  H    1.088783   2.150673   2.778487   4.206392   5.227079
    14  H    2.150675   1.088783   2.150671   2.778452   4.206402
    15  H    2.150670   1.088783   2.150674   2.778352   4.206332
    16  H    2.778361   2.150679   1.088783   2.150676   2.778392
    17  H    2.778467   2.150673   1.088784   2.150672   2.778402
    18  H    4.206412   2.778407   2.150677   1.088784   2.150673
    19  H    5.227080   4.206384   2.778425   2.150675   1.088783
    20  H    5.226973   4.206350   2.778382   2.150674   1.088784
    21  H    6.620395   5.226952   4.206337   2.778325   2.150676
    22  H    6.620424   5.227075   4.206397   2.778469   2.150672
    23  H    7.745422   6.620417   5.226993   4.206385   2.778352
    24  H    7.745503   6.620400   5.227050   4.206351   2.778456
    25  H    9.112346   7.745442   6.620428   5.227000   4.206401
    26  H    9.112267   7.745443   6.620374   5.227014   4.206325
                    6          7          8          9         10
     6  C    0.000000
     7  C    1.529861   0.000000
     8  C    2.556172   1.529866   0.000000
     9  H    7.288747   8.582621   9.843780   0.000000
    10  H    3.499835   2.186646   1.070000  10.739676   0.000000
    11  H    2.778376   4.206396   5.226991   4.892389   6.194795
    12  H    6.620415   7.745402   9.112305   1.760489   9.920453
    13  H    6.620425   7.745518   9.112322   1.760489   9.920525
    14  H    5.227085   6.620425   7.745507   2.509399   8.695766
    15  H    5.226948   6.620377   7.745374   2.509515   8.695678
    16  H    4.206347   5.227029   6.620381   3.768750   7.391991
    17  H    4.206383   5.226986   6.620410   3.768744   7.391983
    18  H    2.778424   4.206327   5.227018   4.892397   6.194773
    19  H    2.150680   2.778324   4.206351   6.194828   4.892341
    20  H    2.150671   2.778468   4.206372   6.194784   4.892416
    21  H    1.088782   2.150672   2.778442   7.391951   3.768763
    22  H    1.088784   2.150675   2.778343   7.392055   3.768686
    23  H    2.150681   1.088783   2.150676   8.695743   2.509444
    24  H    2.150673   1.088783   2.150671   8.695746   2.509450
    25  H    2.778399   2.150678   1.088783   9.920490   1.760490
    26  H    2.778390   2.150678   1.088783   9.920474   1.760492
                   11         12         13         14         15
    11  H    0.000000
    12  H    4.727474   0.000000
    13  H    4.395079   1.741242   0.000000
    14  H    3.092968   2.499936   3.046507   0.000000
    15  H    2.556123   3.046509   2.499779   1.741242   0.000000
    16  H    2.499868   3.092695   2.556225   3.046510   2.499913
    17  H    3.046507   2.556176   3.093122   2.499807   3.046509
    18  H    1.741244   4.395258   4.727564   2.556242   3.092821
    19  H    3.046510   5.112383   5.400933   4.395174   4.727493
    20  H    2.499877   5.400612   5.112375   4.727525   4.395142
    21  H    3.092734   6.741998   6.963159   5.112368   5.400570
    22  H    2.556230   6.963178   6.741888   5.400940   5.112353
    23  H    4.395287   7.863587   7.668580   6.963192   6.741987
    24  H    4.727526   7.668545   7.863940   6.741885   6.963131
    25  H    5.400669   9.201083   9.364345   7.668602   7.863617
    26  H    5.112346   9.364252   9.200890   7.863857   7.668468
                   16         17         18         19         20
    16  H    0.000000
    17  H    1.741241   0.000000
    18  H    3.046510   2.499847   0.000000
    19  H    3.092914   2.556207   2.499839   0.000000
    20  H    2.556150   3.092867   3.046508   1.741244   0.000000
    21  H    4.727461   4.395187   2.556125   2.499931   3.046506
    22  H    4.395119   4.727547   3.093048   3.046510   2.499781
    23  H    5.112355   5.400648   4.727495   3.092689   2.556205
    24  H    5.400864   5.112369   4.395032   2.556162   3.093102
    25  H    6.963162   6.742009   5.112360   4.395242   4.727548
    26  H    6.741838   6.963139   5.400827   4.727462   4.395064
                   21         22         23         24         25
    21  H    0.000000
    22  H    1.741244   0.000000
    23  H    3.046512   2.499914   0.000000
    24  H    2.499807   3.046510   1.741243   0.000000
    25  H    2.556234   3.092816   3.046511   2.499846   0.000000
    26  H    3.092963   2.556116   2.499868   3.046507   1.741246
                   26
    26  H    0.000000
 Symmetry turned off by external request.
 Stoichiometry    C8H18
 Framework group  C1[X(C8H18)]
 Deg. of freedom    72
 Full point group                 C1      NOp   1
 Rotational constants (GHZ):          10.8433058           0.4891800           0.4789065
 Leave Link  202 at Thu Aug 29 20:24:42 2019, MaxMem=   280000000 cpu:               0.1 elap:               0.0
 (Enter /home/soft/g16/l301.exe)
 Standard basis: 6-31G(d) (5D, 7F)
 Ernie: Thresh=  0.10000D-02 Tol=  0.10000D-05 Strict=F.
   148 basis functions,   296 primitive gaussians,   156 cartesian basis functions
    33 alpha electrons       33 beta electrons
       nuclear repulsion energy       375.1501419828 Hartrees.
 IExCor=    0 DFT=F Ex=HF Corr=None ExCW=0 ScaHFX=  1.000000
 ScaDFX=  1.000000  1.000000  1.000000  1.000000 ScalE2=  1.000000  1.000000
 IRadAn=      5 IRanWt=     -1 IRanGd=            0 ICorTp=0 IEmpDi=  4
 NAtoms=   26 NActive=   26 NUniq=   26 SFac= 1.00D+00 NAtFMM=   60 NAOKFM=F Big=F
 Integral buffers will be    131072 words long.
 Raffenetti 1 integral format.
 Two-electron integral symmetry is turned off.
 Leave Link  301 at Thu Aug 29 20:24:43 2019, MaxMem=   280000000 cpu:               0.3 elap:               0.1
 (Enter /home/soft/g16/l302.exe)
 NPDir=0 NMtPBC=     1 NCelOv=     1 NCel=       1 NClECP=     1 NCelD=      1
         NCelK=      1 NCelE2=     1 NClLst=     1 CellRange=     0.0.
 One-electron integrals computed using PRISM.
 NBasis=   148 RedAO= T EigKep=  2.99D-03  NBF=   148
 NBsUse=   148 1.00D-06 EigRej= -1.00D+00 NBFU=   148
 Leave Link  302 at Thu Aug 29 20:24:43 2019, MaxMem=   280000000 cpu:               0.6 elap:               0.1
 (Enter /home/soft/g16/l303.exe)
 DipDrv:  MaxL=1.
 Leave Link  303 at Thu Aug 29 20:24:43 2019, MaxMem=   280000000 cpu:               0.2 elap:               0.0
 (Enter /home/soft/g16/l401.exe)
 ExpMin= 1.61D-01 ExpMax= 3.05D+03 ExpMxC= 4.57D+02 IAcc=3 IRadAn=         5 AccDes= 0.00D+00
 Harris functional with IExCor=  205 and IRadAn=       5 diagonalized for initial guess.
 HarFok:  IExCor=  205 AccDes= 0.00D+00 IRadAn=         5 IDoV= 1 UseB2=F ITyADJ=14
 ICtDFT=  3500011 ScaDFX=  1.000000  1.000000  1.000000  1.000000
 FoFCou: FMM=F IPFlag=           0 FMFlag=      100000 FMFlg1=           0
         NFxFlg=           0 DoJE=T BraDBF=F KetDBF=T FulRan=T
         wScrn=  0.000000 ICntrl=       500 IOpCl=  0 I1Cent=   200000004 NGrid=           0
         NMat0=    1 NMatS0=      1 NMatT0=    0 NMatD0=    1 NMtDS0=    0 NMtDT0=    0
 Symmetry not used in FoFCou.
 Harris En= -314.305273333156    
 JPrj=0 DoOrth=F DoCkMO=F.
 Leave Link  401 at Thu Aug 29 20:24:43 2019, MaxMem=   280000000 cpu:               4.5 elap:               0.8
 (Enter /home/soft/g16/l502.exe)
 Keep R1 ints in memory in canonical form, NReq=62727728.
 FoFCou: FMM=F IPFlag=           0 FMFlag=           0 FMFlg1=           0
         NFxFlg=           0 DoJE=F BraDBF=F KetDBF=F FulRan=T
         wScrn=  0.000000 ICntrl=       600 IOpCl=  0 I1Cent=           0 NGrid=           0
         NMat0=    1 NMatS0=  11026 NMatT0=    0 NMatD0=    1 NMtDS0=    0 NMtDT0=    0
 Symmetry not used in FoFCou.
 Two-electron integral symmetry not used.
 Closed shell SCF:
 Using DIIS extrapolation, IDIIS=  1040.
 NGot=   280000000 LenX=   219156783 LenY=   219132006
 Requested convergence on RMS density matrix=1.00D-08 within 128 cycles.
 Requested convergence on MAX density matrix=1.00D-06.
 Requested convergence on             energy=1.00D-06.
 No special actions if energy rises.

 Cycle   1  Pass 1  IDiag  1:
 E= -312.897592517267    
 DIIS: error= 6.71D-02 at cycle   1 NSaved=   1.
 NSaved= 1 IEnMin= 1 EnMin= -312.897592517267     IErMin= 1 ErrMin= 6.71D-02
 ErrMax= 6.71D-02  0.00D+00 EMaxC= 1.00D-01 BMatC= 5.30D-01 BMatP= 5.30D-01
 IDIUse=3 WtCom= 3.29D-01 WtEn= 6.71D-01
 Coeff-Com:  0.100D+01
 Coeff-En:   0.100D+01
 Coeff:      0.100D+01
 Gap=     0.645 Goal=   None    Shift=    0.000
 GapD=    0.645 DampG=2.000 DampE=0.500 DampFc=1.0000 IDamp=-1.
 RMSDP=5.92D-03 MaxDP=1.22D-01              OVMax= 1.34D-01

 Cycle   2  Pass 1  IDiag  1:
 E= -313.350565668291     Delta-E=       -0.452973151024 Rises=F Damp=F
 DIIS: error= 2.38D-02 at cycle   2 NSaved=   2.
 NSaved= 2 IEnMin= 2 EnMin= -313.350565668291     IErMin= 2 ErrMin= 2.38D-02
 ErrMax= 2.38D-02  0.00D+00 EMaxC= 1.00D-01 BMatC= 8.48D-02 BMatP= 5.30D-01
 IDIUse=3 WtCom= 7.62D-01 WtEn= 2.38D-01
 Coeff-Com:  0.258D+00 0.742D+00
 Coeff-En:   0.000D+00 0.100D+01
 Coeff:      0.196D+00 0.804D+00
 Gap=     0.675 Goal=   None    Shift=    0.000
 RMSDP=2.03D-03 MaxDP=3.21D-02 DE=-4.53D-01 OVMax= 4.47D-02

 Cycle   3  Pass 1  IDiag  1:
 E= -313.431999461621     Delta-E=       -0.081433793330 Rises=F Damp=F
 DIIS: error= 4.17D-03 at cycle   3 NSaved=   3.
 NSaved= 3 IEnMin= 3 EnMin= -313.431999461621     IErMin= 3 ErrMin= 4.17D-03
 ErrMax= 4.17D-03  0.00D+00 EMaxC= 1.00D-01 BMatC= 1.91D-03 BMatP= 8.48D-02
 IDIUse=3 WtCom= 9.58D-01 WtEn= 4.17D-02
 Coeff-Com: -0.306D-01 0.626D-01 0.968D+00
 Coeff-En:   0.000D+00 0.000D+00 0.100D+01
 Coeff:     -0.293D-01 0.599D-01 0.969D+00
 Gap=     0.655 Goal=   None    Shift=    0.000
 RMSDP=2.98D-04 MaxDP=6.62D-03 DE=-8.14D-02 OVMax= 8.28D-03

 Cycle   4  Pass 1  IDiag  1:
 E= -313.434337422105     Delta-E=       -0.002337960485 Rises=F Damp=F
 DIIS: error= 6.27D-04 at cycle   4 NSaved=   4.
 NSaved= 4 IEnMin= 4 EnMin= -313.434337422105     IErMin= 4 ErrMin= 6.27D-04
 ErrMax= 6.27D-04  0.00D+00 EMaxC= 1.00D-01 BMatC= 3.92D-05 BMatP= 1.91D-03
 IDIUse=3 WtCom= 9.94D-01 WtEn= 6.27D-03
 Coeff-Com: -0.121D-02-0.191D-01-0.633D-01 0.108D+01
 Coeff-En:   0.000D+00 0.000D+00 0.000D+00 0.100D+01
 Coeff:     -0.120D-02-0.190D-01-0.629D-01 0.108D+01
 Gap=     0.656 Goal=   None    Shift=    0.000
 RMSDP=7.26D-05 MaxDP=1.15D-03 DE=-2.34D-03 OVMax= 1.91D-03

 Cycle   5  Pass 1  IDiag  1:
 E= -313.434401688224     Delta-E=       -0.000064266119 Rises=F Damp=F
 DIIS: error= 2.14D-04 at cycle   5 NSaved=   5.
 NSaved= 5 IEnMin= 5 EnMin= -313.434401688224     IErMin= 5 ErrMin= 2.14D-04
 ErrMax= 2.14D-04  0.00D+00 EMaxC= 1.00D-01 BMatC= 4.67D-06 BMatP= 3.92D-05
 IDIUse=3 WtCom= 9.98D-01 WtEn= 2.14D-03
 Coeff-Com:  0.214D-02-0.934D-02-0.883D-01 0.214D+00 0.881D+00
 Coeff-En:   0.000D+00 0.000D+00 0.000D+00 0.000D+00 0.100D+01
 Coeff:      0.214D-02-0.932D-02-0.881D-01 0.214D+00 0.882D+00
 Gap=     0.657 Goal=   None    Shift=    0.000
 RMSDP=2.07D-05 MaxDP=3.47D-04 DE=-6.43D-05 OVMax= 5.00D-04

 Cycle   6  Pass 1  IDiag  1:
 E= -313.434408005778     Delta-E=       -0.000006317554 Rises=F Damp=F
 DIIS: error= 2.55D-05 at cycle   6 NSaved=   6.
 NSaved= 6 IEnMin= 6 EnMin= -313.434408005778     IErMin= 6 ErrMin= 2.55D-05
 ErrMax= 2.55D-05  0.00D+00 EMaxC= 1.00D-01 BMatC= 9.17D-08 BMatP= 4.67D-06
 IDIUse=1 WtCom= 1.00D+00 WtEn= 0.00D+00
 Coeff-Com:  0.205D-03-0.111D-03-0.409D-02-0.312D-01 0.563D-01 0.979D+00
 Coeff:      0.205D-03-0.111D-03-0.409D-02-0.312D-01 0.563D-01 0.979D+00
 Gap=     0.657 Goal=   None    Shift=    0.000
 RMSDP=4.36D-06 MaxDP=6.57D-05 DE=-6.32D-06 OVMax= 9.90D-05

 Cycle   7  Pass 1  IDiag  1:
 E= -313.434408163998     Delta-E=       -0.000000158220 Rises=F Damp=F
 DIIS: error= 5.36D-06 at cycle   7 NSaved=   7.
 NSaved= 7 IEnMin= 7 EnMin= -313.434408163998     IErMin= 7 ErrMin= 5.36D-06
 ErrMax= 5.36D-06  0.00D+00 EMaxC= 1.00D-01 BMatC= 3.71D-09 BMatP= 9.17D-08
 IDIUse=1 WtCom= 1.00D+00 WtEn= 0.00D+00
 Coeff-Com: -0.441D-04 0.248D-03 0.233D-02-0.816D-02-0.228D-01 0.464D-01
 Coeff-Com:  0.982D+00
 Coeff:     -0.441D-04 0.248D-03 0.233D-02-0.816D-02-0.228D-01 0.464D-01
 Coeff:      0.982D+00
 Gap=     0.657 Goal=   None    Shift=    0.000
 RMSDP=8.94D-07 MaxDP=1.36D-05 DE=-1.58D-07 OVMax= 2.30D-05

 Cycle   8  Pass 1  IDiag  1:
 E= -313.434408170351     Delta-E=       -0.000000006353 Rises=F Damp=F
 DIIS: error= 1.90D-06 at cycle   8 NSaved=   8.
 NSaved= 8 IEnMin= 8 EnMin= -313.434408170351     IErMin= 8 ErrMin= 1.90D-06
 ErrMax= 1.90D-06  0.00D+00 EMaxC= 1.00D-01 BMatC= 3.78D-10 BMatP= 3.71D-09
 IDIUse=1 WtCom= 1.00D+00 WtEn= 0.00D+00
 Coeff-Com: -0.175D-04 0.319D-04 0.536D-03 0.143D-02-0.623D-02-0.679D-01
 Coeff-Com:  0.109D+00 0.963D+00
 Coeff:     -0.175D-04 0.319D-04 0.536D-03 0.143D-02-0.623D-02-0.679D-01
 Coeff:      0.109D+00 0.963D+00
 Gap=     0.657 Goal=   None    Shift=    0.000
 RMSDP=2.82D-07 MaxDP=3.88D-06 DE=-6.35D-09 OVMax= 7.01D-06

 Cycle   9  Pass 1  IDiag  1:
 E= -313.434408171040     Delta-E=       -0.000000000689 Rises=F Damp=F
 DIIS: error= 4.38D-07 at cycle   9 NSaved=   9.
 NSaved= 9 IEnMin= 9 EnMin= -313.434408171040     IErMin= 9 ErrMin= 4.38D-07
 ErrMax= 4.38D-07  0.00D+00 EMaxC= 1.00D-01 BMatC= 2.37D-11 BMatP= 3.78D-10
 IDIUse=1 WtCom= 1.00D+00 WtEn= 0.00D+00
 Coeff-Com:  0.428D-05-0.201D-04-0.204D-03 0.496D-03 0.221D-02 0.144D-02
 Coeff-Com: -0.792D-01-0.734D-01 0.115D+01
 Coeff:      0.428D-05-0.201D-04-0.204D-03 0.496D-03 0.221D-02 0.144D-02
 Coeff:     -0.792D-01-0.734D-01 0.115D+01
 Gap=     0.657 Goal=   None    Shift=    0.000
 RMSDP=8.95D-08 MaxDP=1.41D-06 DE=-6.89D-10 OVMax= 2.75D-06

 Cycle  10  Pass 1  IDiag  1:
 E= -313.434408171098     Delta-E=       -0.000000000058 Rises=F Damp=F
 DIIS: error= 6.94D-08 at cycle  10 NSaved=  10.
 NSaved=10 IEnMin=10 EnMin= -313.434408171098     IErMin=10 ErrMin= 6.94D-08
 ErrMax= 6.94D-08  0.00D+00 EMaxC= 1.00D-01 BMatC= 1.08D-12 BMatP= 2.37D-11
 IDIUse=1 WtCom= 1.00D+00 WtEn= 0.00D+00
 Coeff-Com:  0.697D-06-0.757D-06-0.213D-04-0.116D-03 0.274D-03 0.415D-02
 Coeff-Com: -0.260D-02-0.558D-01-0.549D-01 0.111D+01
 Coeff:      0.697D-06-0.757D-06-0.213D-04-0.116D-03 0.274D-03 0.415D-02
 Coeff:     -0.260D-02-0.558D-01-0.549D-01 0.111D+01
 Gap=     0.657 Goal=   None    Shift=    0.000
 RMSDP=1.82D-08 MaxDP=2.67D-07 DE=-5.82D-11 OVMax= 5.31D-07

 Cycle  11  Pass 1  IDiag  1:
 E= -313.434408171103     Delta-E=       -0.000000000004 Rises=F Damp=F
 DIIS: error= 1.74D-08 at cycle  11 NSaved=  11.
 NSaved=11 IEnMin=11 EnMin= -313.434408171103     IErMin=11 ErrMin= 1.74D-08
 ErrMax= 1.74D-08  0.00D+00 EMaxC= 1.00D-01 BMatC= 6.13D-14 BMatP= 1.08D-12
 IDIUse=1 WtCom= 1.00D+00 WtEn= 0.00D+00
 Coeff-Com: -0.105D-06 0.783D-06 0.592D-05-0.298D-04-0.654D-04 0.323D-03
 Coeff-Com:  0.297D-02-0.222D-02-0.495D-01 0.991D-01 0.949D+00
 Coeff:     -0.105D-06 0.783D-06 0.592D-05-0.298D-04-0.654D-04 0.323D-03
 Coeff:      0.297D-02-0.222D-02-0.495D-01 0.991D-01 0.949D+00
 Gap=     0.657 Goal=   None    Shift=    0.000
 RMSDP=2.71D-09 MaxDP=4.66D-08 DE=-4.32D-12 OVMax= 8.78D-08

 SCF Done:  E(RHF) =  -313.434408171     A.U. after   11 cycles
            NFock= 11  Conv=0.27D-08     -V/T= 1.9989
 KE= 3.137847813016D+02 PE=-1.479006678999D+03 EE= 4.766373475431D+02
 Leave Link  502 at Thu Aug 29 20:24:45 2019, MaxMem=   280000000 cpu:               5.3 elap:               1.6
 (Enter /home/soft/g16/l601.exe)
 Copying SCF densities to generalized density rwf, IOpCl= 0 IROHF=0.

 **********************************************************************

            Population analysis using the SCF density.

 **********************************************************************

 Alpha  occ. eigenvalues --  -11.20997 -11.20997 -11.20880 -11.20859 -11.20822
 Alpha  occ. eigenvalues --  -11.20784 -11.20231 -11.20231  -1.09112  -1.06136
 Alpha  occ. eigenvalues --   -1.01351  -0.95098  -0.87953  -0.81431  -0.78745
 Alpha  occ. eigenvalues --   -0.78486  -0.65716  -0.63069  -0.59944  -0.59081
 Alpha  occ. eigenvalues --   -0.57811  -0.56729  -0.54470  -0.53194  -0.50193
 Alpha  occ. eigenvalues --   -0.49752  -0.49198  -0.47229  -0.46654  -0.45961
 Alpha  occ. eigenvalues --   -0.45810  -0.45578  -0.42858
 Alpha virt. eigenvalues --    0.22822   0.23895   0.25713   0.26335   0.27080
 Alpha virt. eigenvalues --    0.29450   0.29604   0.30289   0.32635   0.33499
 Alpha virt. eigenvalues --    0.33519   0.34466   0.34903   0.35325   0.35604
 Alpha virt. eigenvalues --    0.35872   0.37214   0.37735   0.38160   0.40397
 Alpha virt. eigenvalues --    0.41895   0.42265   0.47247   0.49521   0.49895
 Alpha virt. eigenvalues --    0.68443   0.69013   0.70404   0.75257   0.75554
 Alpha virt. eigenvalues --    0.76538   0.77113   0.78642   0.82635   0.82825
 Alpha virt. eigenvalues --    0.84751   0.86131   0.93031   0.94629   0.97231
 Alpha virt. eigenvalues --    0.97332   0.98982   1.02146   1.04455   1.09190
 Alpha virt. eigenvalues --    1.10963   1.11767   1.12252   1.14418   1.14702
 Alpha virt. eigenvalues --    1.18114   1.18440   1.19710   1.20334   1.20357
 Alpha virt. eigenvalues --    1.22232   1.22306   1.22554   1.22681   1.23192
 Alpha virt. eigenvalues --    1.23634   1.24147   1.25888   1.26118   1.27835
 Alpha virt. eigenvalues --    1.28445   1.31809   1.46663   1.52665   1.62852
 Alpha virt. eigenvalues --    1.65434   1.69242   1.73005   1.73022   1.76624
 Alpha virt. eigenvalues --    1.77862   1.85097   1.89664   1.98222   1.98569
 Alpha virt. eigenvalues --    2.09113   2.11488   2.19323   2.23116   2.25060
 Alpha virt. eigenvalues --    2.25226   2.25955   2.27931   2.28716   2.29269
 Alpha virt. eigenvalues --    2.31695   2.32566   2.36038   2.37547   2.39409
 Alpha virt. eigenvalues --    2.46082   2.49077   2.56607   2.60481   2.62400
 Alpha virt. eigenvalues --    2.64956   2.66381   2.71924   2.72863   2.73905
 Alpha virt. eigenvalues --    2.79728   2.79937   2.83086   2.92880   2.93493
 Alpha virt. eigenvalues --    3.00497   3.01373   3.08171   3.19091   3.22269
          Condensed to atoms (all electrons):
               1          2          3          4          5          6
     1  C    5.108102   0.342027  -0.055939   0.003930  -0.000079   0.000001
     2  C    0.342027   5.072360   0.354124  -0.052426   0.003882  -0.000072
     3  C   -0.055939   0.354124   5.088759   0.357242  -0.052342   0.003866
     4  C    0.003930  -0.052426   0.357242   5.079621   0.356732  -0.052342
     5  C   -0.000079   0.003882  -0.052342   0.356732   5.079621   0.357242
     6  C    0.000001  -0.000072   0.003866  -0.052342   0.357242   5.088761
     7  C   -0.000000   0.000001  -0.000072   0.003882  -0.052427   0.354124
     8  C    0.000000  -0.000000   0.000001  -0.000079   0.003930  -0.055942
     9  H    0.395856  -0.033562   0.004060  -0.000081   0.000001  -0.000000
    10  H   -0.000000   0.000000  -0.000000   0.000001  -0.000081   0.004060
    11  H   -0.000056  -0.003153  -0.041682   0.397147  -0.041662  -0.003216
    12  H    0.391720  -0.041278  -0.003785  -0.000076  -0.000001  -0.000000
    13  H    0.391719  -0.041277  -0.003784  -0.000076  -0.000001  -0.000000
    14  H   -0.041154   0.399227  -0.043250  -0.003201  -0.000064  -0.000001
    15  H   -0.041155   0.399229  -0.043253  -0.003202  -0.000064  -0.000001
    16  H   -0.002871  -0.041780   0.396422  -0.041672  -0.003220  -0.000059
    17  H   -0.002871  -0.041776   0.396419  -0.041671  -0.003220  -0.000059
    18  H   -0.000056  -0.003152  -0.041680   0.397146  -0.041661  -0.003217
    19  H   -0.000000  -0.000057  -0.003216  -0.041661   0.397148  -0.041682
    20  H   -0.000000  -0.000057  -0.003217  -0.041661   0.397146  -0.041680
    21  H    0.000000  -0.000001  -0.000059  -0.003220  -0.041673   0.396421
    22  H    0.000000  -0.000001  -0.000059  -0.003220  -0.041670   0.396420
    23  H   -0.000000   0.000000  -0.000001  -0.000063  -0.003201  -0.043252
    24  H   -0.000000   0.000000  -0.000001  -0.000064  -0.003201  -0.043250
    25  H   -0.000000  -0.000000  -0.000000  -0.000001  -0.000076  -0.003784
    26  H   -0.000000  -0.000000  -0.000000  -0.000001  -0.000076  -0.003785
               7          8          9         10         11         12
     1  C   -0.000000   0.000000   0.395856  -0.000000  -0.000056   0.391720
     2  C    0.000001  -0.000000  -0.033562   0.000000  -0.003153  -0.041278
     3  C   -0.000072   0.000001   0.004060  -0.000000  -0.041682  -0.003785
     4  C    0.003882  -0.000079  -0.000081   0.000001   0.397147  -0.000076
     5  C   -0.052427   0.003930   0.000001  -0.000081  -0.041662  -0.000001
     6  C    0.354124  -0.055942  -0.000000   0.004060  -0.003216  -0.000000
     7  C    5.072362   0.342027   0.000000  -0.033564  -0.000057  -0.000000
     8  C    0.342027   5.108104  -0.000000   0.395856  -0.000000  -0.000000
     9  H    0.000000  -0.000000   0.522173   0.000000   0.000001  -0.027154
    10  H   -0.033564   0.395856   0.000000   0.522175   0.000000  -0.000000
    11  H   -0.000057  -0.000000   0.000001   0.000000   0.561446  -0.000001
    12  H   -0.000000  -0.000000  -0.027154  -0.000000  -0.000001   0.551120
    13  H   -0.000000  -0.000000  -0.027153  -0.000000   0.000014  -0.032503
    14  H    0.000000  -0.000000  -0.002333  -0.000000   0.000231  -0.003349
    15  H    0.000000  -0.000000  -0.002331  -0.000000   0.002366   0.004558
    16  H   -0.000001   0.000000  -0.000057   0.000000  -0.002915   0.000132
    17  H   -0.000001   0.000000  -0.000057   0.000000   0.004508   0.002803
    18  H   -0.000057  -0.000000   0.000001   0.000000  -0.033132   0.000014
    19  H   -0.003153  -0.000056   0.000000   0.000001   0.004494  -0.000002
    20  H   -0.003152  -0.000056   0.000000   0.000001  -0.002892   0.000000
    21  H   -0.041778  -0.002871   0.000000  -0.000057   0.000260   0.000000
    22  H   -0.041779  -0.002872   0.000000  -0.000057   0.002271  -0.000000
    23  H    0.399229  -0.041155  -0.000000  -0.002332   0.000017  -0.000000
    24  H    0.399227  -0.041154  -0.000000  -0.002332  -0.000003  -0.000000
    25  H   -0.041277   0.391720  -0.000000  -0.027153   0.000000  -0.000000
    26  H   -0.041278   0.391720  -0.000000  -0.027153  -0.000002   0.000000
              13         14         15         16         17         18
     1  C    0.391719  -0.041154  -0.041155  -0.002871  -0.002871  -0.000056
     2  C   -0.041277   0.399227   0.399229  -0.041780  -0.041776  -0.003152
     3  C   -0.003784  -0.043250  -0.043253   0.396422   0.396419  -0.041680
     4  C   -0.000076  -0.003201  -0.003202  -0.041672  -0.041671   0.397146
     5  C   -0.000001  -0.000064  -0.000064  -0.003220  -0.003220  -0.041661
     6  C   -0.000000  -0.000001  -0.000001  -0.000059  -0.000059  -0.003217
     7  C   -0.000000   0.000000   0.000000  -0.000001  -0.000001  -0.000057
     8  C   -0.000000  -0.000000  -0.000000   0.000000   0.000000  -0.000000
     9  H   -0.027153  -0.002333  -0.002331  -0.000057  -0.000057   0.000001
    10  H   -0.000000  -0.000000  -0.000000   0.000000   0.000000   0.000000
    11  H    0.000014   0.000231   0.002366  -0.002915   0.004508  -0.033132
    12  H   -0.032503  -0.003349   0.004558   0.000132   0.002803   0.000014
    13  H    0.551120   0.004558  -0.003351   0.002803   0.000132  -0.000001
    14  H    0.004558   0.563126  -0.033743   0.004597  -0.003098   0.002365
    15  H   -0.003351  -0.033743   0.563127  -0.003096   0.004597   0.000231
    16  H    0.002803   0.004597  -0.003096   0.562839  -0.033447   0.004508
    17  H    0.000132  -0.003098   0.004597  -0.033447   0.562839  -0.002916
    18  H   -0.000001   0.002365   0.000231   0.004508  -0.002916   0.561446
    19  H    0.000000   0.000017  -0.000003   0.000260   0.002271  -0.002893
    20  H   -0.000002  -0.000003   0.000017   0.002271   0.000260   0.004494
    21  H   -0.000000  -0.000002   0.000001  -0.000003   0.000017   0.002271
    22  H    0.000000   0.000001  -0.000002   0.000017  -0.000003   0.000260
    23  H   -0.000000  -0.000000   0.000000  -0.000002   0.000001  -0.000003
    24  H   -0.000000   0.000000  -0.000000   0.000001  -0.000002   0.000017
    25  H    0.000000  -0.000000  -0.000000  -0.000000   0.000000  -0.000002
    26  H   -0.000000  -0.000000  -0.000000   0.000000  -0.000000   0.000000
              19         20         21         22         23         24
     1  C   -0.000000  -0.000000   0.000000   0.000000  -0.000000  -0.000000
     2  C   -0.000057  -0.000057  -0.000001  -0.000001   0.000000   0.000000
     3  C   -0.003216  -0.003217  -0.000059  -0.000059  -0.000001  -0.000001
     4  C   -0.041661  -0.041661  -0.003220  -0.003220  -0.000063  -0.000064
     5  C    0.397148   0.397146  -0.041673  -0.041670  -0.003201  -0.003201
     6  C   -0.041682  -0.041680   0.396421   0.396420  -0.043252  -0.043250
     7  C   -0.003153  -0.003152  -0.041778  -0.041779   0.399229   0.399227
     8  C   -0.000056  -0.000056  -0.002871  -0.002872  -0.041155  -0.041154
     9  H    0.000000   0.000000   0.000000   0.000000  -0.000000  -0.000000
    10  H    0.000001   0.000001  -0.000057  -0.000057  -0.002332  -0.002332
    11  H    0.004494  -0.002892   0.000260   0.002271   0.000017  -0.000003
    12  H   -0.000002   0.000000   0.000000  -0.000000  -0.000000  -0.000000
    13  H    0.000000  -0.000002  -0.000000   0.000000  -0.000000  -0.000000
    14  H    0.000017  -0.000003  -0.000002   0.000001  -0.000000   0.000000
    15  H   -0.000003   0.000017   0.000001  -0.000002   0.000000  -0.000000
    16  H    0.000260   0.002271  -0.000003   0.000017  -0.000002   0.000001
    17  H    0.002271   0.000260   0.000017  -0.000003   0.000001  -0.000002
    18  H   -0.002893   0.004494   0.002271   0.000260  -0.000003   0.000017
    19  H    0.561445  -0.033132  -0.002914   0.004508   0.000231   0.002365
    20  H   -0.033132   0.561445   0.004508  -0.002917   0.002365   0.000231
    21  H   -0.002914   0.004508   0.562837  -0.033447   0.004597  -0.003098
    22  H    0.004508  -0.002917  -0.033447   0.562838  -0.003096   0.004597
    23  H    0.000231   0.002365   0.004597  -0.003096   0.563125  -0.033743
    24  H    0.002365   0.000231  -0.003098   0.004597  -0.033743   0.563125
    25  H    0.000014  -0.000001   0.002803   0.000132   0.004558  -0.003350
    26  H   -0.000001   0.000014   0.000132   0.002803  -0.003350   0.004558
              25         26
     1  C   -0.000000  -0.000000
     2  C   -0.000000  -0.000000
     3  C   -0.000000  -0.000000
     4  C   -0.000001  -0.000001
     5  C   -0.000076  -0.000076
     6  C   -0.003784  -0.003785
     7  C   -0.041277  -0.041278
     8  C    0.391720   0.391720
     9  H   -0.000000  -0.000000
    10  H   -0.027153  -0.027153
    11  H    0.000000  -0.000002
    12  H   -0.000000   0.000000
    13  H    0.000000  -0.000000
    14  H   -0.000000  -0.000000
    15  H   -0.000000  -0.000000
    16  H   -0.000000   0.000000
    17  H    0.000000  -0.000000
    18  H   -0.000002   0.000000
    19  H    0.000014  -0.000001
    20  H   -0.000001   0.000014
    21  H    0.002803   0.000132
    22  H    0.000132   0.002803
    23  H    0.004558  -0.003350
    24  H   -0.003350   0.004558
    25  H    0.551119  -0.032503
    26  H   -0.032503   0.551118
 Mulliken charges:
               1
     1  C   -0.489173
     2  C   -0.312256
     3  C   -0.308554
     4  C   -0.310985
     5  C   -0.310985
     6  C   -0.308554
     7  C   -0.312256
     8  C   -0.489173
     9  H    0.170636
    10  H    0.170635
    11  H    0.156016
    12  H    0.157801
    13  H    0.157801
    14  H    0.156076
    15  H    0.156076
    16  H    0.155272
    17  H    0.155273
    18  H    0.156016
    19  H    0.156016
    20  H    0.156017
    21  H    0.155274
    22  H    0.155273
    23  H    0.156076
    24  H    0.156077
    25  H    0.157801
    26  H    0.157801
 Sum of Mulliken charges =  -0.00000
 Mulliken charges with hydrogens summed into heavy atoms:
               1
     1  C   -0.002935
     2  C   -0.000104
     3  C    0.001991
     4  C    0.001047
     5  C    0.001047
     6  C    0.001992
     7  C   -0.000104
     8  C   -0.002935
 Electronic spatial extent (au):  <R**2>=           8590.3130
 Charge=             -0.0000 electrons
 Dipole moment (field-independent basis, Debye):
    X=             -0.0000    Y=              0.0000    Z=             -0.0000  Tot=              0.0000
 Quadrupole moment (field-independent basis, Debye-Ang):
   XX=            -57.0402   YY=            -56.1425   ZZ=            -54.5415
   XY=             -0.7224   XZ=              0.0001   YZ=              0.0001
 Traceless Quadrupole moment (field-independent basis, Debye-Ang):
   XX=             -1.1321   YY=             -0.2345   ZZ=              1.3666
   XY=             -0.7224   XZ=              0.0001   YZ=              0.0001
 Octapole moment (field-independent basis, Debye-Ang**2):
  XXX=            874.8327  YYY=             -2.1077  ZZZ=              0.0043  XYY=            287.0033
  XXY=              6.6725  XXZ=             -0.0008  XZZ=            278.8361  YZZ=             -0.6825
  YYZ=              0.0011  XYZ=             -0.0009
 Hexadecapole moment (field-independent basis, Debye-Ang**3):
 XXXX=         -12101.7229 YYYY=           -193.6303 ZZZZ=           -110.5454 XXXY=           -138.4026
 XXXZ=             -0.0042 YYYX=            -42.5460 YYYZ=              0.0025 ZZZX=             -0.0321
 ZZZY=              0.0012 XXYY=          -2023.2303 XXZZ=          -1961.4110 YYZZ=            -45.8256
 XXYZ=              0.0080 YYXZ=             -0.0095 ZZXY=            -11.8855
 N-N= 3.751501419828D+02 E-N=-1.479006679362D+03  KE= 3.137847813016D+02
 No NMR shielding tensors so no spin-rotation constants.
 Leave Link  601 at Thu Aug 29 20:24:45 2019, MaxMem=   280000000 cpu:               0.6 elap:               0.1
 (Enter /home/soft/g16/l9999.exe)
 1\1\GINC-NODE18\SP\RHF\6-31G(d)\C8H18\ROOT\29-Aug-2019\0\\#p hf/6-31g(
 d) 5d 7f nosymm\\Atom number=26\\0,1\C,0,-0.638038,0.422037,0.00011\C,
 0,-1.918178,-0.415658,-0.000065\C,0,-3.194218,0.428261,-0.000059\C,0,-
 4.474353,-0.409444,-0.000063\C,0,-5.750393,0.434477,-0.000044\C,0,-7.0
 30525,-0.40323,0.00003\C,0,-8.306562,0.440692,-0.00019\C,0,-9.586689,-
 0.397022,0.000053\H,0,0.25443193,-0.16821497,-0.00007115\H,0,-10.47915
 97,0.19322882,-0.00009178\H,0,-4.475936,-1.063266,0.870548\H,0,-0.6364
 65,1.076076,-0.870338\H,0,-0.636417,1.075615,0.870904\H,0,-1.919713,-1
 .069374,-0.870755\H,0,-1.919821,-1.069558,0.870487\H,0,-3.192634,1.082
 072,0.87056\H,0,-3.192634,1.082069,-0.870681\H,0,-4.475948,-1.063238,-
 0.870696\H,0,-5.748833,1.088263,-0.870682\H,0,-5.748776,1.088306,0.870
 562\H,0,-7.032066,-1.05719,-0.870476\H,0,-7.032158,-1.056883,0.870768\
 H,0,-8.304973,1.094747,0.870246\H,0,-8.304988,1.094252,-0.870997\H,0,-
 9.588293,-1.051059,-0.870396\H,0,-9.588266,-1.050596,0.87085\\Version=
 ES64L-G16RevA.03\HF=-313.4344082\RMSD=2.707e-09\Dipole=-0.0000029,0.00
 00013,-0.0000088\Quadrupole=-0.841694,-0.1743246,1.0160186,-0.5370834,
 0.0000836,0.000071\PG=C01 [X(C8H18)]\\@


 IF AT FIRST YOU DON'T SUCCEED, TRY, TRY AGAIN.
 THEN GIVE UP;
 THERE'S NO USE BEING A DAMN FOOL ABOUT IT.

                                 -- W. C. FIELDS
 Job cpu time:       0 days  0 hours  0 minutes 12.7 seconds.
 Elapsed time:       0 days  0 hours  0 minutes  3.0 seconds.
 File lengths (MBytes):  RWF=     72 Int=      0 D2E=      0 Chk=      8 Scr=      8
 Normal termination of Gaussian 16 at Thu Aug 29 20:24:45 2019.
