 Entering Gaussian System, Link 0=g16
 Input=32ane_4.gjf
 Output=32ane_4.log
 Initial command:
 /home/soft/g16/l1.exe "/tmp/liwei01/gaussian/liaokang/Gau-199615.inp" -scrdir="/tmp/liwei01/gaussian/liaokang/"
 Entering Link 1 = /home/soft/g16/l1.exe PID=    199619.
  
 Copyright (c) 1988,1990,1992,1993,1995,1998,2003,2009,2016,
            Gaussian, Inc.  All Rights Reserved.
  
 This is part of the Gaussian(R) 16 program.  It is based on
 the Gaussian(R) 09 system (copyright 2009, Gaussian, Inc.),
 the Gaussian(R) 03 system (copyright 2003, Gaussian, Inc.),
 the Gaussian(R) 98 system (copyright 1998, Gaussian, Inc.),
 the Gaussian(R) 94 system (copyright 1995, Gaussian, Inc.),
 the Gaussian 92(TM) system (copyright 1992, Gaussian, Inc.),
 the Gaussian 90(TM) system (copyright 1990, Gaussian, Inc.),
 the Gaussian 88(TM) system (copyright 1988, Gaussian, Inc.),
 the Gaussian 86(TM) system (copyright 1986, Carnegie Mellon
 University), and the Gaussian 82(TM) system (copyright 1983,
 Carnegie Mellon University). Gaussian is a federally registered
 trademark of Gaussian, Inc.
  
 This software contains proprietary and confidential information,
 including trade secrets, belonging to Gaussian, Inc.
  
 This software is provided under written license and may be
 used, copied, transmitted, or stored only in accord with that
 written license.
  
 The following legend is applicable only to US Government
 contracts under FAR:
  
                    RESTRICTED RIGHTS LEGEND
  
 Use, reproduction and disclosure by the US Government is
 subject to restrictions as set forth in subparagraphs (a)
 and (c) of the Commercial Computer Software - Restricted
 Rights clause in FAR 52.227-19.
  
 Gaussian, Inc.
 340 Quinnipiac St., Bldg. 40, Wallingford CT 06492
  
  
 ---------------------------------------------------------------
 Warning -- This program may not be used in any manner that
 competes with the business of Gaussian, Inc. or will provide
 assistance to any competitor of Gaussian, Inc.  The licensee
 of this program is prohibited from giving any competitor of
 Gaussian, Inc. access to this program.  By using this program,
 the user acknowledges that Gaussian, Inc. is engaged in the
 business of creating and licensing software in the field of
 computational chemistry and represents and warrants to the
 licensee that it is not a competitor of Gaussian, Inc. and that
 it will not use this program in any manner prohibited above.
 ---------------------------------------------------------------
  

 Cite this work as:
 Gaussian 16, Revision A.03,
 M. J. Frisch, G. W. Trucks, H. B. Schlegel, G. E. Scuseria, 
 M. A. Robb, J. R. Cheeseman, G. Scalmani, V. Barone, 
 G. A. Petersson, H. Nakatsuji, X. Li, M. Caricato, A. V. Marenich, 
 J. Bloino, B. G. Janesko, R. Gomperts, B. Mennucci, H. P. Hratchian, 
 J. V. Ortiz, A. F. Izmaylov, J. L. Sonnenberg, D. Williams-Young, 
 F. Ding, F. Lipparini, F. Egidi, J. Goings, B. Peng, A. Petrone, 
 T. Henderson, D. Ranasinghe, V. G. Zakrzewski, J. Gao, N. Rega, 
 G. Zheng, W. Liang, M. Hada, M. Ehara, K. Toyota, R. Fukuda, 
 J. Hasegawa, M. Ishida, T. Nakajima, Y. Honda, O. Kitao, H. Nakai, 
 T. Vreven, K. Throssell, J. A. Montgomery, Jr., J. E. Peralta, 
 F. Ogliaro, M. J. Bearpark, J. J. Heyd, E. N. Brothers, K. N. Kudin, 
 V. N. Staroverov, T. A. Keith, R. Kobayashi, J. Normand, 
 K. Raghavachari, A. P. Rendell, J. C. Burant, S. S. Iyengar, 
 J. Tomasi, M. Cossi, J. M. Millam, M. Klene, C. Adamo, R. Cammi, 
 J. W. Ochterski, R. L. Martin, K. Morokuma, O. Farkas, 
 J. B. Foresman, and D. J. Fox, Gaussian, Inc., Wallingford CT, 2016.
 
 ******************************************
 Gaussian 16:  ES64L-G16RevA.03 25-Dec-2016
                29-Aug-2019 
 ******************************************
 %chk=32ane_4.chk
 %nproc=6
 Will use up to    6 processors via shared memory.
 ---------------------------
 #p hf/6-31g(d) 5d 7f nosymm
 ---------------------------
 1/38=1,172=1/1;
 2/12=2,15=1,17=6,18=5,40=1/2;
 3/5=1,6=6,7=1,8=11,11=9,25=1,30=1/1,2,3;
 4//1;
 5/5=2,38=5/2;
 6/7=2,8=2,9=2,10=2,28=1/1;
 99/5=1,9=1/99;
 Leave Link    1 at Thu Aug 29 20:24:32 2019, MaxMem=           0 cpu:               0.4 elap:               0.1
 (Enter /home/soft/g16/l101.exe)
 --------------
 Atom number=38
 --------------
 Symbolic Z-matrix:
 Charge =  0 Multiplicity = 1
 c                     4.47433   0.40955   0.00013 
 c                     3.19418  -0.42814  -0.00016 
 c                     1.91815   0.4158    0.00012 
 c                     0.638    -0.4219   -0.00015 
 c                    -0.63804   0.42204   0.00011 
 c                    -1.91818  -0.41566  -0.00007 
 c                    -3.19422   0.42826  -0.00006 
 c                    -4.47435  -0.40944  -0.00006 
 c                    -5.75039   0.43448  -0.00004 
 c                    -7.03052  -0.40323   0.00003 
 c                    -8.30656   0.44069  -0.00019 
 c                    -9.58669  -0.39702   0.00005 
 h                     5.36679  -0.18071  -0.00007 
 h                    -10.47916   0.19323  -0.00009 
 h                    -4.47594  -1.06327   0.87055 
 h                     0.6364   -1.07597   0.87027 
 h                     4.47593   1.06364  -0.87028 
 h                     4.47593   1.06306   0.87097 
 h                     3.19258  -1.08165  -0.871 
 h                     3.19258  -1.08224   0.87025 
 h                     1.91974   1.06932   0.87096 
 h                     1.91974   1.06989  -0.87029 
 h                     0.63641  -1.07542  -0.87098 
 h                    -0.63647   1.07608  -0.87034 
 h                    -0.63642   1.07561   0.8709 
 h                    -1.91971  -1.06937  -0.87076 
 h                    -1.91982  -1.06956   0.87049 
 h                    -3.19263   1.08207   0.87056 
 h                    -3.19263   1.08207  -0.87068 
 h                    -4.47595  -1.06324  -0.8707 
 h                    -5.74883   1.08826  -0.87068 
 h                    -5.74878   1.08831   0.87056 
 h                    -7.03207  -1.05719  -0.87048 
 h                    -7.03216  -1.05688   0.87077 
 h                    -8.30497   1.09475   0.87025 
 h                    -8.30499   1.09425  -0.871 
 h                    -9.58829  -1.05106  -0.8704 
 h                    -9.58827  -1.0506    0.87085 
 
 ITRead=  0  0  0  0  0  0  0  0  0  0  0  0  0  0  0  0  0  0  0  0
 ITRead=  0  0  0  0  0  0  0  0  0  0  0  0  0  0  0  0  0  0
 MicOpt= -1 -1 -1 -1 -1 -1 -1 -1 -1 -1 -1 -1 -1 -1 -1 -1 -1 -1 -1 -1
 MicOpt= -1 -1 -1 -1 -1 -1 -1 -1 -1 -1 -1 -1 -1 -1 -1 -1 -1 -1
 NAtoms=     38 NQM=       38 NQMF=       0 NMMI=      0 NMMIF=      0
                NMic=       0 NMicF=      0.
                    Isotopes and Nuclear Properties:
 (Nuclear quadrupole moments (NQMom) in fm**2, nuclear magnetic moments (NMagM)
  in nuclear magnetons)

  Atom         1           2           3           4           5           6           7           8           9          10
 IAtWgt=          12          12          12          12          12          12          12          12          12          12
 AtmWgt=  12.0000000  12.0000000  12.0000000  12.0000000  12.0000000  12.0000000  12.0000000  12.0000000  12.0000000  12.0000000
 NucSpn=           0           0           0           0           0           0           0           0           0           0
 AtZEff=  -0.0000000  -0.0000000  -0.0000000  -0.0000000  -0.0000000  -0.0000000  -0.0000000  -0.0000000  -0.0000000  -0.0000000
 NQMom=    0.0000000   0.0000000   0.0000000   0.0000000   0.0000000   0.0000000   0.0000000   0.0000000   0.0000000   0.0000000
 NMagM=    0.0000000   0.0000000   0.0000000   0.0000000   0.0000000   0.0000000   0.0000000   0.0000000   0.0000000   0.0000000
 AtZNuc=   6.0000000   6.0000000   6.0000000   6.0000000   6.0000000   6.0000000   6.0000000   6.0000000   6.0000000   6.0000000

  Atom        11          12          13          14          15          16          17          18          19          20
 IAtWgt=          12          12           1           1           1           1           1           1           1           1
 AtmWgt=  12.0000000  12.0000000   1.0078250   1.0078250   1.0078250   1.0078250   1.0078250   1.0078250   1.0078250   1.0078250
 NucSpn=           0           0           1           1           1           1           1           1           1           1
 AtZEff=  -0.0000000  -0.0000000  -0.0000000  -0.0000000  -0.0000000  -0.0000000  -0.0000000  -0.0000000  -0.0000000  -0.0000000
 NQMom=    0.0000000   0.0000000   0.0000000   0.0000000   0.0000000   0.0000000   0.0000000   0.0000000   0.0000000   0.0000000
 NMagM=    0.0000000   0.0000000   2.7928460   2.7928460   2.7928460   2.7928460   2.7928460   2.7928460   2.7928460   2.7928460
 AtZNuc=   6.0000000   6.0000000   1.0000000   1.0000000   1.0000000   1.0000000   1.0000000   1.0000000   1.0000000   1.0000000

  Atom        21          22          23          24          25          26          27          28          29          30
 IAtWgt=           1           1           1           1           1           1           1           1           1           1
 AtmWgt=   1.0078250   1.0078250   1.0078250   1.0078250   1.0078250   1.0078250   1.0078250   1.0078250   1.0078250   1.0078250
 NucSpn=           1           1           1           1           1           1           1           1           1           1
 AtZEff=  -0.0000000  -0.0000000  -0.0000000  -0.0000000  -0.0000000  -0.0000000  -0.0000000  -0.0000000  -0.0000000  -0.0000000
 NQMom=    0.0000000   0.0000000   0.0000000   0.0000000   0.0000000   0.0000000   0.0000000   0.0000000   0.0000000   0.0000000
 NMagM=    2.7928460   2.7928460   2.7928460   2.7928460   2.7928460   2.7928460   2.7928460   2.7928460   2.7928460   2.7928460
 AtZNuc=   1.0000000   1.0000000   1.0000000   1.0000000   1.0000000   1.0000000   1.0000000   1.0000000   1.0000000   1.0000000

  Atom        31          32          33          34          35          36          37          38
 IAtWgt=           1           1           1           1           1           1           1           1
 AtmWgt=   1.0078250   1.0078250   1.0078250   1.0078250   1.0078250   1.0078250   1.0078250   1.0078250
 NucSpn=           1           1           1           1           1           1           1           1
 AtZEff=  -0.0000000  -0.0000000  -0.0000000  -0.0000000  -0.0000000  -0.0000000  -0.0000000  -0.0000000
 NQMom=    0.0000000   0.0000000   0.0000000   0.0000000   0.0000000   0.0000000   0.0000000   0.0000000
 NMagM=    2.7928460   2.7928460   2.7928460   2.7928460   2.7928460   2.7928460   2.7928460   2.7928460
 AtZNuc=   1.0000000   1.0000000   1.0000000   1.0000000   1.0000000   1.0000000   1.0000000   1.0000000
 Leave Link  101 at Thu Aug 29 20:24:32 2019, MaxMem=   280000000 cpu:               0.9 elap:               0.2
 (Enter /home/soft/g16/l202.exe)
                          Input orientation:                          
 ---------------------------------------------------------------------
 Center     Atomic      Atomic             Coordinates (Angstroms)
 Number     Number       Type             X           Y           Z
 ---------------------------------------------------------------------
      1          6           0        4.474329    0.409546    0.000126
      2          6           0        3.194180   -0.428143   -0.000156
      3          6           0        1.918145    0.415800    0.000124
      4          6           0        0.638000   -0.421895   -0.000149
      5          6           0       -0.638038    0.422037    0.000110
      6          6           0       -1.918178   -0.415658   -0.000065
      7          6           0       -3.194218    0.428261   -0.000059
      8          6           0       -4.474353   -0.409444   -0.000063
      9          6           0       -5.750393    0.434477   -0.000044
     10          6           0       -7.030525   -0.403230    0.000030
     11          6           0       -8.306562    0.440692   -0.000190
     12          6           0       -9.586689   -0.397022    0.000053
     13          1           0        5.366794   -0.180713   -0.000071
     14          1           0      -10.479160    0.193229   -0.000092
     15          1           0       -4.475936   -1.063266    0.870548
     16          1           0        0.636403   -1.075973    0.870268
     17          1           0        4.475930    1.063640   -0.870278
     18          1           0        4.475929    1.063056    0.870968
     19          1           0        3.192581   -1.081654   -0.870997
     20          1           0        3.192579   -1.082235    0.870250
     21          1           0        1.919744    1.069316    0.870962
     22          1           0        1.919742    1.069887   -0.870286
     23          1           0        0.636410   -1.075422   -0.870979
     24          1           0       -0.636465    1.076076   -0.870338
     25          1           0       -0.636417    1.075615    0.870904
     26          1           0       -1.919713   -1.069374   -0.870755
     27          1           0       -1.919821   -1.069558    0.870487
     28          1           0       -3.192634    1.082072    0.870560
     29          1           0       -3.192634    1.082069   -0.870681
     30          1           0       -4.475948   -1.063238   -0.870696
     31          1           0       -5.748833    1.088263   -0.870682
     32          1           0       -5.748776    1.088306    0.870562
     33          1           0       -7.032066   -1.057190   -0.870476
     34          1           0       -7.032158   -1.056883    0.870768
     35          1           0       -8.304973    1.094747    0.870246
     36          1           0       -8.304988    1.094252   -0.870997
     37          1           0       -9.588293   -1.051059   -0.870396
     38          1           0       -9.588266   -1.050596    0.870850
 ---------------------------------------------------------------------
                    Distance matrix (angstroms):
                    1          2          3          4          5
     1  C    0.000000
     2  C    1.529871   0.000000
     3  C    2.556192   1.529871   0.000000
     4  C    3.925394   2.556188   1.529871   0.000000
     5  C    5.112382   3.925392   2.556191   1.529867   0.000000
     6  C    6.445549   5.112373   3.925391   2.556186   1.529866
     7  C    7.668570   6.445546   5.112378   3.925387   2.556188
     8  C    8.986081   7.668556   6.445546   5.112368   3.925388
     9  C   10.224752   8.986073   7.668561   6.445536   5.112370
    10  C   11.533528  10.224735   8.986073   7.668548   6.445538
    11  C   12.780929  11.533514  10.224737   8.986058   7.668547
    12  C   14.084132  12.780907  11.533511  10.224719   8.986057
    13  H    1.070000   2.186658   3.499858   4.734941   6.035008
    14  H   14.955053  13.687451  12.399302  11.134164   9.843781
    15  H    9.112302   7.745462   6.620389   5.227027   4.206334
    16  H    4.206375   2.778407   2.150674   1.088782   2.150676
    17  H    1.088781   2.150677   2.778410   4.206382   5.227035
    18  H    1.088781   2.150677   2.778411   4.206379   5.227041
    19  H    2.150677   1.088781   2.150676   2.778406   4.206371
    20  H    2.150676   1.088782   2.150677   2.778402   4.206377
    21  H    2.778409   2.150678   1.088781   2.150677   2.778417
    22  H    2.778414   2.150677   1.088782   2.150678   2.778406
    23  H    4.206373   2.778397   2.150676   1.088781   2.150674
    24  H    5.227063   4.206392   2.778435   2.150676   1.088783
    25  H    5.227009   4.206365   2.778381   2.150676   1.088783
    26  H    6.620378   5.226951   4.206344   2.778323   2.150675
    27  H    6.620456   5.227087   4.206400   2.778475   2.150670
    28  H    7.745468   6.620445   5.227011   4.206401   2.778361
    29  H    7.745509   6.620419   5.227072   4.206363   2.778467
    30  H    9.112348   7.745453   6.620446   5.227010   4.206412
    31  H   10.282607   9.112342   7.745519   6.620426   5.227080
    32  H   10.282522   9.112312   7.745425   6.620404   5.226973
    33  H   11.632127  10.282474   9.112295   7.745385   6.620395
    34  H   11.632183  10.282598   9.112340   7.745517   6.620424
    35  H   12.827204  11.632167  10.282520   9.112330   7.745422
    36  H   12.827261  11.632150  10.282587   9.112306   7.745503
    37  H   14.165045  12.827196  11.632179  10.282521   9.112346
    38  H   14.164983  12.827199  11.632110  10.282530   9.112267
                    6          7          8          9         10
     6  C    0.000000
     7  C    1.529862   0.000000
     8  C    2.556183   1.529868   0.000000
     9  C    3.925379   2.556183   1.529863   0.000000
    10  C    5.112362   3.925383   2.556180   1.529866   0.000000
    11  C    6.445524   5.112359   3.925373   2.556177   1.529861
    12  C    7.668534   6.445524   5.112351   3.925374   2.556172
    13  H    7.288760   8.582644   9.843805  11.134196  12.399316
    14  H    8.582607   7.288732   6.034975   4.734917   3.499835
    15  H    2.778397   2.150677   1.088783   2.150676   2.778376
    16  H    2.778377   4.206405   5.227003   6.620428   7.745430
    17  H    6.620439   7.745460   9.112344  10.282550  11.632182
    18  H    6.620415   7.745502   9.112327  10.282579  11.632154
    19  H    5.227038   6.620391   7.745468   9.112299  10.282550
    20  H    5.227008   6.620439   7.745446   9.112331  10.282518
    21  H    4.206362   5.227068   6.620415   7.745494   9.112312
    22  H    4.206395   5.227004   6.620435   7.745453   9.112343
    23  H    2.778435   4.206337   5.227037   6.620391   7.745476
    24  H    2.150682   2.778336   4.206368   5.226980   6.620415
    25  H    2.150673   2.778487   4.206392   5.227079   6.620425
    26  H    1.088783   2.150671   2.778452   4.206402   5.227085
    27  H    1.088783   2.150674   2.778352   4.206332   5.226948
    28  H    2.150679   1.088783   2.150676   2.778392   4.206347
    29  H    2.150673   1.088784   2.150672   2.778402   4.206383
    30  H    2.778407   2.150677   1.088784   2.150673   2.778424
    31  H    4.206384   2.778425   2.150675   1.088783   2.150680
    32  H    4.206350   2.778382   2.150674   1.088784   2.150671
    33  H    5.226952   4.206337   2.778325   2.150676   1.088782
    34  H    5.227075   4.206397   2.778469   2.150672   1.088784
    35  H    6.620417   5.226993   4.206385   2.778352   2.150681
    36  H    6.620400   5.227050   4.206351   2.778456   2.150673
    37  H    7.745442   6.620428   5.227000   4.206401   2.778399
    38  H    7.745443   6.620374   5.227014   4.206325   2.778390
                   11         12         13         14         15
    11  C    0.000000
    12  C    1.529866   0.000000
    13  H   13.687469  14.955048   0.000000
    14  H    2.186646   1.070000  15.850366   0.000000
    15  H    4.206396   5.226991   9.920495   6.194795   0.000000
    16  H    9.112332  10.282503   4.892400  11.221592   5.112355
    17  H   12.827206  14.165037   1.760487  15.005651   9.364300
    18  H   12.827249  14.165011   1.760486  15.005666   9.200931
    19  H   11.632116  12.827205   2.509464  13.758644   7.863808
    20  H   11.632163  12.827176   2.509465  13.758661   7.668538
    21  H   10.282578  11.632138   3.768743  12.460300   6.741856
    22  H   10.282521  11.632165   3.768746  12.460278   6.963156
    23  H    9.112279  10.282542   4.892394  11.221578   5.400847
    24  H    7.745402   9.112305   6.194837   9.920453   4.727474
    25  H    7.745518   9.112322   6.194796   9.920525   4.395079
    26  H    6.620425   7.745507   7.391955   8.695766   3.092968
    27  H    6.620377   7.745374   7.392069   8.695678   2.556123
    28  H    5.227029   6.620381   8.695771   7.391991   2.499868
    29  H    5.226986   6.620410   8.695769   7.391983   3.046507
    30  H    4.206327   5.227018   9.920505   6.194773   1.741244
    31  H    2.778324   4.206351  11.221650   4.892341   3.046510
    32  H    2.778468   4.206372  11.221600   4.892416   2.499877
    33  H    2.150672   2.778442  12.460239   3.768763   3.092734
    34  H    2.150675   2.778343  12.460339   3.768686   2.556230
    35  H    1.088783   2.150676  13.758687   2.509444   4.395287
    36  H    1.088783   2.150671  13.758695   2.509450   4.727526
    37  H    2.150678   1.088783  15.005652   1.760490   5.400669
    38  H    2.150678   1.088783  15.005633   1.760492   5.112346
                   16         17         18         19         20
    16  H    0.000000
    17  H    4.727516   0.000000
    18  H    4.395157   1.741246   0.000000
    19  H    3.092908   2.499854   3.046507   0.000000
    20  H    2.556184   3.046507   2.499852   1.741247   0.000000
    21  H    2.499846   3.092901   2.556193   3.046507   2.499856
    22  H    3.046507   2.556196   3.092912   2.499850   3.046508
    23  H    1.741247   4.395168   4.727512   2.556179   3.092883
    24  H    3.046509   5.112410   5.400823   4.395156   4.727529
    25  H    2.499880   5.400736   5.112361   4.727500   4.395171
    26  H    3.092723   6.741958   6.963124   5.112309   5.400629
    27  H    2.556232   6.963220   6.741933   5.400886   5.112416
    28  H    4.395302   7.863697   7.668587   6.963167   6.742045
    29  H    4.727534   7.668586   7.863877   6.741859   6.963189
    30  H    5.400671   9.201072   9.364327   7.668551   7.863686
    31  H    6.963193  10.224793  10.372065   9.200947   9.364334
    32  H    6.742004  10.371873  10.224736   9.364274   9.201037
    33  H    7.863584  11.701790  11.830554  10.224676  10.371794
    34  H    7.668585  11.830636  11.701718  10.372061  10.224768
    35  H    9.201099  12.898910  12.780941  11.830570  11.701835
    36  H    9.364313  12.780955  12.899118  11.701652  11.830599
    37  H   10.371834  14.222318  14.328439  12.780911  12.898896
    38  H   10.224701  14.328403  14.222134  12.899033  12.780884
                   21         22         23         24         25
    21  H    0.000000
    22  H    1.741248   0.000000
    23  H    3.046507   2.499858   0.000000
    24  H    3.092956   2.556214   2.499831   0.000000
    25  H    2.556169   3.092851   3.046507   1.741242   0.000000
    26  H    4.727473   4.395208   2.556130   2.499936   3.046507
    27  H    4.395116   4.727553   3.093066   3.046509   2.499779
    28  H    5.112394   5.400656   4.727506   3.092695   2.556225
    29  H    5.400916   5.112391   4.395036   2.556176   3.093122
    30  H    6.963191   6.742038   5.112373   4.395258   4.727564
    31  H    7.863889   7.668597   6.741874   5.112383   5.400933
    32  H    7.668544   7.863654   6.963138   5.400612   5.112375
    33  H    9.364269   9.201050   7.668498   6.741998   6.963159
    34  H    9.200939   9.364344   7.863902   6.963178   6.741888
    35  H   10.224749  10.371830   9.364285   7.863587   7.668580
    36  H   10.372087  10.224759   9.200874   7.668545   7.863940
    37  H   11.830606  11.701849  10.224732   9.201083   9.364345
    38  H   11.701638  11.830564  10.372010   9.364252   9.200890
                   26         27         28         29         30
    26  H    0.000000
    27  H    1.741242   0.000000
    28  H    3.046510   2.499913   0.000000
    29  H    2.499807   3.046509   1.741241   0.000000
    30  H    2.556242   3.092821   3.046510   2.499847   0.000000
    31  H    4.395174   4.727493   3.092914   2.556207   2.499839
    32  H    4.727525   4.395142   2.556150   3.092867   3.046508
    33  H    5.112368   5.400570   4.727461   4.395187   2.556125
    34  H    5.400940   5.112353   4.395119   4.727547   3.093048
    35  H    6.963192   6.741987   5.112355   5.400648   4.727495
    36  H    6.741885   6.963131   5.400864   5.112369   4.395032
    37  H    7.668602   7.863617   6.963162   6.742009   5.112360
    38  H    7.863857   7.668468   6.741838   6.963139   5.400827
                   31         32         33         34         35
    31  H    0.000000
    32  H    1.741244   0.000000
    33  H    2.499931   3.046506   0.000000
    34  H    3.046510   2.499781   1.741244   0.000000
    35  H    3.092689   2.556205   3.046512   2.499914   0.000000
    36  H    2.556162   3.093102   2.499807   3.046510   1.741243
    37  H    4.395242   4.727548   2.556234   3.092816   3.046511
    38  H    4.727462   4.395064   3.092963   2.556116   2.499868
                   36         37         38
    36  H    0.000000
    37  H    2.499846   0.000000
    38  H    3.046507   1.741246   0.000000
 Symmetry turned off by external request.
 Stoichiometry    C12H26
 Framework group  C1[X(C12H26)]
 Deg. of freedom   108
 Full point group                 C1      NOp   1
 Rotational constants (GHZ):           7.1254382           0.1477861           0.1463203
 Leave Link  202 at Thu Aug 29 20:24:32 2019, MaxMem=   280000000 cpu:               0.1 elap:               0.0
 (Enter /home/soft/g16/l301.exe)
 Standard basis: 6-31G(d) (5D, 7F)
 Ernie: Thresh=  0.10000D-02 Tol=  0.10000D-05 Strict=F.
   220 basis functions,   440 primitive gaussians,   232 cartesian basis functions
    49 alpha electrons       49 beta electrons
       nuclear repulsion energy       672.4799873501 Hartrees.
 IExCor=    0 DFT=F Ex=HF Corr=None ExCW=0 ScaHFX=  1.000000
 ScaDFX=  1.000000  1.000000  1.000000  1.000000 ScalE2=  1.000000  1.000000
 IRadAn=      5 IRanWt=     -1 IRanGd=            0 ICorTp=0 IEmpDi=  4
 NAtoms=   38 NActive=   38 NUniq=   38 SFac= 1.00D+00 NAtFMM=   60 NAOKFM=F Big=F
 Integral buffers will be    131072 words long.
 Raffenetti 1 integral format.
 Two-electron integral symmetry is turned off.
 Leave Link  301 at Thu Aug 29 20:24:32 2019, MaxMem=   280000000 cpu:               0.6 elap:               0.1
 (Enter /home/soft/g16/l302.exe)
 NPDir=0 NMtPBC=     1 NCelOv=     1 NCel=       1 NClECP=     1 NCelD=      1
         NCelK=      1 NCelE2=     1 NClLst=     1 CellRange=     0.0.
 One-electron integrals computed using PRISM.
 NBasis=   220 RedAO= T EigKep=  2.75D-03  NBF=   220
 NBsUse=   220 1.00D-06 EigRej= -1.00D+00 NBFU=   220
 Leave Link  302 at Thu Aug 29 20:24:33 2019, MaxMem=   280000000 cpu:               1.0 elap:               0.2
 (Enter /home/soft/g16/l303.exe)
 DipDrv:  MaxL=1.
 Leave Link  303 at Thu Aug 29 20:24:33 2019, MaxMem=   280000000 cpu:               0.2 elap:               0.1
 (Enter /home/soft/g16/l401.exe)
 ExpMin= 1.61D-01 ExpMax= 3.05D+03 ExpMxC= 4.57D+02 IAcc=3 IRadAn=         5 AccDes= 0.00D+00
 Harris functional with IExCor=  205 and IRadAn=       5 diagonalized for initial guess.
 HarFok:  IExCor=  205 AccDes= 0.00D+00 IRadAn=         5 IDoV= 1 UseB2=F ITyADJ=14
 ICtDFT=  3500011 ScaDFX=  1.000000  1.000000  1.000000  1.000000
 FoFCou: FMM=F IPFlag=           0 FMFlag=      100000 FMFlg1=           0
         NFxFlg=           0 DoJE=T BraDBF=F KetDBF=T FulRan=T
         wScrn=  0.000000 ICntrl=       500 IOpCl=  0 I1Cent=   200000004 NGrid=           0
         NMat0=    1 NMatS0=      1 NMatT0=    0 NMatD0=    1 NMtDS0=    0 NMtDT0=    0
 Symmetry not used in FoFCou.
 Harris En= -470.840279870132    
 JPrj=0 DoOrth=F DoCkMO=F.
 Leave Link  401 at Thu Aug 29 20:24:34 2019, MaxMem=   280000000 cpu:               7.7 elap:               1.3
 (Enter /home/soft/g16/l502.exe)
 Two-electron integral symmetry not used.
 Closed shell SCF:
 Using DIIS extrapolation, IDIIS=  1040.
 NGot=   280000000 LenX=   279888450 LenY=   279834185
 Requested convergence on RMS density matrix=1.00D-08 within 128 cycles.
 Requested convergence on MAX density matrix=1.00D-06.
 Requested convergence on             energy=1.00D-06.
 No special actions if energy rises.
 Fock matrices will be formed incrementally for  20 cycles.
 Integral accuracy reduced to 1.0D-05 until final iterations.

 Cycle   1  Pass 0  IDiag  1:
 FoFJK:  IHMeth= 1 ICntrl=       0 DoSepK=F KAlg= 0 I1Cent=           0 FoldK=F
 IRaf= 710000000 NMat=       1 IRICut=       1 DoRegI=T DoRafI=F ISym2E= 0 IDoP0=0 IntGTp=1.
 FoFCou: FMM=F IPFlag=           0 FMFlag=      100000 FMFlg1=           0
         NFxFlg=           0 DoJE=F BraDBF=F KetDBF=F FulRan=T
         wScrn=  0.000000 ICntrl=         0 IOpCl=  0 I1Cent=           0 NGrid=           0
         NMat0=    1 NMatS0=      1 NMatT0=    0 NMatD0=    1 NMtDS0=    0 NMtDT0=    0
 Symmetry not used in FoFCou.
 E= -468.801540042878    
 DIIS: error= 6.54D-02 at cycle   1 NSaved=   1.
 NSaved= 1 IEnMin= 1 EnMin= -468.801540042878     IErMin= 1 ErrMin= 6.54D-02
 ErrMax= 6.54D-02  0.00D+00 EMaxC= 1.00D-01 BMatC= 7.66D-01 BMatP= 7.66D-01
 IDIUse=3 WtCom= 3.46D-01 WtEn= 6.54D-01
 Coeff-Com:  0.100D+01
 Coeff-En:   0.100D+01
 Coeff:      0.100D+01
 Gap=     0.639 Goal=   None    Shift=    0.000
 GapD=    0.639 DampG=2.000 DampE=0.500 DampFc=1.0000 IDamp=-1.
 RMSDP=4.84D-03 MaxDP=1.22D-01              OVMax= 1.34D-01

 Cycle   2  Pass 0  IDiag  1:
 RMSU=  4.70D-03    CP:  9.46D-01
 E= -469.455436993890     Delta-E=       -0.653896951013 Rises=F Damp=F
 DIIS: error= 2.31D-02 at cycle   2 NSaved=   2.
 NSaved= 2 IEnMin= 2 EnMin= -469.455436993890     IErMin= 2 ErrMin= 2.31D-02
 ErrMax= 2.31D-02  0.00D+00 EMaxC= 1.00D-01 BMatC= 1.18D-01 BMatP= 7.66D-01
 IDIUse=3 WtCom= 7.69D-01 WtEn= 2.31D-01
 Coeff-Com:  0.253D+00 0.747D+00
 Coeff-En:   0.000D+00 0.100D+01
 Coeff:      0.194D+00 0.806D+00
 Gap=     0.659 Goal=   None    Shift=    0.000
 RMSDP=1.63D-03 MaxDP=3.22D-02 DE=-6.54D-01 OVMax= 4.34D-02

 Cycle   3  Pass 0  IDiag  1:
 RMSU=  8.36D-04    CP:  9.61D-01  7.11D-01
 E= -469.569136506663     Delta-E=       -0.113699512772 Rises=F Damp=F
 DIIS: error= 4.00D-03 at cycle   3 NSaved=   3.
 NSaved= 3 IEnMin= 3 EnMin= -469.569136506663     IErMin= 3 ErrMin= 4.00D-03
 ErrMax= 4.00D-03  0.00D+00 EMaxC= 1.00D-01 BMatC= 2.62D-03 BMatP= 1.18D-01
 IDIUse=3 WtCom= 9.60D-01 WtEn= 4.00D-02
 Coeff-Com: -0.310D-01 0.594D-01 0.972D+00
 Coeff-En:   0.000D+00 0.000D+00 0.100D+01
 Coeff:     -0.297D-01 0.570D-01 0.973D+00
 Gap=     0.640 Goal=   None    Shift=    0.000
 RMSDP=2.39D-04 MaxDP=6.79D-03 DE=-1.14D-01 OVMax= 8.00D-03

 Cycle   4  Pass 0  IDiag  1:
 RMSU=  1.12D-04    CP:  9.59D-01  7.54D-01  1.05D+00
 E= -469.572383177840     Delta-E=       -0.003246671178 Rises=F Damp=F
 DIIS: error= 5.41D-04 at cycle   4 NSaved=   4.
 NSaved= 4 IEnMin= 4 EnMin= -469.572383177840     IErMin= 4 ErrMin= 5.41D-04
 ErrMax= 5.41D-04  0.00D+00 EMaxC= 1.00D-01 BMatC= 5.53D-05 BMatP= 2.62D-03
 IDIUse=3 WtCom= 9.95D-01 WtEn= 5.41D-03
 Coeff-Com: -0.514D-03-0.197D-01-0.803D-01 0.110D+01
 Coeff-En:   0.000D+00 0.000D+00 0.000D+00 0.100D+01
 Coeff:     -0.511D-03-0.196D-01-0.799D-01 0.110D+01
 Gap=     0.642 Goal=   None    Shift=    0.000
 RMSDP=5.88D-05 MaxDP=1.23D-03 DE=-3.25D-03 OVMax= 1.80D-03

 Cycle   5  Pass 0  IDiag  1:
 RMSU=  3.72D-05    CP:  9.59D-01  7.55D-01  1.09D+00  1.23D+00
 E= -469.572474316242     Delta-E=       -0.000091138402 Rises=F Damp=F
 DIIS: error= 1.90D-04 at cycle   5 NSaved=   5.
 NSaved= 5 IEnMin= 5 EnMin= -469.572474316242     IErMin= 5 ErrMin= 1.90D-04
 ErrMax= 1.90D-04  0.00D+00 EMaxC= 1.00D-01 BMatC= 6.66D-06 BMatP= 5.53D-05
 IDIUse=3 WtCom= 9.98D-01 WtEn= 1.90D-03
 Coeff-Com:  0.223D-02-0.937D-02-0.910D-01 0.234D+00 0.864D+00
 Coeff-En:   0.000D+00 0.000D+00 0.000D+00 0.000D+00 0.100D+01
 Coeff:      0.222D-02-0.935D-02-0.908D-01 0.234D+00 0.864D+00
 Gap=     0.642 Goal=   None    Shift=    0.000
 RMSDP=1.63D-05 MaxDP=4.00D-04 DE=-9.11D-05 OVMax= 4.66D-04

 Cycle   6  Pass 0  IDiag  1:
 RMSU=  7.19D-06    CP:  9.59D-01  7.55D-01  1.10D+00  1.35D+00  9.72D-01
 E= -469.572483000168     Delta-E=       -0.000008683926 Rises=F Damp=F
 DIIS: error= 2.14D-05 at cycle   6 NSaved=   6.
 NSaved= 6 IEnMin= 6 EnMin= -469.572483000168     IErMin= 6 ErrMin= 2.14D-05
 ErrMax= 2.14D-05  0.00D+00 EMaxC= 1.00D-01 BMatC= 1.07D-07 BMatP= 6.66D-06
 IDIUse=1 WtCom= 1.00D+00 WtEn= 0.00D+00
 Coeff-Com:  0.128D-03 0.103D-03-0.147D-02-0.339D-01 0.330D-01 0.100D+01
 Coeff:      0.128D-03 0.103D-03-0.147D-02-0.339D-01 0.330D-01 0.100D+01
 Gap=     0.642 Goal=   None    Shift=    0.000
 RMSDP=3.34D-06 MaxDP=6.75D-05 DE=-8.68D-06 OVMax= 9.66D-05

 Initial convergence to 1.0D-05 achieved.  Increase integral accuracy.
 Cycle   7  Pass 1  IDiag  1:
 E= -469.572489262221     Delta-E=       -0.000006262053 Rises=F Damp=F
 DIIS: error= 1.66D-05 at cycle   1 NSaved=   1.
 NSaved= 1 IEnMin= 1 EnMin= -469.572489262221     IErMin= 1 ErrMin= 1.66D-05
 ErrMax= 1.66D-05  0.00D+00 EMaxC= 1.00D-01 BMatC= 2.53D-08 BMatP= 2.53D-08
 IDIUse=1 WtCom= 1.00D+00 WtEn= 0.00D+00
 Coeff-Com:  0.100D+01
 Coeff:      0.100D+01
 Gap=     0.642 Goal=   None    Shift=    0.000
 RMSDP=3.34D-06 MaxDP=6.75D-05 DE=-6.26D-06 OVMax= 2.44D-05

 Cycle   8  Pass 1  IDiag  1:
 RMSU=  2.33D-06    CP:  1.00D+00
 E= -469.572489281848     Delta-E=       -0.000000019627 Rises=F Damp=F
 DIIS: error= 1.75D-06 at cycle   2 NSaved=   2.
 NSaved= 2 IEnMin= 2 EnMin= -469.572489281848     IErMin= 2 ErrMin= 1.75D-06
 ErrMax= 1.75D-06  0.00D+00 EMaxC= 1.00D-01 BMatC= 5.66D-10 BMatP= 2.53D-08
 IDIUse=1 WtCom= 1.00D+00 WtEn= 0.00D+00
 Coeff-Com: -0.166D-01 0.102D+01
 Coeff:     -0.166D-01 0.102D+01
 Gap=     0.642 Goal=   None    Shift=    0.000
 RMSDP=2.59D-07 MaxDP=3.97D-06 DE=-1.96D-08 OVMax= 6.47D-06

 Cycle   9  Pass 1  IDiag  1:
 RMSU=  1.96D-07    CP:  1.00D+00  1.07D+00
 E= -469.572489282858     Delta-E=       -0.000000001010 Rises=F Damp=F
 DIIS: error= 6.89D-07 at cycle   3 NSaved=   3.
 NSaved= 3 IEnMin= 3 EnMin= -469.572489282858     IErMin= 3 ErrMin= 6.89D-07
 ErrMax= 6.89D-07  0.00D+00 EMaxC= 1.00D-01 BMatC= 1.01D-10 BMatP= 5.66D-10
 IDIUse=1 WtCom= 1.00D+00 WtEn= 0.00D+00
 Coeff-Com: -0.226D-01 0.156D+00 0.867D+00
 Coeff:     -0.226D-01 0.156D+00 0.867D+00
 Gap=     0.642 Goal=   None    Shift=    0.000
 RMSDP=7.55D-08 MaxDP=1.43D-06 DE=-1.01D-09 OVMax= 2.51D-06

 Cycle  10  Pass 1  IDiag  1:
 RMSU=  5.92D-08    CP:  1.00D+00  1.08D+00  1.20D+00
 E= -469.572489283018     Delta-E=       -0.000000000159 Rises=F Damp=F
 DIIS: error= 2.53D-07 at cycle   4 NSaved=   4.
 NSaved= 4 IEnMin= 4 EnMin= -469.572489283018     IErMin= 4 ErrMin= 2.53D-07
 ErrMax= 2.53D-07  0.00D+00 EMaxC= 1.00D-01 BMatC= 1.24D-11 BMatP= 1.01D-10
 IDIUse=1 WtCom= 1.00D+00 WtEn= 0.00D+00
 Coeff-Com:  0.542D-02-0.172D+00-0.116D+00 0.128D+01
 Coeff:      0.542D-02-0.172D+00-0.116D+00 0.128D+01
 Gap=     0.642 Goal=   None    Shift=    0.000
 RMSDP=5.22D-08 MaxDP=1.24D-06 DE=-1.59D-10 OVMax= 1.79D-06

 Cycle  11  Pass 1  IDiag  1:
 RMSU=  1.25D-08    CP:  1.00D+00  1.09D+00  1.43D+00  1.35D+00
 E= -469.572489283038     Delta-E=       -0.000000000021 Rises=F Damp=F
 DIIS: error= 4.31D-08 at cycle   5 NSaved=   5.
 NSaved= 5 IEnMin= 5 EnMin= -469.572489283038     IErMin= 5 ErrMin= 4.31D-08
 ErrMax= 4.31D-08  0.00D+00 EMaxC= 1.00D-01 BMatC= 2.66D-13 BMatP= 1.24D-11
 IDIUse=1 WtCom= 1.00D+00 WtEn= 0.00D+00
 Coeff-Com:  0.968D-03-0.149D-01-0.295D-01 0.811D-01 0.962D+00
 Coeff:      0.968D-03-0.149D-01-0.295D-01 0.811D-01 0.962D+00
 Gap=     0.642 Goal=   None    Shift=    0.000
 RMSDP=4.47D-09 MaxDP=7.55D-08 DE=-2.07D-11 OVMax= 1.68D-07

 SCF Done:  E(RHF) =  -469.572489283     A.U. after   11 cycles
            NFock= 11  Conv=0.45D-08     -V/T= 1.9989
 KE= 4.700734744500D+02 PE=-2.436900701340D+03 EE= 8.247747502571D+02
 Leave Link  502 at Thu Aug 29 20:24:38 2019, MaxMem=   280000000 cpu:              26.4 elap:               4.4
 (Enter /home/soft/g16/l601.exe)
 Copying SCF densities to generalized density rwf, IOpCl= 0 IROHF=0.

 **********************************************************************

            Population analysis using the SCF density.

 **********************************************************************

 Alpha  occ. eigenvalues --  -11.20977 -11.20977 -11.20839 -11.20839 -11.20813
 Alpha  occ. eigenvalues --  -11.20800 -11.20779 -11.20757 -11.20735 -11.20713
 Alpha  occ. eigenvalues --  -11.20215 -11.20215  -1.09581  -1.08151  -1.05763
 Alpha  occ. eigenvalues --   -1.02497  -0.98448  -0.93754  -0.88658  -0.83681
 Alpha  occ. eigenvalues --   -0.79907  -0.78943  -0.78365  -0.78257  -0.66145
 Alpha  occ. eigenvalues --   -0.64851  -0.62751  -0.60016  -0.59478  -0.59296
 Alpha  occ. eigenvalues --   -0.56909  -0.56871  -0.56422  -0.53921  -0.53618
 Alpha  occ. eigenvalues --   -0.51336  -0.50916  -0.50613  -0.48438  -0.48211
 Alpha  occ. eigenvalues --   -0.46748  -0.46652  -0.45927  -0.45880  -0.45772
 Alpha  occ. eigenvalues --   -0.45771  -0.45730  -0.45387  -0.41562
 Alpha virt. eigenvalues --    0.22655   0.23296   0.24219   0.25496   0.25794
 Alpha virt. eigenvalues --    0.26599   0.27471   0.27536   0.28435   0.30142
 Alpha virt. eigenvalues --    0.30320   0.31445   0.32920   0.33148   0.33583
 Alpha virt. eigenvalues --    0.33903   0.34340   0.34713   0.35240   0.35377
 Alpha virt. eigenvalues --    0.36095   0.36482   0.36708   0.37234   0.38080
 Alpha virt. eigenvalues --    0.38303   0.38386   0.39001   0.39321   0.41589
 Alpha virt. eigenvalues --    0.42172   0.43733   0.44843   0.45874   0.49420
 Alpha virt. eigenvalues --    0.53301   0.54122   0.66592   0.68988   0.70098
 Alpha virt. eigenvalues --    0.72143   0.75328   0.75486   0.76684   0.76710
 Alpha virt. eigenvalues --    0.77043   0.77465   0.79001   0.79537   0.80615
 Alpha virt. eigenvalues --    0.82683   0.86424   0.86906   0.87135   0.89554
 Alpha virt. eigenvalues --    0.93942   0.94859   0.96191   0.97718   0.98689
 Alpha virt. eigenvalues --    0.99514   1.02347   1.02679   1.02808   1.07200
 Alpha virt. eigenvalues --    1.08191   1.10099   1.11310   1.12418   1.12708
 Alpha virt. eigenvalues --    1.12745   1.14385   1.14915   1.15382   1.17671
 Alpha virt. eigenvalues --    1.18475   1.19251   1.20126   1.20323   1.21007
 Alpha virt. eigenvalues --    1.21158   1.21694   1.22561   1.22565   1.22643
 Alpha virt. eigenvalues --    1.22957   1.23365   1.23447   1.23482   1.23971
 Alpha virt. eigenvalues --    1.24056   1.25978   1.26068   1.27207   1.28121
 Alpha virt. eigenvalues --    1.28314   1.29081   1.34802   1.38356   1.47722
 Alpha virt. eigenvalues --    1.54557   1.56349   1.62607   1.64352   1.67397
 Alpha virt. eigenvalues --    1.71039   1.72612   1.73676   1.75130   1.75364
 Alpha virt. eigenvalues --    1.78810   1.78971   1.84403   1.87395   1.91416
 Alpha virt. eigenvalues --    1.95080   1.96680   2.02901   2.07621   2.10572
 Alpha virt. eigenvalues --    2.14547   2.16027   2.20261   2.20614   2.23474
 Alpha virt. eigenvalues --    2.24419   2.24987   2.25438   2.26147   2.26969
 Alpha virt. eigenvalues --    2.29285   2.29430   2.30631   2.32616   2.34030
 Alpha virt. eigenvalues --    2.34241   2.35330   2.38197   2.38639   2.38766
 Alpha virt. eigenvalues --    2.40527   2.43521   2.47856   2.48276   2.55696
 Alpha virt. eigenvalues --    2.58843   2.60093   2.62899   2.62901   2.67185
 Alpha virt. eigenvalues --    2.68313   2.68458   2.72571   2.73679   2.76619
 Alpha virt. eigenvalues --    2.77545   2.78106   2.81179   2.81322   2.86847
 Alpha virt. eigenvalues --    2.92563   2.93932   2.95570   3.00226   3.00768
 Alpha virt. eigenvalues --    3.03954   3.06506   3.13946   3.18453   3.24114
 Alpha virt. eigenvalues --    3.24467
          Condensed to atoms (all electrons):
               1          2          3          4          5          6
     1  C    5.108136   0.342034  -0.055954   0.003931  -0.000079   0.000001
     2  C    0.342034   5.072305   0.354189  -0.052444   0.003884  -0.000072
     3  C   -0.055954   0.354189   5.088609   0.357317  -0.052398   0.003872
     4  C    0.003931  -0.052444   0.357317   5.079319   0.356940  -0.052413
     5  C   -0.000079   0.003884  -0.052398   0.356940   5.079737   0.357061
     6  C    0.000001  -0.000072   0.003872  -0.052413   0.357061   5.079650
     7  C   -0.000000   0.000001  -0.000072   0.003876  -0.052445   0.357026
     8  C    0.000000  -0.000000   0.000001  -0.000072   0.003876  -0.052446
     9  C   -0.000000   0.000000  -0.000000   0.000001  -0.000072   0.003876
    10  C    0.000000  -0.000000   0.000000  -0.000000   0.000001  -0.000072
    11  C    0.000000   0.000000  -0.000000   0.000000  -0.000000   0.000001
    12  C    0.000000   0.000000   0.000000  -0.000000   0.000000  -0.000000
    13  H    0.395844  -0.033568   0.004061  -0.000081   0.000001  -0.000000
    14  H    0.000000   0.000000  -0.000000   0.000000  -0.000000   0.000000
    15  H   -0.000000  -0.000000   0.000000  -0.000001  -0.000059  -0.003209
    16  H   -0.000056  -0.003157  -0.041701   0.397142  -0.041651  -0.003208
    17  H    0.391714  -0.041275  -0.003783  -0.000076  -0.000001  -0.000000
    18  H    0.391714  -0.041275  -0.003783  -0.000076  -0.000001  -0.000000
    19  H   -0.041166   0.399220  -0.043243  -0.003200  -0.000064  -0.000001
    20  H   -0.041166   0.399220  -0.043243  -0.003200  -0.000064  -0.000001
    21  H   -0.002874  -0.041795   0.396408  -0.041660  -0.003221  -0.000059
    22  H   -0.002874  -0.041795   0.396408  -0.041661  -0.003221  -0.000059
    23  H   -0.000056  -0.003157  -0.041700   0.397141  -0.041650  -0.003209
    24  H   -0.000000  -0.000057  -0.003220  -0.041679   0.397122  -0.041655
    25  H   -0.000000  -0.000057  -0.003220  -0.041679   0.397120  -0.041652
    26  H    0.000000  -0.000001  -0.000058  -0.003210  -0.041676   0.397132
    27  H    0.000000  -0.000001  -0.000059  -0.003209  -0.041672   0.397131
    28  H   -0.000000   0.000000  -0.000001  -0.000059  -0.003210  -0.041665
    29  H   -0.000000   0.000000  -0.000001  -0.000059  -0.003210  -0.041663
    30  H   -0.000000  -0.000000   0.000000  -0.000001  -0.000059  -0.003208
    31  H   -0.000000  -0.000000  -0.000000   0.000000  -0.000001  -0.000059
    32  H   -0.000000  -0.000000  -0.000000   0.000000  -0.000001  -0.000059
    33  H   -0.000000  -0.000000  -0.000000  -0.000000   0.000000  -0.000001
    34  H   -0.000000  -0.000000  -0.000000  -0.000000   0.000000  -0.000001
    35  H    0.000000  -0.000000  -0.000000  -0.000000  -0.000000   0.000000
    36  H    0.000000  -0.000000  -0.000000  -0.000000  -0.000000   0.000000
    37  H    0.000000   0.000000  -0.000000  -0.000000  -0.000000  -0.000000
    38  H    0.000000   0.000000  -0.000000  -0.000000  -0.000000  -0.000000
               7          8          9         10         11         12
     1  C   -0.000000   0.000000  -0.000000   0.000000   0.000000   0.000000
     2  C    0.000001  -0.000000   0.000000  -0.000000   0.000000   0.000000
     3  C   -0.000072   0.000001  -0.000000   0.000000  -0.000000   0.000000
     4  C    0.003876  -0.000072   0.000001  -0.000000   0.000000  -0.000000
     5  C   -0.052445   0.003876  -0.000072   0.000001  -0.000000   0.000000
     6  C    0.357026  -0.052446   0.003876  -0.000072   0.000001  -0.000000
     7  C    5.079651   0.357061  -0.052413   0.003872  -0.000072   0.000001
     8  C    0.357061   5.079738   0.356939  -0.052399   0.003884  -0.000079
     9  C   -0.052413   0.356939   5.079319   0.357317  -0.052445   0.003931
    10  C    0.003872  -0.052399   0.357317   5.088610   0.354188  -0.055957
    11  C   -0.000072   0.003884  -0.052445   0.354188   5.072305   0.342034
    12  C    0.000001  -0.000079   0.003931  -0.055957   0.342034   5.108139
    13  H    0.000000  -0.000000   0.000000  -0.000000   0.000000   0.000000
    14  H   -0.000000   0.000001  -0.000081   0.004061  -0.033569   0.395844
    15  H   -0.041654   0.397122  -0.041679  -0.003220  -0.000057  -0.000000
    16  H   -0.000059  -0.000001   0.000000  -0.000000  -0.000000  -0.000000
    17  H   -0.000000  -0.000000  -0.000000  -0.000000   0.000000   0.000000
    18  H   -0.000000  -0.000000  -0.000000  -0.000000   0.000000   0.000000
    19  H    0.000000  -0.000000  -0.000000  -0.000000  -0.000000   0.000000
    20  H    0.000000  -0.000000  -0.000000  -0.000000  -0.000000   0.000000
    21  H   -0.000001   0.000000  -0.000000  -0.000000  -0.000000  -0.000000
    22  H   -0.000001   0.000000  -0.000000  -0.000000  -0.000000  -0.000000
    23  H   -0.000059  -0.000001   0.000000  -0.000000  -0.000000  -0.000000
    24  H   -0.003209  -0.000059  -0.000001   0.000000  -0.000000  -0.000000
    25  H   -0.003208  -0.000059  -0.000001   0.000000  -0.000000  -0.000000
    26  H   -0.041664  -0.003210  -0.000059  -0.000001   0.000000  -0.000000
    27  H   -0.041665  -0.003210  -0.000059  -0.000001   0.000000  -0.000000
    28  H    0.397133  -0.041675  -0.003210  -0.000058  -0.000001   0.000000
    29  H    0.397130  -0.041673  -0.003209  -0.000058  -0.000001   0.000000
    30  H   -0.041652   0.397121  -0.041678  -0.003220  -0.000057  -0.000000
    31  H   -0.003208  -0.041651   0.397143  -0.041702  -0.003157  -0.000056
    32  H   -0.003209  -0.041650   0.397141  -0.041699  -0.003157  -0.000056
    33  H   -0.000059  -0.003222  -0.041662   0.396410  -0.041794  -0.002873
    34  H   -0.000059  -0.003221  -0.041659   0.396408  -0.041795  -0.002874
    35  H   -0.000001  -0.000063  -0.003200  -0.043244   0.399221  -0.041167
    36  H   -0.000001  -0.000064  -0.003201  -0.043242   0.399219  -0.041166
    37  H   -0.000000  -0.000001  -0.000076  -0.003783  -0.041275   0.391714
    38  H   -0.000000  -0.000001  -0.000076  -0.003783  -0.041275   0.391715
              13         14         15         16         17         18
     1  C    0.395844   0.000000  -0.000000  -0.000056   0.391714   0.391714
     2  C   -0.033568   0.000000  -0.000000  -0.003157  -0.041275  -0.041275
     3  C    0.004061  -0.000000   0.000000  -0.041701  -0.003783  -0.003783
     4  C   -0.000081   0.000000  -0.000001   0.397142  -0.000076  -0.000076
     5  C    0.000001  -0.000000  -0.000059  -0.041651  -0.000001  -0.000001
     6  C   -0.000000   0.000000  -0.003209  -0.003208  -0.000000  -0.000000
     7  C    0.000000  -0.000000  -0.041654  -0.000059  -0.000000  -0.000000
     8  C   -0.000000   0.000001   0.397122  -0.000001  -0.000000  -0.000000
     9  C    0.000000  -0.000081  -0.041679   0.000000  -0.000000  -0.000000
    10  C   -0.000000   0.004061  -0.003220  -0.000000  -0.000000  -0.000000
    11  C    0.000000  -0.033569  -0.000057  -0.000000   0.000000   0.000000
    12  C    0.000000   0.395844  -0.000000  -0.000000   0.000000   0.000000
    13  H    0.522289   0.000000  -0.000000   0.000001  -0.027163  -0.027163
    14  H    0.000000   0.522290   0.000000   0.000000   0.000000   0.000000
    15  H   -0.000000   0.000000   0.561951  -0.000002   0.000000  -0.000000
    16  H    0.000001   0.000000  -0.000002   0.561611  -0.000001   0.000014
    17  H   -0.027163   0.000000   0.000000  -0.000001   0.551178  -0.032506
    18  H   -0.027163   0.000000  -0.000000   0.000014  -0.032506   0.551178
    19  H   -0.002332   0.000000   0.000000   0.000231  -0.003350   0.004559
    20  H   -0.002332   0.000000  -0.000000   0.002366   0.004559  -0.003350
    21  H   -0.000057  -0.000000   0.000000  -0.002916   0.000132   0.002804
    22  H   -0.000057  -0.000000  -0.000000   0.004510   0.002804   0.000132
    23  H    0.000001   0.000000   0.000001  -0.033136   0.000014  -0.000001
    24  H    0.000000  -0.000000  -0.000004   0.004497  -0.000002   0.000000
    25  H    0.000000  -0.000000   0.000017  -0.002888   0.000000  -0.000002
    26  H    0.000000  -0.000000   0.000266   0.000264   0.000000  -0.000000
    27  H    0.000000  -0.000000   0.002263   0.002264  -0.000000   0.000000
    28  H   -0.000000   0.000000  -0.002884   0.000017  -0.000000  -0.000000
    29  H   -0.000000   0.000000   0.004498  -0.000004  -0.000000  -0.000000
    30  H   -0.000000   0.000000  -0.033156   0.000001  -0.000000   0.000000
    31  H    0.000000   0.000001   0.004497  -0.000000   0.000000   0.000000
    32  H    0.000000   0.000001  -0.002888   0.000000   0.000000   0.000000
    33  H   -0.000000  -0.000057   0.000262   0.000000   0.000000  -0.000000
    34  H   -0.000000  -0.000057   0.002270  -0.000000  -0.000000   0.000000
    35  H    0.000000  -0.002332   0.000017  -0.000000   0.000000   0.000000
    36  H    0.000000  -0.002332  -0.000003   0.000000   0.000000   0.000000
    37  H    0.000000  -0.027162   0.000000   0.000000   0.000000   0.000000
    38  H    0.000000  -0.027162  -0.000002   0.000000   0.000000   0.000000
              19         20         21         22         23         24
     1  C   -0.041166  -0.041166  -0.002874  -0.002874  -0.000056  -0.000000
     2  C    0.399220   0.399220  -0.041795  -0.041795  -0.003157  -0.000057
     3  C   -0.043243  -0.043243   0.396408   0.396408  -0.041700  -0.003220
     4  C   -0.003200  -0.003200  -0.041660  -0.041661   0.397141  -0.041679
     5  C   -0.000064  -0.000064  -0.003221  -0.003221  -0.041650   0.397122
     6  C   -0.000001  -0.000001  -0.000059  -0.000059  -0.003209  -0.041655
     7  C    0.000000   0.000000  -0.000001  -0.000001  -0.000059  -0.003209
     8  C   -0.000000  -0.000000   0.000000   0.000000  -0.000001  -0.000059
     9  C   -0.000000  -0.000000  -0.000000  -0.000000   0.000000  -0.000001
    10  C   -0.000000  -0.000000  -0.000000  -0.000000  -0.000000   0.000000
    11  C   -0.000000  -0.000000  -0.000000  -0.000000  -0.000000  -0.000000
    12  C    0.000000   0.000000  -0.000000  -0.000000  -0.000000  -0.000000
    13  H   -0.002332  -0.002332  -0.000057  -0.000057   0.000001   0.000000
    14  H    0.000000   0.000000  -0.000000  -0.000000   0.000000  -0.000000
    15  H    0.000000  -0.000000   0.000000  -0.000000   0.000001  -0.000004
    16  H    0.000231   0.002366  -0.002916   0.004510  -0.033136   0.004497
    17  H   -0.003350   0.004559   0.000132   0.002804   0.000014  -0.000002
    18  H    0.004559  -0.003350   0.002804   0.000132  -0.000001   0.000000
    19  H    0.563201  -0.033747   0.004598  -0.003098   0.002366   0.000017
    20  H   -0.033747   0.563202  -0.003098   0.004598   0.000231  -0.000003
    21  H    0.004598  -0.003098   0.562984  -0.033459   0.004510   0.000262
    22  H   -0.003098   0.004598  -0.033459   0.562985  -0.002915   0.002271
    23  H    0.002366   0.000231   0.004510  -0.002915   0.561610  -0.002889
    24  H    0.000017  -0.000003   0.000262   0.002271  -0.002889   0.561951
    25  H   -0.000003   0.000017   0.002271   0.000262   0.004497  -0.033156
    26  H   -0.000002   0.000001  -0.000004   0.000017   0.002265  -0.002883
    27  H    0.000001  -0.000002   0.000017  -0.000004   0.000264   0.004498
    28  H   -0.000000   0.000000  -0.000002   0.000001  -0.000004   0.000266
    29  H    0.000000  -0.000000   0.000001  -0.000002   0.000017   0.002263
    30  H   -0.000000   0.000000  -0.000000   0.000000  -0.000002   0.000017
    31  H   -0.000000   0.000000   0.000000  -0.000000   0.000000  -0.000002
    32  H    0.000000  -0.000000  -0.000000   0.000000  -0.000000   0.000001
    33  H    0.000000   0.000000   0.000000  -0.000000  -0.000000   0.000000
    34  H    0.000000   0.000000  -0.000000   0.000000   0.000000  -0.000000
    35  H   -0.000000   0.000000   0.000000   0.000000   0.000000   0.000000
    36  H    0.000000  -0.000000   0.000000   0.000000  -0.000000  -0.000000
    37  H    0.000000   0.000000  -0.000000   0.000000   0.000000  -0.000000
    38  H    0.000000   0.000000   0.000000  -0.000000   0.000000   0.000000
              25         26         27         28         29         30
     1  C   -0.000000   0.000000   0.000000  -0.000000  -0.000000  -0.000000
     2  C   -0.000057  -0.000001  -0.000001   0.000000   0.000000  -0.000000
     3  C   -0.003220  -0.000058  -0.000059  -0.000001  -0.000001   0.000000
     4  C   -0.041679  -0.003210  -0.003209  -0.000059  -0.000059  -0.000001
     5  C    0.397120  -0.041676  -0.041672  -0.003210  -0.003210  -0.000059
     6  C   -0.041652   0.397132   0.397131  -0.041665  -0.041663  -0.003208
     7  C   -0.003208  -0.041664  -0.041665   0.397133   0.397130  -0.041652
     8  C   -0.000059  -0.003210  -0.003210  -0.041675  -0.041673   0.397121
     9  C   -0.000001  -0.000059  -0.000059  -0.003210  -0.003209  -0.041678
    10  C    0.000000  -0.000001  -0.000001  -0.000058  -0.000058  -0.003220
    11  C   -0.000000   0.000000   0.000000  -0.000001  -0.000001  -0.000057
    12  C   -0.000000  -0.000000  -0.000000   0.000000   0.000000  -0.000000
    13  H    0.000000   0.000000   0.000000  -0.000000  -0.000000  -0.000000
    14  H   -0.000000  -0.000000  -0.000000   0.000000   0.000000   0.000000
    15  H    0.000017   0.000266   0.002263  -0.002884   0.004498  -0.033156
    16  H   -0.002888   0.000264   0.002264   0.000017  -0.000004   0.000001
    17  H    0.000000   0.000000  -0.000000  -0.000000  -0.000000  -0.000000
    18  H   -0.000002  -0.000000   0.000000  -0.000000  -0.000000   0.000000
    19  H   -0.000003  -0.000002   0.000001  -0.000000   0.000000  -0.000000
    20  H    0.000017   0.000001  -0.000002   0.000000  -0.000000   0.000000
    21  H    0.002271  -0.000004   0.000017  -0.000002   0.000001  -0.000000
    22  H    0.000262   0.000017  -0.000004   0.000001  -0.000002   0.000000
    23  H    0.004497   0.002265   0.000264  -0.000004   0.000017  -0.000002
    24  H   -0.033156  -0.002883   0.004498   0.000266   0.002263   0.000017
    25  H    0.561951   0.004498  -0.002886   0.002263   0.000266  -0.000004
    26  H    0.004498   0.561953  -0.033147   0.004497  -0.002884   0.002263
    27  H   -0.002886  -0.033147   0.561953  -0.002882   0.004497   0.000266
    28  H    0.002263   0.004497  -0.002882   0.561953  -0.033147   0.004498
    29  H    0.000266  -0.002884   0.004497  -0.033147   0.561953  -0.002885
    30  H   -0.000004   0.002263   0.000266   0.004498  -0.002885   0.561951
    31  H    0.000001   0.000017  -0.000004   0.000264   0.002264  -0.002889
    32  H   -0.000002  -0.000004   0.000017   0.002265   0.000264   0.004497
    33  H   -0.000000  -0.000002   0.000001  -0.000004   0.000017   0.002271
    34  H    0.000000   0.000001  -0.000002   0.000017  -0.000004   0.000262
    35  H   -0.000000  -0.000000   0.000000  -0.000002   0.000001  -0.000003
    36  H    0.000000   0.000000  -0.000000   0.000001  -0.000002   0.000017
    37  H    0.000000  -0.000000  -0.000000  -0.000000   0.000000  -0.000002
    38  H   -0.000000  -0.000000  -0.000000   0.000000  -0.000000   0.000000
              31         32         33         34         35         36
     1  C   -0.000000  -0.000000  -0.000000  -0.000000   0.000000   0.000000
     2  C   -0.000000  -0.000000  -0.000000  -0.000000  -0.000000  -0.000000
     3  C   -0.000000  -0.000000  -0.000000  -0.000000  -0.000000  -0.000000
     4  C    0.000000   0.000000  -0.000000  -0.000000  -0.000000  -0.000000
     5  C   -0.000001  -0.000001   0.000000   0.000000  -0.000000  -0.000000
     6  C   -0.000059  -0.000059  -0.000001  -0.000001   0.000000   0.000000
     7  C   -0.003208  -0.003209  -0.000059  -0.000059  -0.000001  -0.000001
     8  C   -0.041651  -0.041650  -0.003222  -0.003221  -0.000063  -0.000064
     9  C    0.397143   0.397141  -0.041662  -0.041659  -0.003200  -0.003201
    10  C   -0.041702  -0.041699   0.396410   0.396408  -0.043244  -0.043242
    11  C   -0.003157  -0.003157  -0.041794  -0.041795   0.399221   0.399219
    12  C   -0.000056  -0.000056  -0.002873  -0.002874  -0.041167  -0.041166
    13  H    0.000000   0.000000  -0.000000  -0.000000   0.000000   0.000000
    14  H    0.000001   0.000001  -0.000057  -0.000057  -0.002332  -0.002332
    15  H    0.004497  -0.002888   0.000262   0.002270   0.000017  -0.000003
    16  H   -0.000000   0.000000   0.000000  -0.000000  -0.000000   0.000000
    17  H    0.000000   0.000000   0.000000  -0.000000   0.000000   0.000000
    18  H    0.000000   0.000000  -0.000000   0.000000   0.000000   0.000000
    19  H   -0.000000   0.000000   0.000000   0.000000  -0.000000   0.000000
    20  H    0.000000  -0.000000   0.000000   0.000000   0.000000  -0.000000
    21  H    0.000000  -0.000000   0.000000  -0.000000   0.000000   0.000000
    22  H   -0.000000   0.000000  -0.000000   0.000000   0.000000   0.000000
    23  H    0.000000  -0.000000  -0.000000   0.000000   0.000000  -0.000000
    24  H   -0.000002   0.000001   0.000000  -0.000000   0.000000  -0.000000
    25  H    0.000001  -0.000002  -0.000000   0.000000  -0.000000   0.000000
    26  H    0.000017  -0.000004  -0.000002   0.000001  -0.000000   0.000000
    27  H   -0.000004   0.000017   0.000001  -0.000002   0.000000  -0.000000
    28  H    0.000264   0.002265  -0.000004   0.000017  -0.000002   0.000001
    29  H    0.002264   0.000264   0.000017  -0.000004   0.000001  -0.000002
    30  H   -0.002889   0.004497   0.002271   0.000262  -0.000003   0.000017
    31  H    0.561611  -0.033137  -0.002914   0.004510   0.000231   0.002366
    32  H   -0.033137   0.561612   0.004510  -0.002917   0.002366   0.000231
    33  H   -0.002914   0.004510   0.562984  -0.033460   0.004598  -0.003099
    34  H    0.004510  -0.002917  -0.033460   0.562985  -0.003097   0.004598
    35  H    0.000231   0.002366   0.004598  -0.003097   0.563202  -0.033748
    36  H    0.002366   0.000231  -0.003099   0.004598  -0.033748   0.563202
    37  H    0.000014  -0.000001   0.002803   0.000132   0.004559  -0.003350
    38  H   -0.000001   0.000014   0.000132   0.002804  -0.003350   0.004559
              37         38
     1  C    0.000000   0.000000
     2  C    0.000000   0.000000
     3  C   -0.000000  -0.000000
     4  C   -0.000000  -0.000000
     5  C   -0.000000  -0.000000
     6  C   -0.000000  -0.000000
     7  C   -0.000000  -0.000000
     8  C   -0.000001  -0.000001
     9  C   -0.000076  -0.000076
    10  C   -0.003783  -0.003783
    11  C   -0.041275  -0.041275
    12  C    0.391714   0.391715
    13  H    0.000000   0.000000
    14  H   -0.027162  -0.027162
    15  H    0.000000  -0.000002
    16  H    0.000000   0.000000
    17  H    0.000000   0.000000
    18  H    0.000000   0.000000
    19  H    0.000000   0.000000
    20  H    0.000000   0.000000
    21  H   -0.000000   0.000000
    22  H    0.000000  -0.000000
    23  H    0.000000   0.000000
    24  H   -0.000000   0.000000
    25  H    0.000000  -0.000000
    26  H   -0.000000  -0.000000
    27  H   -0.000000  -0.000000
    28  H   -0.000000   0.000000
    29  H    0.000000  -0.000000
    30  H   -0.000002   0.000000
    31  H    0.000014  -0.000001
    32  H   -0.000001   0.000014
    33  H    0.002803   0.000132
    34  H    0.000132   0.002804
    35  H    0.004559  -0.003350
    36  H   -0.003350   0.004559
    37  H    0.551178  -0.032506
    38  H   -0.032506   0.551178
 Mulliken charges:
               1
     1  C   -0.489150
     2  C   -0.312199
     3  C   -0.308429
     4  C   -0.310888
     5  C   -0.310988
     6  C   -0.311039
     7  C   -0.311040
     8  C   -0.310988
     9  C   -0.310887
    10  C   -0.308428
    11  C   -0.312198
    12  C   -0.489150
    13  H    0.170554
    14  H    0.170554
    15  H    0.155653
    16  H    0.155861
    17  H    0.157756
    18  H    0.157756
    19  H    0.156013
    20  H    0.156013
    21  H    0.155158
    22  H    0.155157
    23  H    0.155862
    24  H    0.155653
    25  H    0.155654
    26  H    0.155628
    27  H    0.155628
    28  H    0.155628
    29  H    0.155628
    30  H    0.155654
    31  H    0.155861
    32  H    0.155862
    33  H    0.155158
    34  H    0.155158
    35  H    0.156012
    36  H    0.156013
    37  H    0.157755
    38  H    0.157755
 Sum of Mulliken charges =  -0.00000
 Mulliken charges with hydrogens summed into heavy atoms:
               1
     1  C   -0.003085
     2  C   -0.000173
     3  C    0.001886
     4  C    0.000836
     5  C    0.000319
     6  C    0.000217
     7  C    0.000216
     8  C    0.000319
     9  C    0.000835
    10  C    0.001887
    11  C   -0.000173
    12  C   -0.003085
 Electronic spatial extent (au):  <R**2>=           9803.5104
 Charge=             -0.0000 electrons
 Dipole moment (field-independent basis, Debye):
    X=             -0.0000    Y=              0.0000    Z=             -0.0000  Tot=              0.0000
 Quadrupole moment (field-independent basis, Debye-Ang):
   XX=            -85.1314   YY=            -83.4641   ZZ=            -80.8846
   XY=             -0.8980   XZ=              0.0000   YZ=             -0.0002
 Traceless Quadrupole moment (field-independent basis, Debye-Ang):
   XX=             -1.9714   YY=             -0.3041   ZZ=              2.2755
   XY=             -0.8980   XZ=              0.0000   YZ=             -0.0002
 Octapole moment (field-independent basis, Debye-Ang**2):
  XXX=            652.8377  YYY=             -1.5736  ZZZ=              0.0054  XYY=            213.3388
  XXY=              4.0561  XXZ=             -0.0014  XZZ=            206.7567  YZZ=             -0.5083
  YYZ=              0.0015  XYZ=             -0.0014
 Hexadecapole moment (field-independent basis, Debye-Ang**3):
 XXXX=         -13693.3821 YYYY=           -290.0314 ZZZZ=           -165.0483 XXXY=           -185.1067
 XXXZ=             -0.0171 YYYX=            -69.1499 YYYZ=             -0.0067 ZZZX=             -0.0372
 ZZZY=             -0.0034 XXYY=          -2301.4518 XXZZ=          -2229.4771 YYZZ=            -68.6690
 XXYZ=              0.0048 YYXZ=             -0.0124 ZZXY=            -19.5027
 N-N= 6.724799873501D+02 E-N=-2.436900698685D+03  KE= 4.700734744500D+02
 No NMR shielding tensors so no spin-rotation constants.
 Leave Link  601 at Thu Aug 29 20:24:39 2019, MaxMem=   280000000 cpu:               0.5 elap:               0.1
 (Enter /home/soft/g16/l9999.exe)
 1\1\GINC-NODE18\SP\RHF\6-31G(d)\C12H26\ROOT\29-Aug-2019\0\\#p hf/6-31g
 (d) 5d 7f nosymm\\Atom number=38\\0,1\C,0,4.474329,0.409546,0.000126\C
 ,0,3.19418,-0.428143,-0.000156\C,0,1.918145,0.4158,0.000124\C,0,0.638,
 -0.421895,-0.000149\C,0,-0.638038,0.422037,0.00011\C,0,-1.918178,-0.41
 5658,-0.000065\C,0,-3.194218,0.428261,-0.000059\C,0,-4.474353,-0.40944
 4,-0.000063\C,0,-5.750393,0.434477,-0.000044\C,0,-7.030525,-0.40323,0.
 00003\C,0,-8.306562,0.440692,-0.00019\C,0,-9.586689,-0.397022,0.000053
 \H,0,5.36679422,-0.18071309,-0.00007123\H,0,-10.4791597,0.19322882,-0.
 00009178\H,0,-4.475936,-1.063266,0.870548\H,0,0.636403,-1.075973,0.870
 268\H,0,4.47593,1.06364,-0.870278\H,0,4.475929,1.063056,0.870968\H,0,3
 .192581,-1.081654,-0.870997\H,0,3.192579,-1.082235,0.87025\H,0,1.91974
 4,1.069316,0.870962\H,0,1.919742,1.069887,-0.870286\H,0,0.63641,-1.075
 422,-0.870979\H,0,-0.636465,1.076076,-0.870338\H,0,-0.636417,1.075615,
 0.870904\H,0,-1.919713,-1.069374,-0.870755\H,0,-1.919821,-1.069558,0.8
 70487\H,0,-3.192634,1.082072,0.87056\H,0,-3.192634,1.082069,-0.870681\
 H,0,-4.475948,-1.063238,-0.870696\H,0,-5.748833,1.088263,-0.870682\H,0
 ,-5.748776,1.088306,0.870562\H,0,-7.032066,-1.05719,-0.870476\H,0,-7.0
 32158,-1.056883,0.870768\H,0,-8.304973,1.094747,0.870246\H,0,-8.304988
 ,1.094252,-0.870997\H,0,-9.588293,-1.051059,-0.870396\H,0,-9.588266,-1
 .050596,0.87085\\Version=ES64L-G16RevA.03\HF=-469.5724893\RMSD=4.466e-
 09\Dipole=-0.0000024,0.0000015,-0.0000093\Quadrupole=-1.4656526,-0.226
 0925,1.6917451,-0.6676089,0.0000342,-0.0001566\PG=C01 [X(C12H26)]\\@


 The hours that make us happy make us wise.
                         -- John Masefield
 Job cpu time:       0 days  0 hours  0 minutes 38.0 seconds.
 Elapsed time:       0 days  0 hours  0 minutes  6.6 seconds.
 File lengths (MBytes):  RWF=     88 Int=      0 D2E=      0 Chk=      8 Scr=      8
 Normal termination of Gaussian 16 at Thu Aug 29 20:24:39 2019.
