#INFO: **** input file is /home/liwei01/wsr/dftpart/mp_example/32ane/32ane_subsys/32ane_5.py ****
from dftpart import scfeda
import numpy as np
from QCKit import logger
                     
subeda = scfeda.EDA()
subeda.method = ["hf", "6-31gs"]
subeda.gjf = '32ane_subsys/32ane_5.gjf'
subeda.output =  subeda.gjf[:-4]
subatm_E, subE, conv = subeda.kernel()
atom_E = np.zeros(98)
resultlog = '32ane-result.log'
with open(resultlog,'a') as g:
    logger.slog(g, "center atom energies:")
    cen_intot = [21, 22, 23, 24, 76, 77, 78, 79, 80, 81, 82, 83]
    cen_insub = [5, 6, 7, 8, 24, 25, 26, 27, 28, 29, 30, 31]
    for i in range(len(cen_intot)):                        
        atom_E[cen_intot[i]-1] = subatm_E[cen_insub[i]-1]                        
        logger.slog(g, "%d %.10f", cen_intot[i], atom_E[cen_intot[i]-1])
#INFO: ******************** input file end ********************


System: uname_result(system='Linux', node='node07', release='3.10.0-693.el7.x86_64', version='#1 SMP Tue Aug 22 21:09:27 UTC 2017', machine='x86_64', processor='x86_64')  Threads 24
Python 3.6.4 |Anaconda, Inc.| (default, Jan 16 2018, 18:10:19) 
[GCC 7.2.0]
numpy 1.14.0  scipy 1.0.0
Date: Mon Sep  9 23:16:05 2019
PySCF version 1.5.4
PySCF path  /home/liwei01/liaokang/anaconda3/lib/python3.6/site-packages/pyscf

[CONFIG] conf_file None
[INPUT] verbose = 4
[INPUT] num. atoms = 38
[INPUT] num. electrons = 98
[INPUT] charge = 0
[INPUT] spin (= nelec alpha-beta = 2S) = 0
[INPUT] symmetry False subgroup None
[INPUT] Mole.unit = angstrom
[INPUT]  1 C     -0.638038000000   0.422037000000   0.000110000000 AA   -1.205717077065   0.797534344433   0.000207869874 Bohr
[INPUT]  2 C     -1.918178000000  -0.415658000000  -0.000065000000 AA   -3.624831078166  -0.785479781484  -0.000122832198 Bohr
[INPUT]  3 C     -3.194218000000   0.428261000000  -0.000059000000 AA   -6.036197202156   0.809295999832  -0.000111493841 Bohr
[INPUT]  4 C     -4.474353000000  -0.409444000000  -0.000063000000 AA   -8.455301754626  -0.773737023346  -0.000119052746 Bohr
[INPUT]  5 C     -5.750393000000   0.434477000000  -0.000044000000 AA  -10.866667878616   0.821042537423  -0.000083147949 Bohr
[INPUT]  6 C     -7.030525000000  -0.403230000000   0.000030000000 AA  -13.285766761908  -0.761994265208   0.000056691784 Bohr
[INPUT]  7 C     -8.306562000000   0.440692000000  -0.000190000000 AA  -15.697127216719   0.832787185287  -0.000359047964 Bohr
[INPUT]  8 C     -9.586689000000  -0.397022000000   0.000053000000 AA  -18.116216651381  -0.750262845427   0.000100155485 Bohr
[INPUT]  9 C    -10.862723000000   0.446905000000  -0.000154000000 AA  -20.527571437014   0.844528053699  -0.000291017823 Bohr
[INPUT] 10 C    -12.142844000000  -0.390814000000   0.000168000000 AA  -22.946649533318  -0.738531425646   0.000317473989 Bohr
[INPUT] 11 C    -13.418867000000   0.453124000000  -0.000280000000 AA  -25.357983531964   0.856280260467  -0.000529123315 Bohr
[INPUT] 12 C    -14.698968000000  -0.384621000000   0.000211000000 AA  -27.777023833746  -0.726828351756   0.000398732212 Bohr
[INPUT] 13 H      0.254431930000  -0.168214970000  -0.000071150000 AA    0.480806665045  -0.317880223352  -0.000134454014 Bohr
[INPUT] 14 H    -15.591426250000   0.205648580000  -0.000093240000 AA  -29.463525503854   0.388619494106  -0.000176198064 Bohr
[INPUT] 15 H    -14.700574000000  -1.037926000000   0.871197000000 AA  -27.780058733902  -1.961395877565   1.646323730543 Bohr
[INPUT] 16 H     -4.475936000000  -1.063266000000   0.870548000000 AA   -8.458293191081  -2.009281537562   1.645097298288 Bohr
[INPUT] 17 H     -0.636465000000   1.076076000000  -0.870338000000 AA   -1.202744537871   2.033488929217  -1.644700455802 Bohr
[INPUT] 18 H     -0.636417000000   1.075615000000   0.870904000000 AA   -1.202653831017   2.032617765474   1.645770040788 Bohr
[INPUT] 19 H     -1.919713000000  -1.069374000000  -0.870755000000 AA   -3.627731807767  -2.020823984731  -1.645488471596 Bohr
[INPUT] 20 H     -1.919821000000  -1.069558000000   0.870487000000 AA   -3.627935898189  -2.021171694338   1.644982024994 Bohr
[INPUT] 21 H     -3.192634000000   1.082072000000   0.870560000000 AA   -6.033203875975   2.044819727060   1.645119975001 Bohr
[INPUT] 22 H     -3.192634000000   1.082069000000  -0.870681000000 AA   -6.033203875975   2.044814057882  -1.645348631862 Bohr
[INPUT] 23 H     -4.475948000000  -1.063238000000  -0.870696000000 AA   -8.458315867795  -2.009228625230  -1.645376977754 Bohr
[INPUT] 24 H     -5.748833000000   1.088263000000  -0.870682000000 AA  -10.863719905862   2.056519021498  -1.645350521589 Bohr
[INPUT] 25 H     -5.748776000000   1.088306000000   0.870562000000 AA  -10.863612191473   2.056600279721   1.645123754454 Bohr
[INPUT] 26 H     -7.032066000000  -1.057190000000  -0.870476000000 AA  -13.288678829866  -1.997799561629  -1.644961238007 Bohr
[INPUT] 27 H     -7.032158000000  -1.056883000000   0.870768000000 AA  -13.288852684669  -1.997219415709   1.645513038035 Bohr
[INPUT] 28 H     -8.304973000000   1.094747000000   0.870246000000 AA  -15.694124441907   2.068772005689   1.644526600998 Bohr
[INPUT] 29 H     -8.304988000000   1.094252000000  -0.870997000000 AA  -15.694152787799   2.067836591258  -1.645945785318 Bohr
[INPUT] 30 H     -9.588293000000  -1.051059000000  -0.870396000000 AA  -18.119247772084  -1.986213650759  -1.644810059917 Bohr
[INPUT] 31 H     -9.588266000000  -1.050596000000   0.870850000000 AA  -18.119196749479  -1.985338707564   1.645667995577 Bohr
[INPUT] 32 H    -10.861174000000   1.100442000000  -0.870978000000 AA  -20.524644251247   2.079533995969  -1.645909880521 Bohr
[INPUT] 33 H    -10.861102000000   1.100977000000   0.870268000000 AA  -20.524508190966   2.080544999445   1.644568174973 Bohr
[INPUT] 34 H    -12.144398000000  -1.045015000000  -0.870156000000 AA  -22.949586167716  -1.974792146062  -1.644356525647 Bohr
[INPUT] 35 H    -12.144475000000  -1.044215000000   0.871092000000 AA  -22.949731676627  -1.973280365163   1.646125309300 Bohr
[INPUT] 36 H    -13.417282000000   1.107415000000   0.869976000000 AA  -25.354988316057   2.092711056235   1.644016374945 Bohr
[INPUT] 37 H    -13.417312000000   1.106429000000  -0.871276000000 AA  -25.355045007840   2.090847786276  -1.646473018907 Bohr
[INPUT] 38 H    -14.700616000000  -1.038881000000  -0.870057000000 AA  -27.780138102399  -1.963200566014  -1.644169442761 Bohr

nuclear repulsion = 672.48209266657
number of shells = 124
number of NR pGTOs = 428
number of NR cGTOs = 220
basis = 6-31gs
ecp = {}
CPU time:         2.95


******** <class 'pyscf.scf.hf.RHF'> flags ********
method = RHF
initial guess = minao
damping factor = 0
level shift factor = 0
DIIS = <class 'pyscf.scf.diis.CDIIS'>
DIIS start cycle = 1
DIIS space = 8
SCF tol = 1e-09
SCF gradient tol = None
max. SCF cycles = 50
direct_scf = True
direct_scf_tol = 1e-13
chkfile to save SCF result = /home/liwei01/wsr/dftpart/mp_example/32ane/tmpn571cp90
max_memory 4000 MB (current use 94 MB)
Set gradient conv threshold to 3.16228e-05
init E= -472.853166335855
  HOMO = -0.34488588835571  LUMO = 0.136436933694316
cycle= 1 E= -469.456236983498  delta_E=  3.4  |g|= 0.567  |ddm|= 4.87
  HOMO = -0.378921552196474  LUMO = 0.229577851186618
cycle= 2 E= -469.564153127718  delta_E= -0.108  |g|= 0.147  |ddm|=  0.6
  HOMO = -0.426196778445527  LUMO = 0.222800592034055
cycle= 3 E= -469.571701634081  delta_E= -0.00755  |g|= 0.052  |ddm|= 0.215
  HOMO = -0.414026379785442  LUMO = 0.226872030371657
cycle= 4 E= -469.572478518183  delta_E= -0.000777  |g|= 0.00524  |ddm|= 0.0542
  HOMO = -0.415410664053142  LUMO = 0.226588721693336
cycle= 5 E= -469.572489902473  delta_E= -1.14e-05  |g|= 0.00131  |ddm|= 0.00963
  HOMO = -0.415631418834859  LUMO = 0.226538809622469
cycle= 6 E= -469.572490439064  delta_E= -5.37e-07  |g|= 0.0003  |ddm|= 0.00161
  HOMO = -0.415609966889565  LUMO = 0.2265485639915
cycle= 7 E= -469.572490473815  delta_E= -3.48e-08  |g|= 5.7e-05  |ddm|= 0.000442
  HOMO = -0.415621027668241  LUMO = 0.226546076157031
cycle= 8 E= -469.572490475431  delta_E= -1.62e-09  |g|= 9.57e-06  |ddm|= 0.000135
  HOMO = -0.415621132523397  LUMO = 0.22654616099366
cycle= 9 E= -469.572490475464  delta_E= -3.32e-11  |g|= 2.93e-06  |ddm|= 1.39e-05
  HOMO = -0.41562122510587  LUMO = 0.226546199232265
Extra cycle  E= -469.572490475467  delta_E= -2.73e-12  |g|= 1.23e-06  |ddm|= 5.07e-06
converged SCF energy = -469.572490475467
