#INFO: **** input file is /home/wsr/dftpart/test_hfeda/watercl/test_wcl.py ****
from dftpart import scfeda

mollist = ['5','6','7','8','9'
#,'c4h10','c6h14'
]
basislist = [
#'6-31g',
'6-31gss','6-311gss',
#'6-311+gss',
#'cc-pvdz','cc-pvtz',
#'def2-svp','def2-tzvp'
]
for mol in mollist:
    for basis in basislist:
        test1 = scfeda.EDA()
        test1.gjf = './TIP4P-'+mol+'.xyz'
        test1.method = ['m062x',basis]
        test1.output = mol.upper()+'_'+basis
        #test1.build()
        test1.kernel()

#INFO: ******************** input file end ********************


System: uname_result(system='Linux', node='lw06', release='3.10.0-957.el7.x86_64', version='#1 SMP Thu Nov 8 23:39:32 UTC 2018', machine='x86_64', processor='x86_64')  Threads 48
Python 3.7.3 (default, Mar 27 2019, 22:11:17) 
[GCC 7.3.0]
numpy 1.16.2  scipy 1.2.1
Date: Thu Jul 11 16:33:46 2019
PySCF version 1.6.2
PySCF path  /home/wsr/pyscf

[CONFIG] conf_file None
[INPUT] verbose = 4
[INPUT] num. atoms = 21
[INPUT] num. electrons = 70
[INPUT] charge = 0
[INPUT] spin (= nelec alpha-beta = 2S) = 0
[INPUT] symmetry False subgroup None
[INPUT] Mole.unit = angstrom
[INPUT]  1 O      0.603463900000   2.550028200000   1.172091300000 AA    1.140381497062   4.818854907918   2.214931549985 Bohr
[INPUT]  2 H      0.366537400000   3.277181500000   1.747717800000 AA    0.692655300410   6.192975495491   3.302707985027 Bohr
[INPUT]  3 H     -0.234871600000   2.181476200000   0.893532400000 AA   -0.443842998438   4.122392565257   1.688531519425 Bohr
[INPUT]  4 O     -0.870207900000  -1.202491800000   1.564951300000 AA   -1.644454602433  -2.272380169035   2.957329355282 Bohr
[INPUT]  5 H     -1.261813300000  -1.826686900000   2.175899500000 AA   -2.384481557334  -3.451937956331   4.111854129578 Bohr
[INPUT]  6 H     -0.823918200000  -1.676305600000   0.734535900000 AA   -1.556979747045  -3.167758485075   1.388071679661 Bohr
[INPUT]  7 O      1.679101900000  -0.667391300000  -1.366780800000 AA    3.173042726237  -1.261186774917  -2.582841384314 Bohr
[INPUT]  8 H      2.590378900000  -0.738749000000  -1.650883700000 AA    4.895106679852  -1.396033284796  -3.119718056509 Bohr
[INPUT]  9 H      1.734020700000  -0.402805200000  -0.448516000000 AA    3.276824217327  -0.761191509551  -0.847572402485 Bohr
[INPUT] 10 O      1.617735200000   0.007332400000   1.228586500000 AA    3.057076470068   0.013856227836   2.321692005338 Bohr
[INPUT] 11 H      1.406343400000   0.939656100000   1.276733000000 AA    2.657603863090   1.775692680277   2.412675704194 Bohr
[INPUT] 12 H      0.822468000000  -0.434725600000   1.525852300000 AA    1.554239266219  -0.821512323337   2.883442953538 Bohr
[INPUT] 13 O     -0.610656300000  -2.256278600000  -0.905455000000 AA   -1.153973163240  -4.263748614717  -1.711061968118 Bohr
[INPUT] 14 H      0.308809200000  -2.046915800000  -1.069718200000 AA    0.583564812746  -3.868110262045  -2.021474428463 Bohr
[INPUT] 15 H     -1.098751800000  -1.619008600000  -1.426877800000 AA   -2.076339980873  -3.059482847316  -2.696408255222 Bohr
[INPUT] 16 O     -1.624471000000   1.217455300000   0.418842100000 AA   -3.069805287298   2.300657085900   0.791496858438 Bohr
[INPUT] 17 H     -1.444013100000   0.979840100000  -0.490666500000 AA   -2.728789279284   1.851629434866  -0.927225303499 Bohr
[INPUT] 18 H     -1.500492800000   0.404342700000   0.908443300000 AA   -2.835520443882   0.764096963467   1.716709036696 Bohr
[INPUT] 19 O     -0.807045800000   0.348711100000  -2.074444900000 AA   -1.525095531981   0.658968475596  -3.920132721501 Bohr
[INPUT] 20 H      0.106861000000   0.114942700000  -1.912091000000 AA    0.201938023397   0.217210223018  -3.613328315246 Bohr
[INPUT] 21 H     -0.779840600000   0.889572400000  -2.863723700000 AA   -1.473685154816   1.681048203972  -5.411653489426 Bohr

nuclear repulsion = 401.576475136813
number of shells = 84
number of NR pGTOs = 287
number of NR cGTOs = 168
basis = 6-31gss
ecp = {}
CPU time:      4330.78


******** <class 'pyscf.dft.rks.RKS'> ********
method = RKS-RHF
initial guess = minao
damping factor = 0
level shift factor = 0
DIIS = <class 'pyscf.scf.diis.CDIIS'>
DIIS start cycle = 1
DIIS space = 8
SCF tol = 1e-09
SCF gradient tol = None
max. SCF cycles = 50
direct_scf = True
direct_scf_tol = 1e-13
chkfile to save SCF result = /home/wsr/dftpart/test_hfeda/watercl/tmpuvakkqr0
max_memory 4000 MB (current use 430 MB)
XC functionals = m062x
small_rho_cutoff = 1e-07
radial grids: 
    Treutler-Ahlrichs (JCP 102, 346 (M4)) radial grids
    
becke partition: Becke, JCP, 88, 2547 (1988)
pruning grids: <function nwchem_prune at 0x2b5a55b6b598>
grids dens level: 3
symmetrized grids: False
atomic radii adjust function: <function treutler_atomic_radii_adjust at 0x2b5a55b6b510>
Set gradient conv threshold to 3.16228e-05
tot grids = 240170
init E= -534.520799984478
  HOMO = -0.451837969442432  LUMO = -0.0122662126220179
cycle= 1 E= -534.514062139293  delta_E= 0.00674  |g|=  1.3  |ddm|= 3.18
  HOMO = -0.24288784172717  LUMO = 0.108031552033035
cycle= 2 E= -534.558788515381  delta_E= -0.0447  |g|= 1.22  |ddm|= 1.48
  HOMO = -0.361981638142506  LUMO = 0.0804586675062049
cycle= 3 E= -534.814645495835  delta_E= -0.256  |g|= 0.0492  |ddm|= 0.746
  HOMO = -0.359097582339689  LUMO = 0.0855156982900141
cycle= 4 E= -534.815088735858  delta_E= -0.000443  |g|= 0.00805  |ddm|= 0.0304
  HOMO = -0.358941794572816  LUMO = 0.0855668864110535
cycle= 5 E= -534.81509791704  delta_E= -9.18e-06  |g|= 0.00605  |ddm|= 0.00907
  HOMO = -0.35938336372753  LUMO = 0.0855752555023818
cycle= 6 E= -534.815104324012  delta_E= -6.41e-06  |g|= 0.000497  |ddm|= 0.00383
  HOMO = -0.359398383016421  LUMO = 0.0855657643736744
cycle= 7 E= -534.815104384887  delta_E= -6.09e-08  |g|= 0.000118  |ddm|= 0.000536
  HOMO = -0.359400072844397  LUMO = 0.0855612312582426
cycle= 8 E= -534.815104387219  delta_E= -2.33e-09  |g|= 6.88e-05  |ddm|= 0.000126
  HOMO = -0.359405028045021  LUMO = 0.085562252594399
cycle= 9 E= -534.815104388125  delta_E= -9.06e-10  |g|= 1.06e-05  |ddm|= 5.32e-05
  HOMO = -0.359403184349448  LUMO = 0.0855629459760336
Extra cycle  E= -534.815104388131  delta_E= -6.37e-12  |g|= 9.65e-06  |ddm|= 1.27e-05
converged SCF energy = -534.815104388131
tot grids = 240170
