#INFO: **** input file is /home/wsr/dftpart/test_hfeda/watercl/test_wcl.py ****
from dftpart import scfeda

mollist = ['5','6','7'
#,'8','9'
#,'c4h10','c6h14'
]
basislist = [
#'6-31g',
'6-31gss','6-311gss',
#'6-311+gss',
'cc-pvdz','cc-pvtz',
'def2-svp','def2-tzvp'
]
for mol in mollist:
    for basis in basislist:
        test1 = scfeda.EDA()
        test1.gjf = './TIP4P-'+mol+'.xyz'
        test1.method = ['m062x',basis]
        test1.output = 'TIP4P-'+mol.upper()+'_'+basis
        #test1.build()
        test1.kernel()

#INFO: ******************** input file end ********************


System: uname_result(system='Linux', node='lw06', release='3.10.0-957.el7.x86_64', version='#1 SMP Thu Nov 8 23:39:32 UTC 2018', machine='x86_64', processor='x86_64')  Threads 48
Python 3.7.3 (default, Mar 27 2019, 22:11:17) 
[GCC 7.3.0]
numpy 1.16.2  scipy 1.2.1
Date: Fri Jul 12 10:59:57 2019
PySCF version 1.6.2
PySCF path  /home/wsr/pyscf

[CONFIG] conf_file None
[INPUT] verbose = 4
[INPUT] num. atoms = 18
[INPUT] num. electrons = 60
[INPUT] charge = 0
[INPUT] spin (= nelec alpha-beta = 2S) = 0
[INPUT] symmetry False subgroup None
[INPUT] Mole.unit = angstrom
[INPUT]  1 O     -1.982669400000   0.883448200000   1.808752200000 AA   -3.746702161556   1.669475143240   3.418046285205 Bohr
[INPUT]  2 H     -2.328897300000   1.607737800000   2.330061000000 AA   -4.400978069239   3.038184122111   4.403177143530 Bohr
[INPUT]  3 H     -1.471882300000   1.306998500000   1.118872700000 AA   -2.781454434595   2.469869210217   2.114362971253 Bohr
[INPUT]  4 O     -0.512423800000  -1.337196400000   1.103744000000 AA   -0.968340641709  -2.526934970754   2.085773871632 Bohr
[INPUT]  5 H     -1.102745900000  -0.701650500000   1.508507200000 AA   -2.083887735987  -1.325927280164   2.850665464934 Bohr
[INPUT]  6 H      0.351868900000  -0.929158500000   1.156042300000 AA    0.664935852752  -1.755855091312   2.184603335412 Bohr
[INPUT]  7 O      1.815588700000   0.169966700000   0.696514100000 AA    3.430965397855   0.321190513296   1.316220890898 Bohr
[INPUT]  8 H      1.974768600000  -0.153847300000  -0.190073900000 AA    3.731771813391  -0.290729262004  -0.359187614428 Bohr
[INPUT]  9 H      2.680168300000   0.180043800000   1.107163000000 AA    5.064784054741   0.340233472426   2.092234845252 Bohr
[INPUT] 10 O     -0.862907500000  -0.737087500000  -1.496725600000 AA   -1.630658845833  -1.392893504840  -2.828401467625 Bohr
[INPUT] 11 H     -1.677023800000  -1.112121800000  -1.832576800000 AA   -3.169115686377  -2.101605619158  -3.463068254232 Bohr
[INPUT] 12 H     -0.805001900000  -1.056623400000  -0.596294700000 AA   -1.521233120755  -1.996728842807  -1.126833672530 Bohr
[INPUT] 13 O     -0.355264100000   1.706914500000  -0.196274500000 AA   -0.671351850890   3.225600923049  -0.370905050236 Bohr
[INPUT] 14 H     -0.623056300000   1.028637400000  -0.816322500000 AA   -1.177405767185   1.943842967485  -1.542625954320 Bohr
[INPUT] 15 H      0.471344300000   1.388033000000   0.166030700000 AA    0.890711637375   2.623002221858   0.313752551270 Bohr
[INPUT] 16 O      1.867730600000  -0.708244300000  -1.872763500000 AA    3.529499308470  -1.338387756284  -3.539010111082 Bohr
[INPUT] 17 H      2.089806800000  -0.397234400000  -2.750366500000 AA    3.949162505254  -0.750664223256  -5.197439427179 Bohr
[INPUT] 18 H      0.915907900000  -0.808501900000  -1.887397100000 AA    1.730815086326  -1.527847162190  -3.566663607298 Bohr

nuclear repulsion = 306.061346319321
number of shells = 114
number of NR pGTOs = 372
number of NR cGTOs = 258
basis = def2-tzvp
ecp = {}
CPU time:     16506.62


******** <class 'pyscf.dft.rks.RKS'> ********
method = RKS-RHF
initial guess = minao
damping factor = 0
level shift factor = 0
DIIS = <class 'pyscf.scf.diis.CDIIS'>
DIIS start cycle = 1
DIIS space = 8
SCF tol = 1e-09
SCF gradient tol = None
max. SCF cycles = 50
direct_scf = True
direct_scf_tol = 1e-13
chkfile to save SCF result = /home/wsr/dftpart/test_hfeda/watercl/tmpjvux28k_
max_memory 4000 MB (current use 1144 MB)
XC functionals = m062x
small_rho_cutoff = 1e-07
radial grids: 
    Treutler-Ahlrichs (JCP 102, 346 (M4)) radial grids
    
becke partition: Becke, JCP, 88, 2547 (1988)
pruning grids: <function nwchem_prune at 0x2b291b4d6378>
grids dens level: 3
symmetrized grids: False
atomic radii adjust function: <function treutler_atomic_radii_adjust at 0x2b291b4d62f0>
Set gradient conv threshold to 3.16228e-05
tot grids = 205860
init E= -458.391531385679
  HOMO = -0.450068744376977  LUMO = -0.0249884758058132
cycle= 1 E= -458.371999480193  delta_E= 0.0195  |g|= 1.25  |ddm|= 2.34
  HOMO = -0.264667990750895  LUMO = 0.0511794588358424
cycle= 2 E= -458.361980821751  delta_E= 0.01  |g|= 1.32  |ddm|= 1.31
  HOMO = -0.388990694527438  LUMO = 0.0311169239621907
cycle= 3 E= -458.637143890497  delta_E= -0.275  |g|= 0.0591  |ddm|= 0.648
  HOMO = -0.385085899436526  LUMO = 0.0345458382440427
cycle= 4 E= -458.637680761664  delta_E= -0.000537  |g|= 0.0132  |ddm|= 0.0329
  HOMO = -0.385830395280235  LUMO = 0.0345255683016904
cycle= 5 E= -458.637698024004  delta_E= -1.73e-05  |g|= 0.00939  |ddm|= 0.0111
  HOMO = -0.385982620745612  LUMO = 0.0344655655844245
cycle= 6 E= -458.637711849099  delta_E= -1.38e-05  |g|= 0.000847  |ddm|= 0.00451
  HOMO = -0.385989346889626  LUMO = 0.0344704833823546
cycle= 7 E= -458.637711995058  delta_E= -1.46e-07  |g|= 0.000216  |ddm|= 0.000789
  HOMO = -0.38598506696408  LUMO = 0.0344670760849242
cycle= 8 E= -458.637712002286  delta_E= -7.23e-09  |g|= 9.67e-05  |ddm|= 0.000153
  HOMO = -0.38599339182913  LUMO = 0.0344677593495019
cycle= 9 E= -458.637712003915  delta_E= -1.63e-09  |g|= 2.64e-05  |ddm|= 6.98e-05
  HOMO = -0.385990447397744  LUMO = 0.034468463740792
cycle= 10 E= -458.637712004057  delta_E= -1.43e-10  |g|= 3.35e-06  |ddm|= 2.05e-05
  HOMO = -0.385990590568733  LUMO = 0.034468481277642
Extra cycle  E= -458.637712004061  delta_E= -3.75e-12  |g|= 3.12e-06  |ddm|= 3.92e-06
converged SCF energy = -458.637712004061
tot grids = 205860
