#INFO: **** input file is /home/wsr/dftpart/test_hfeda/watercl/test_wcl.py ****
from dftpart import scfeda

mollist = ['5','6','7'
#,'8','9'
#,'c4h10','c6h14'
]
basislist = [
#'6-31g',
'6-31gss','6-311gss',
#'6-311+gss',
'cc-pvdz','cc-pvtz',
'def2-svp','def2-tzvp'
]
for mol in mollist:
    for basis in basislist:
        test1 = scfeda.EDA()
        test1.gjf = './TIP4P-'+mol+'.xyz'
        test1.method = ['m062x',basis]
        test1.output = 'TIP4P-'+mol.upper()+'_'+basis
        #test1.build()
        test1.kernel()

#INFO: ******************** input file end ********************


System: uname_result(system='Linux', node='lw06', release='3.10.0-957.el7.x86_64', version='#1 SMP Thu Nov 8 23:39:32 UTC 2018', machine='x86_64', processor='x86_64')  Threads 48
Python 3.7.3 (default, Mar 27 2019, 22:11:17) 
[GCC 7.3.0]
numpy 1.16.2  scipy 1.2.1
Date: Fri Jul 12 10:45:14 2019
PySCF version 1.6.2
PySCF path  /home/wsr/pyscf

[CONFIG] conf_file None
[INPUT] verbose = 4
[INPUT] num. atoms = 15
[INPUT] num. electrons = 50
[INPUT] charge = 0
[INPUT] spin (= nelec alpha-beta = 2S) = 0
[INPUT] symmetry False subgroup None
[INPUT] Mole.unit = angstrom
[INPUT]  1 O     -0.956713400000  -1.604268900000   1.343511800000 AA   -1.807926305701  -3.031628851157   2.538869347121 Bohr
[INPUT]  2 H     -0.665024400000  -1.966281000000   2.180229700000 AA   -1.256713982153  -3.715732573936   4.120037021643 Bohr
[INPUT]  3 H     -1.002840000000  -0.660031600000   1.493579300000 AA   -1.895092946759  -1.247278957558   2.822455822320 Bohr
[INPUT]  4 O     -0.114545100000  -1.936524900000  -1.223526300000 AA   -0.216458867911  -3.659501694401  -2.312129613202 Bohr
[INPUT]  5 H     -0.436304500000  -2.801371300000  -1.477973900000 AA   -0.824496011915  -5.293824530217  -2.792965890255 Bohr
[INPUT]  6 H     -0.414222900000  -1.824853400000  -0.321331900000 AA   -0.782767835523  -3.448473143481  -0.607229286086 Bohr
[INPUT]  7 O      0.968480300000   2.075922200000   0.127058400000 AA    1.830162524037   3.922924413905   0.240105577825 Bohr
[INPUT]  8 H      0.989861200000   1.512821600000  -0.646693900000 AA    1.870566569333   2.858818499326  -1.222074357427 Bohr
[INPUT]  9 H      1.886626300000   2.288372200000   0.294703600000 AA    3.565207006402   4.324396729068   0.556909091923 Bohr
[INPUT] 10 O     -0.951491500000   1.079887900000   1.772333400000 AA   -1.798058344852   2.040692376232   3.349224727419 Bohr
[INPUT] 11 H     -0.255133200000   1.444577900000   1.226148100000 AA   -0.482131873284   2.729856596599   2.317084097156 Bohr
[INPUT] 12 H     -1.646161300000   1.737918600000   1.746616900000 AA   -3.110794013858   3.284190180788   3.300627585537 Bohr
[INPUT] 13 O      1.059236200000   0.398125200000  -2.009376100000 AA    2.001666319225   0.752347591288  -3.797170510247 Bohr
[INPUT] 14 H      0.770186100000   0.504481400000  -2.915671000000 AA    1.455440793947   0.953331680937  -5.509819659337 Bohr
[INPUT] 15 H      0.694190300000  -0.444198100000  -1.738331800000 AA    1.311829545330  -0.839412754052  -3.284971015622 Bohr

nuclear repulsion = 204.126757492735
number of shells = 60
number of NR pGTOs = 190
number of NR cGTOs = 120
basis = def2-svp
ecp = {}
CPU time:      5139.21


******** <class 'pyscf.dft.rks.RKS'> ********
method = RKS-RHF
initial guess = minao
damping factor = 0
level shift factor = 0
DIIS = <class 'pyscf.scf.diis.CDIIS'>
DIIS start cycle = 1
DIIS space = 8
SCF tol = 1e-09
SCF gradient tol = None
max. SCF cycles = 50
direct_scf = True
direct_scf_tol = 1e-13
chkfile to save SCF result = /home/wsr/dftpart/test_hfeda/watercl/tmp2wk875sb
max_memory 4000 MB (current use 543 MB)
XC functionals = m062x
small_rho_cutoff = 1e-07
radial grids: 
    Treutler-Ahlrichs (JCP 102, 346 (M4)) radial grids
    
becke partition: Becke, JCP, 88, 2547 (1988)
pruning grids: <function nwchem_prune at 0x2b291b4d6378>
grids dens level: 3
symmetrized grids: False
atomic radii adjust function: <function treutler_atomic_radii_adjust at 0x2b291b4d62f0>
Set gradient conv threshold to 3.16228e-05
tot grids = 171550
init E= -381.407993673779
  HOMO = -0.453224569140019  LUMO = -0.00453958564285798
cycle= 1 E= -381.46792137011  delta_E= -0.0599  |g|= 1.13  |ddm|= 3.02
  HOMO = -0.25319775703813  LUMO = 0.102586654021897
cycle= 2 E= -381.492181469965  delta_E= -0.0243  |g|= 1.08  |ddm|= 1.39
  HOMO = -0.374437328689729  LUMO = 0.0800558809557008
cycle= 3 E= -381.697503278892  delta_E= -0.205  |g|= 0.0381  |ddm|= 0.697
  HOMO = -0.371125327805223  LUMO = 0.0824086107020547
cycle= 4 E= -381.697760535685  delta_E= -0.000257  |g|= 0.00488  |ddm|= 0.0219
  HOMO = -0.371125803078143  LUMO = 0.0825336230729016
cycle= 5 E= -381.697768577105  delta_E= -8.04e-06  |g|= 0.00121  |ddm|= 0.00599
  HOMO = -0.371327767640531  LUMO = 0.0824960082044266
cycle= 6 E= -381.697768805865  delta_E= -2.29e-07  |g|= 0.000724  |ddm|= 0.00121
  HOMO = -0.371292191040077  LUMO = 0.0824898601854556
cycle= 7 E= -381.69776890026  delta_E= -9.44e-08  |g|= 0.00014  |ddm|= 0.000538
  HOMO = -0.371301080145171  LUMO = 0.0824902811614077
cycle= 8 E= -381.697768904376  delta_E= -4.12e-09  |g|= 1.95e-05  |ddm|= 0.000115
  HOMO = -0.371302907818502  LUMO = 0.08249018961479
cycle= 9 E= -381.697768904475  delta_E= -9.89e-11  |g|= 1.31e-05  |ddm|= 2.95e-05
  HOMO = -0.371301227604459  LUMO = 0.0824903029124086
Extra cycle  E= -381.697768904474  delta_E= 5.68e-13  |g|= 1.37e-05  |ddm|= 1.67e-05
converged SCF energy = -381.697768904474
tot grids = 171550
