#INFO: **** input file is /home/wsr/dftpart/test_hfeda/watercl/test_wcl.py ****
from dftpart import scfeda

mollist = [
#'5','6','7'
'8','9'
#,'c4h10','c6h14'
]
basislist = [
#'6-31g',
'6-31gss','6-311gss',
#'6-311+gss',
'cc-pvdz','cc-pvtz',
'def2-svp','def2-tzvp'
]
for mol in mollist:
    for basis in basislist:
        test1 = scfeda.EDA()
        test1.gjf = './TIP4P-'+mol+'.xyz'
        test1.method = ['m062x',basis]
        test1.output = 'TIP4P-'+mol.upper()+'_'+basis
        #test1.build()
        test1.kernel()

#INFO: ******************** input file end ********************


System: uname_result(system='Linux', node='lw06', release='3.10.0-957.el7.x86_64', version='#1 SMP Thu Nov 8 23:39:32 UTC 2018', machine='x86_64', processor='x86_64')  Threads 48
Python 3.7.3 (default, Mar 27 2019, 22:11:17) 
[GCC 7.3.0]
numpy 1.16.2  scipy 1.2.1
Date: Fri Jul 12 16:11:52 2019
PySCF version 1.6.2
PySCF path  /home/wsr/pyscf

[CONFIG] conf_file None
[INPUT] verbose = 4
[INPUT] num. atoms = 27
[INPUT] num. electrons = 90
[INPUT] charge = 0
[INPUT] spin (= nelec alpha-beta = 2S) = 0
[INPUT] symmetry False subgroup None
[INPUT] Mole.unit = angstrom
[INPUT]  1 O      0.409858400000  -3.173040700000   0.776362000000 AA    0.774520125852  -5.996177905098   1.467111553520 Bohr
[INPUT]  2 H      0.930140200000  -3.959017700000   0.943032200000 AA    1.757710235448  -7.481459175305   1.782072584646 Bohr
[INPUT]  3 H      1.055265600000  -2.498074600000   0.566356600000 AA    1.994162972675  -4.720676832732   1.070258862840 Bohr
[INPUT]  4 O     -1.237824700000   0.674557600000   1.772988900000 AA   -2.339149673222   1.274729119244   3.350463442894 Bohr
[INPUT]  5 H     -1.511302900000   1.281201400000   1.084930100000 AA   -2.855948572261   2.421119756409   2.050220753297 Bohr
[INPUT]  6 H     -1.499581200000  -0.187843900000   1.450531000000 AA   -2.833797769547  -0.354973525170   2.741106325191 Bohr
[INPUT]  7 O      2.109888800000  -1.171393000000   0.166682000000 AA    3.987111985287  -2.213611954233   0.314983329895 Bohr
[INPUT]  8 H      1.981035500000  -0.441414600000   0.772289400000 AA    3.743614538041  -0.834152701384   1.459415454905 Bohr
[INPUT]  9 H      1.891317600000  -0.811505300000  -0.692933900000 AA    3.574072278570  -1.533522765633  -1.309455293427 Bohr
[INPUT] 10 O     -1.867784800000  -1.727434900000   0.550687800000 AA   -3.529601731626  -3.264378859015   1.040649122139 Bohr
[INPUT] 11 H     -1.090409000000  -2.278375700000   0.642246800000 AA   -2.060574373761  -4.305506081864   1.213670556378 Bohr
[INPUT] 12 H     -2.600549600000  -2.312401000000   0.743308100000 AA   -4.914326517347  -4.369804580170   1.404648735171 Bohr
[INPUT] 13 O     -1.624648700000   2.256691400000  -0.470522300000 AA   -3.070141091631   4.264528693661  -0.889158282500 Bohr
[INPUT] 14 H     -0.681643800000   2.392680900000  -0.562612700000 AA   -1.288120096508   4.521511604478  -1.063183917202 Bohr
[INPUT] 15 H     -2.010283600000   3.111412500000  -0.662797400000 AA   -3.798885436705   5.879717485548  -1.252505562074 Bohr
[INPUT] 16 O     -1.452062600000  -0.209184200000  -1.725828900000 AA   -2.744000629724  -0.395300847586  -3.261343958859 Bohr
[INPUT] 17 H     -1.650001900000  -0.808336800000  -1.006059300000 AA   -3.118051696012  -1.527535168407  -1.901176542072 Bohr
[INPUT] 18 H     -1.662267000000   0.658466900000  -1.380535100000 AA   -3.141229375902   1.244322103091  -2.608833244349 Bohr
[INPUT] 19 O      1.436310000000   1.004389100000   1.736078800000 AA    2.714232529974   1.898020321498   3.280713462664 Bohr
[INPUT] 20 H      1.730434300000   1.261095700000   2.610049400000 AA    3.270046903553   2.383125489867   4.932278537585 Bohr
[INPUT] 21 H      0.494581900000   0.862272400000   1.831907700000 AA    0.934624337167   1.629458680771   3.461803838482 Bohr
[INPUT] 22 O      1.197965800000   0.021207800000  -2.156428600000 AA    2.263827268595   0.040076933705  -4.075059461179 Bohr
[INPUT] 23 H      0.255977400000  -0.121982500000  -2.064850800000 AA    0.483727180078  -0.230513516990  -3.902002500089 Bohr
[INPUT] 24 H      1.382329100000  -0.174855400000  -3.075015200000 AA    2.612223413017  -0.330428817401  -5.810936556875 Bohr
[INPUT] 25 O      1.055203600000   2.348515500000  -0.657807200000 AA    1.994045809655   4.438051094296  -1.243075450767 Bohr
[INPUT] 26 H      1.323832000000   2.005487000000   0.194485200000 AA    2.501679914935   3.789821176376   0.367523763281 Bohr
[INPUT] 27 H      1.234114100000   1.635396500000  -1.270738200000 AA    2.332137655464   3.090451490072  -2.401347174023 Bohr

nuclear repulsion = 618.927154606118
number of shells = 99
number of NR pGTOs = 360
number of NR cGTOs = 216
basis = cc-pvdz
ecp = {}
CPU time:     26397.41


******** <class 'pyscf.dft.rks.RKS'> ********
method = RKS-RHF
initial guess = minao
damping factor = 0
level shift factor = 0
DIIS = <class 'pyscf.scf.diis.CDIIS'>
DIIS start cycle = 1
DIIS space = 8
SCF tol = 1e-09
SCF gradient tol = None
max. SCF cycles = 50
direct_scf = True
direct_scf_tol = 1e-13
chkfile to save SCF result = /home/wsr/dftpart/test_hfeda/watercl/tmpsgdh499i
max_memory 4000 MB (current use 981 MB)
XC functionals = m062x
small_rho_cutoff = 1e-07
radial grids: 
    Treutler-Ahlrichs (JCP 102, 346 (M4)) radial grids
    
becke partition: Becke, JCP, 88, 2547 (1988)
pruning grids: <function nwchem_prune at 0x2b826a138378>
grids dens level: 3
symmetrized grids: False
atomic radii adjust function: <function treutler_atomic_radii_adjust at 0x2b826a1382f0>
Set gradient conv threshold to 3.16228e-05
tot grids = 308790
init E= -687.445932764712
  HOMO = -0.451795980609429  LUMO = -0.0322632454134582
cycle= 1 E= -687.316078921058  delta_E= 0.13  |g|= 1.45  |ddm|= 3.96
  HOMO = -0.24331408440248  LUMO = 0.0886092091492076
cycle= 2 E= -687.368981604331  delta_E= -0.0529  |g|= 1.37  |ddm|= 1.66
  HOMO = -0.361602725423601  LUMO = 0.063732971846396
cycle= 3 E= -687.689173236344  delta_E= -0.32  |g|= 0.0442  |ddm|= 0.815
  HOMO = -0.360504988328999  LUMO = 0.0667517961391105
cycle= 4 E= -687.689509952079  delta_E= -0.000337  |g|= 0.00958  |ddm|= 0.0271
  HOMO = -0.360793219915458  LUMO = 0.0667983502091333
cycle= 5 E= -687.68952577339  delta_E= -1.58e-05  |g|= 0.00573  |ddm|= 0.01
  HOMO = -0.361025224670085  LUMO = 0.0667357672430405
cycle= 6 E= -687.68953146918  delta_E= -5.7e-06  |g|= 0.000629  |ddm|= 0.00374
  HOMO = -0.36108136017025  LUMO = 0.0667214448050762
cycle= 7 E= -687.689531561065  delta_E= -9.19e-08  |g|= 0.000154  |ddm|= 0.000591
  HOMO = -0.361057597737679  LUMO = 0.0667198536521059
cycle= 8 E= -687.689531565023  delta_E= -3.96e-09  |g|= 7.12e-05  |ddm|= 0.000139
  HOMO = -0.361067064024877  LUMO = 0.066720388920282
cycle= 9 E= -687.689531566015  delta_E= -9.93e-10  |g|= 1.12e-05  |ddm|= 5.46e-05
  HOMO = -0.361064988579723  LUMO = 0.0667204600415996
Extra cycle  E= -687.689531566031  delta_E= -1.55e-11  |g|= 9.23e-06  |ddm|= 1.34e-05
converged SCF energy = -687.689531566031
tot grids = 308790
