#INFO: **** input file is /home/liwei01/wsr/dftpart/test_2body/w32/eda_c8.py ****
from dftpart import scfeda
from pyscf import lib

par = 8
with lib.with_omp_threads(par):
    test1 = scfeda.EDA()
    test1.gjf = 'w32.gjf'
    test1.method = ['hf','6-31gss']
    test1.output = 'w32'
    test1.verbose = 9
    #test1.build()
    test1.showinter=True
    test1.lso = 'w32/w32.lso'
    test1.kernel()
        

#INFO: ******************** input file end ********************


System: uname_result(system='Linux', node='master', release='3.10.0-693.el7.x86_64', version='#1 SMP Tue Aug 22 21:09:27 UTC 2017', machine='x86_64', processor='x86_64')  Threads 8
Python 3.7.6 (default, Jan  8 2020, 19:59:22) 
[GCC 7.3.0]
numpy 1.18.1  scipy 1.4.1
Date: Sat May 16 14:16:43 2020
PySCF version 1.6.1
PySCF path  /home/liwei01/zcheng/pyscf/pyscf
GIT HEAD      ref: refs/heads/master
GIT master branch  3adc7fd25839fe674469a52b764c3661e32d7318

[CONFIG] DEBUG = False
[CONFIG] MAX_MEMORY = 4000
[CONFIG] TMPDIR = .
[CONFIG] UNIT = angstrom
[CONFIG] VERBOSE = 3
[CONFIG] conf_file = None
[INPUT] verbose = 9
[INPUT] max_memory = 4000 
[INPUT] num. atoms = 96
[INPUT] num. electrons = 320
[INPUT] charge = 0
[INPUT] spin (= nelec alpha-beta = 2S) = 0
[INPUT] symmetry False subgroup None
[INPUT] Mole.unit = angstrom
[INPUT]  1 O      8.392325000000 -11.812941000000 -11.200483000000 AA   15.859195798340 -22.323223215646 -21.165845332847 Bohr
[INPUT]  2 H      8.175276000000 -12.537815000000 -10.614239000000 AA   15.449032632730 -23.693036550464 -20.058004730677 Bohr
[INPUT]  3 H      9.252154000000 -11.514100000000 -10.904475000000 AA   17.484037122299 -21.758495570855 -20.606471282167 Bohr
[INPUT]  4 O     10.706017000000 -10.848862000000 -10.091512000000 AA   20.231440014938 -20.501377943201 -19.070193862762 Bohr
[INPUT]  5 H     11.521407000000 -11.320280000000  -9.920812000000 AA   21.772303799647 -21.392228853391 -18.747617613299 Bohr
[INPUT]  6 H     10.567797000000 -10.316883000000  -9.307849000000 AA   19.970242070000 -19.496083329181 -17.589285418807 Bohr
[INPUT]  7 O      8.693246000000 -14.069272000000  -9.547113000000 AA   16.427854073471 -26.587070852012 -18.041428850275 Bohr
[INPUT]  8 H      8.220090000000 -13.732742000000  -8.786125000000 AA   15.533718819276 -25.951121319312 -16.603369946194 Bohr
[INPUT]  9 H      8.552802000000 -15.015659000000  -9.517782000000 AA   16.162453377632 -28.375483089860 -17.986001293315 Bohr
[INPUT] 10 O      7.250284000000  -9.859627000000 -13.103456000000 AA   13.701051085316 -18.631994720367 -24.761943125289 Bohr
[INPUT] 11 H      7.120660000000 -10.221473000000 -13.980096000000 AA   13.456097226145 -19.315784559636 -26.418552635128 Bohr
[INPUT] 12 H      7.341484000000 -10.626744000000 -12.538261000000 AA   13.873394107876 -20.081635755865 -23.693879368315 Bohr
[INPUT] 13 O      5.570392000000 -12.760041000000 -10.733807000000 AA   10.526515286468 -24.112982828221 -20.283955503939 Bohr
[INPUT] 14 H      4.642708000000 -12.827827000000 -10.507888000000 AA    8.773446596327 -24.241079803301 -19.857030467604 Bohr
[INPUT] 15 H      5.983752000000 -12.405170000000  -9.946767000000 AA   11.307652477318 -23.442373828671 -18.796665454862 Bohr
[INPUT] 16 O      6.966193000000  -9.247795000000 -10.274305000000 AA   13.164196900862 -17.475799806122 -19.415622570249 Bohr
[INPUT] 17 H      6.975152000000  -9.845016000000 -11.022289000000 AA   13.181126957212 -18.604383931961 -20.829107475806 Bohr
[INPUT] 18 H      7.684375000000  -8.638472000000 -10.445098000000 AA   14.521364188455 -16.324346214724 -19.738374564242 Bohr
[INPUT] 19 O      6.942642000000 -11.829381000000  -8.371044000000 AA   13.119691960903 -22.354290313134 -15.818980536684 Bohr
[INPUT] 20 H      7.495574000000 -12.091052000000  -7.634819000000 AA   14.164582006411 -22.848776837875 -14.427716920626 Bohr
[INPUT] 21 H      7.307461000000 -10.992840000000  -8.659728000000 AA   13.809099955940 -20.773456931164 -16.364514233228 Bohr
[INPUT] 22 O      9.739714000000 -14.560219000000 -13.084136000000 AA   18.405391991592 -27.514826223689 -24.725433616562 Bohr
[INPUT] 23 H      9.436683000000 -13.920876000000 -12.439430000000 AA   17.832746394339 -26.306643054031 -23.507115845698 Bohr
[INPUT] 24 H     10.652707000000 -14.322974000000 -13.246584000000 AA   20.130698715237 -27.066498149266 -25.032415846046 Bohr
[INPUT] 25 O     10.084912000000  -9.602997000000 -13.694410000000 AA   19.057721670340 -18.147034305020 -25.878684337505 Bohr
[INPUT] 26 H      9.837963000000  -9.877914000000 -14.577398000000 AA   18.591055693604 -18.666552142007 -27.547289828782 Bohr
[INPUT] 27 H      9.267108000000  -9.628370000000 -13.197635000000 AA   17.512296086766 -18.194982325979 -24.939915641974 Bohr
[INPUT] 28 O      9.473772000000  -7.997188000000 -10.918041000000 AA   17.902834446573 -15.112495086658 -20.632107306772 Bohr
[INPUT] 29 H      9.997520000000  -8.795627000000 -10.851588000000 AA   18.892574724862 -16.621326123830 -20.506529336617 Bohr
[INPUT] 30 H      9.623390000000  -7.542356000000 -10.089201000000 AA   18.185571489878 -14.252987173970 -19.065826705688 Bohr
[INPUT] 31 O      8.451586000000 -10.635579000000 -15.685931000000 AA   15.971182858208 -20.098331486176 -29.642113598825 Bohr
[INPUT] 32 H      8.125035000000 -10.406856000000 -16.556152000000 AA   15.354090902505 -19.666107657787 -31.286592956670 Bohr
[INPUT] 33 H      9.262189000000 -11.116608000000 -15.852568000000 AA   17.503000523959 -21.007344554149 -29.957011891044 Bohr
[INPUT] 34 O      4.039142000000 -11.224262000000 -12.804410000000 AA    7.632872158228 -21.210781130363 -24.196828086642 Bohr
[INPUT] 35 H      4.524844000000 -12.047609000000 -12.755179000000 AA    8.550715916381 -22.766681465845 -24.103794979804 Bohr
[INPUT] 36 H      4.432119000000 -10.757539000000 -13.541956000000 AA    8.375491061481 -20.328802484328 -25.590588030911 Bohr
[INPUT] 37 O      5.584754000000 -15.592165000000 -11.469857000000 AA   10.553655533069 -29.464921539029 -21.674888417925 Bohr
[INPUT] 38 H      4.678503000000 -15.348320000000 -11.658221000000 AA    8.841089342956 -29.004121272184 -22.030844789653 Bohr
[INPUT] 39 H      6.003083000000 -14.773540000000 -11.203238000000 AA   11.344182773032 -27.917944490307 -21.171051528320 Bohr
[INPUT] 40 O      8.801253000000 -12.425877000000  -6.497294000000 AA   16.631957723007 -23.481504387532 -12.278106210780 Bohr
[INPUT] 41 H      9.055634000000 -11.748983000000  -5.870127000000 AA   17.112668144300 -22.202360112171 -11.092932346415 Bohr
[INPUT] 42 H      8.939496000000 -13.249901000000  -6.030278000000 AA   16.893199131645 -25.038684067601 -11.395573874990 Bohr
[INPUT] 43 O     10.552310000000  -9.060178000000  -7.765728000000 AA   19.940975881509 -17.121255059810 -14.675099077866 Bohr
[INPUT] 44 H     10.029560000000  -9.452633000000  -7.066484000000 AA   18.953121549893 -17.862887526026 -13.353719423621 Bohr
[INPUT] 45 H     10.057649000000  -8.283933000000  -8.028378000000 AA   19.006202067006 -15.654364604247 -15.171435644483 Bohr
[INPUT] 46 O      8.491932000000 -14.159618000000 -15.711024000000 AA   16.047425748430 -26.757800048462 -29.689532496469 Bohr
[INPUT] 47 H      8.843942000000 -15.043720000000 -15.814399000000 AA   16.712628241538 -28.428510694642 -29.884882934596 Bohr
[INPUT] 48 H      8.918348000000 -13.822113000000 -14.923311000000 AA   16.853235203563 -26.120008032790 -28.200970661709 Bohr
[INPUT] 49 O     10.675204000000 -11.925165000000 -15.819193000000 AA   20.173211883861 -22.535295840249 -29.893942281637 Bohr
[INPUT] 50 H     11.145373000000 -12.259719000000 -15.055487000000 AA   21.061702526122 -23.167511274127 -28.450747101950 Bohr
[INPUT] 51 H     10.769363000000 -12.612255000000 -16.478945000000 AA   20.351146606024 -23.833707763176 -31.140692871771 Bohr
[INPUT] 52 O      7.759345000000 -16.504968000000 -13.246021000000 AA   14.663036956013 -31.189869214710 -25.031351930237 Bohr
[INPUT] 53 H      7.307919000000 -16.211137000000 -12.454749000000 AA   13.809965450505 -30.634609097803 -23.536064560201 Bohr
[INPUT] 54 H      8.537292000000 -15.949757000000 -13.298681000000 AA   16.133143725440 -30.140672483364 -25.130864907957 Bohr
[INPUT] 55 O     13.457564000000 -11.773284000000  -9.774029000000 AA   25.431110263806 -22.248282346724 -18.470237943557 Bohr
[INPUT] 56 H     13.908886000000 -10.996207000000 -10.103715000000 AA   26.283985237797 -20.779819639025 -19.093254190660 Bohr
[INPUT] 57 H     14.150775000000 -12.423635000000  -9.661183000000 AA   26.741089200342 -23.477267621561 -18.256989909304 Bohr
[INPUT] 58 O      5.591380000000 -15.533488000000  -8.700217000000 AA   10.566176858371 -29.354038079218 -16.441027354285 Bohr
[INPUT] 59 H      6.309279000000 -16.070726000000  -8.365208000000 AA   11.922809353470 -30.369270762927 -15.807952095021 Bohr
[INPUT] 60 H      5.476258000000 -15.823936000000  -9.604992000000 AA   10.348627807458 -29.902905252646 -18.150804308638 Bohr
[INPUT] 61 O      5.339755000000 -11.212242000000 -15.474518000000 AA   10.090674522277 -21.188066622346 -29.242600929652 Bohr
[INPUT] 62 H      5.880078000000 -10.458674000000 -15.712045000000 AA   11.111737011080 -19.764029486109 -29.691461906842 Bohr
[INPUT] 63 H      5.489557000000 -11.845700000000 -16.176318000000 AA   10.373759275189 -22.385128753760 -30.568810723872 Bohr
[INPUT] 64 O     12.996031000000 -14.713850000000 -11.210036000000 AA   24.558939296357 -27.805146737932 -21.183897886515 Bohr
[INPUT] 65 H     12.286420000000 -15.161884000000 -10.749655000000 AA   23.217968851379 -28.651808292425 -20.313903883561 Bohr
[INPUT] 66 H     13.635659000000 -14.512360000000 -10.527021000000 AA   25.767661037961 -27.424385821093 -19.893186597545 Bohr
[INPUT] 67 O      4.641258000000  -8.138278000000 -12.671145000000 AA    8.770706493447 -15.379116545573 -23.944993734652 Bohr
[INPUT] 68 H      4.597809000000  -7.272042000000 -12.266198000000 AA    8.688599783060 -13.742167746334 -23.179754809688 Bohr
[INPUT] 69 H      5.576498000000  -8.338407000000 -12.709967000000 AA   10.538053954185 -15.757305545156 -24.018356682260 Bohr
[INPUT] 70 O      8.961140000000 -17.016740000000  -9.275474000000 AA   16.934100363885 -32.156978132931 -17.528105535524 Bohr
[INPUT] 71 H      8.673584000000 -17.219063000000  -8.385188000000 AA   16.390698278410 -32.539313191632 -15.845708822989 Bohr
[INPUT] 72 H      8.302553000000 -17.423375000000  -9.838628000000 AA   15.689551304686 -32.925406915594 -18.592312361477 Bohr
[INPUT] 73 O     12.890023000000  -9.690601000000 -13.751128000000 AA   24.358613209345 -18.312581872436 -25.985865823838 Bohr
[INPUT] 74 H     13.488436000000  -9.845906000000 -13.020365000000 AA   25.489449888724 -18.606065788212 -24.604923891873 Bohr
[INPUT] 75 H     12.017146000000  -9.742740000000 -13.361769000000 AA   22.709114738913 -18.411110302845 -25.250083949704 Bohr
[INPUT] 76 O      4.906964000000  -7.910014000000  -9.130039000000 AA    9.272818063100 -14.947760101475 -17.253273216598 Bohr
[INPUT] 77 H      4.063520000000  -8.026505000000  -9.567378000000 AA    7.678939901693 -15.167896187452 -18.079724150189 Bohr
[INPUT] 78 H      5.422730000000  -8.670974000000  -9.396791000000 AA   10.247474547463 -16.385766093224 -17.757361439778 Bohr
[INPUT] 79 O      2.954727000000 -12.702446000000  -9.875706000000 AA    5.583624802858 -24.004144052077 -18.662379626724 Bohr
[INPUT] 80 H      3.064054000000 -13.504841000000  -9.365369000000 AA    5.790222890878 -25.520450845797 -17.697982465492 Bohr
[INPUT] 81 H      2.738448000000 -12.032883000000  -9.226753000000 AA    5.174916726363 -22.738853358935 -17.436036189009 Bohr
[INPUT] 82 O      4.210768000000 -13.330605000000  -7.554598000000 AA    7.957198294083 -25.191192524758 -14.276121201187 Bohr
[INPUT] 83 H      4.963781000000 -12.745268000000  -7.473460000000 AA    9.380186632320 -24.085065904183 -14.122792602892 Bohr
[INPUT] 84 H      4.583488000000 -14.161788000000  -7.848620000000 AA    8.661537015230 -26.761900754152 -14.831742255784 Bohr
[INPUT] 85 O      8.538876000000  -6.261102000000 -12.948352000000 AA   16.136137051622 -11.831768017967 -24.468839044464 Bohr
[INPUT] 86 H      8.880032000000  -6.849136000000 -12.274511000000 AA   16.780828457374 -12.942991229899 -23.195464102961 Bohr
[INPUT] 87 H      9.276723000000  -6.122958000000 -13.542264000000 AA   17.530465803454 -11.570713692215 -25.591170066557 Bohr
[INPUT] 88 O     11.471495000000 -15.355316000000  -7.518016000000 AA   21.677983789317 -29.017341796152 -14.206991240098 Bohr
[INPUT] 89 H     10.864403000000 -15.355750000000  -8.258065000000 AA   20.530746176903 -29.018161937290 -15.605481168856 Bohr
[INPUT] 90 H     11.907538000000 -14.504542000000  -7.565812000000 AA   22.501985637851 -27.409611942251 -14.297312589948 Bohr
[INPUT] 91 O     12.813764000000 -13.018467000000  -7.366324000000 AA   24.214504584811 -24.601337191688 -13.920334904811 Bohr
[INPUT] 92 H     12.481900000000 -12.417138000000  -6.699613000000 AA   23.587372514209 -23.464990070930 -12.660433710576 Bohr
[INPUT] 93 H     12.655150000000 -12.568166000000  -8.195965000000 AA   23.914767565290 -23.750391628070 -15.488129176521 Bohr
[INPUT] 94 O     11.324452000000 -17.011592000000 -10.762770000000 AA   21.400112790783 -32.147249822842 -20.338687641685 Bohr
[INPUT] 95 H     11.716545000000 -17.863306000000 -10.570212000000 AA   22.141061176142 -33.756756019300 -19.974805758591 Bohr
[INPUT] 96 H     10.442780000000 -17.064361000000 -10.393850000000 AA   19.733994179086 -32.246968780709 -19.641529879811 Bohr
[INPUT] ---------------- BASIS SET ---------------- 
[INPUT] l, kappa, [nprim/nctr], expnt,             c_1 c_2 ...
[INPUT] O
[INPUT] 0    0    [6    /1   ]  5484.6717         0.0018311
                                825.23495         0.0139501
                                188.04696         0.0684451
                                52.9645           0.2327143
                                16.89757          0.470193
                                5.7996353         0.3585209
[INPUT] 0    0    [3    /1   ]  15.539616         -0.1107775
                                3.5999336         -0.1480263
                                1.0137618         1.130767
[INPUT] 0    0    [1    /1   ]  0.2700058            1
[INPUT] 1    0    [3    /1   ]  15.539616         0.0708743
                                3.5999336         0.3397528
                                1.0137618         0.7271586
[INPUT] 1    0    [1    /1   ]  0.2700058            1
[INPUT] 2    0    [1    /1   ]  0.8                  1
[INPUT] H
[INPUT] 0    0    [3    /1   ]  18.731137         0.0334946
                                2.8253937         0.23472695
                                0.6401217         0.81375733
[INPUT] 0    0    [1    /1   ]  0.1612778            1
[INPUT] 1    0    [1    /1   ]  1.1                  1

nuclear repulsion = 4929.16462533499
number of shells = 384
number of NR pGTOs = 1312
number of NR cGTOs = 768
basis = 6-31gss
ecp = {}
bas 0, expnt(s) = [5484.6717     825.23495    188.04696     52.9645      16.89757
    5.7996353]
bas 1, expnt(s) = [15.539616   3.5999336  1.0137618]
bas 2, expnt(s) = [0.2700058]
bas 3, expnt(s) = [15.539616   3.5999336  1.0137618]
bas 4, expnt(s) = [0.2700058]
bas 5, expnt(s) = [0.8]
bas 6, expnt(s) = [18.731137   2.8253937  0.6401217]
bas 7, expnt(s) = [0.1612778]
bas 8, expnt(s) = [1.1]
bas 9, expnt(s) = [18.731137   2.8253937  0.6401217]
bas 10, expnt(s) = [0.1612778]
bas 11, expnt(s) = [1.1]
bas 12, expnt(s) = [5484.6717     825.23495    188.04696     52.9645      16.89757
    5.7996353]
bas 13, expnt(s) = [15.539616   3.5999336  1.0137618]
bas 14, expnt(s) = [0.2700058]
bas 15, expnt(s) = [15.539616   3.5999336  1.0137618]
bas 16, expnt(s) = [0.2700058]
bas 17, expnt(s) = [0.8]
bas 18, expnt(s) = [18.731137   2.8253937  0.6401217]
bas 19, expnt(s) = [0.1612778]
bas 20, expnt(s) = [1.1]
bas 21, expnt(s) = [18.731137   2.8253937  0.6401217]
bas 22, expnt(s) = [0.1612778]
bas 23, expnt(s) = [1.1]
bas 24, expnt(s) = [5484.6717     825.23495    188.04696     52.9645      16.89757
    5.7996353]
bas 25, expnt(s) = [15.539616   3.5999336  1.0137618]
bas 26, expnt(s) = [0.2700058]
bas 27, expnt(s) = [15.539616   3.5999336  1.0137618]
bas 28, expnt(s) = [0.2700058]
bas 29, expnt(s) = [0.8]
bas 30, expnt(s) = [18.731137   2.8253937  0.6401217]
bas 31, expnt(s) = [0.1612778]
bas 32, expnt(s) = [1.1]
bas 33, expnt(s) = [18.731137   2.8253937  0.6401217]
bas 34, expnt(s) = [0.1612778]
bas 35, expnt(s) = [1.1]
bas 36, expnt(s) = [5484.6717     825.23495    188.04696     52.9645      16.89757
    5.7996353]
bas 37, expnt(s) = [15.539616   3.5999336  1.0137618]
bas 38, expnt(s) = [0.2700058]
bas 39, expnt(s) = [15.539616   3.5999336  1.0137618]
bas 40, expnt(s) = [0.2700058]
bas 41, expnt(s) = [0.8]
bas 42, expnt(s) = [18.731137   2.8253937  0.6401217]
bas 43, expnt(s) = [0.1612778]
bas 44, expnt(s) = [1.1]
bas 45, expnt(s) = [18.731137   2.8253937  0.6401217]
bas 46, expnt(s) = [0.1612778]
bas 47, expnt(s) = [1.1]
bas 48, expnt(s) = [5484.6717     825.23495    188.04696     52.9645      16.89757
    5.7996353]
bas 49, expnt(s) = [15.539616   3.5999336  1.0137618]
bas 50, expnt(s) = [0.2700058]
bas 51, expnt(s) = [15.539616   3.5999336  1.0137618]
bas 52, expnt(s) = [0.2700058]
bas 53, expnt(s) = [0.8]
bas 54, expnt(s) = [18.731137   2.8253937  0.6401217]
bas 55, expnt(s) = [0.1612778]
bas 56, expnt(s) = [1.1]
bas 57, expnt(s) = [18.731137   2.8253937  0.6401217]
bas 58, expnt(s) = [0.1612778]
bas 59, expnt(s) = [1.1]
bas 60, expnt(s) = [5484.6717     825.23495    188.04696     52.9645      16.89757
    5.7996353]
bas 61, expnt(s) = [15.539616   3.5999336  1.0137618]
bas 62, expnt(s) = [0.2700058]
bas 63, expnt(s) = [15.539616   3.5999336  1.0137618]
bas 64, expnt(s) = [0.2700058]
bas 65, expnt(s) = [0.8]
bas 66, expnt(s) = [18.731137   2.8253937  0.6401217]
bas 67, expnt(s) = [0.1612778]
bas 68, expnt(s) = [1.1]
bas 69, expnt(s) = [18.731137   2.8253937  0.6401217]
bas 70, expnt(s) = [0.1612778]
bas 71, expnt(s) = [1.1]
bas 72, expnt(s) = [5484.6717     825.23495    188.04696     52.9645      16.89757
    5.7996353]
bas 73, expnt(s) = [15.539616   3.5999336  1.0137618]
bas 74, expnt(s) = [0.2700058]
bas 75, expnt(s) = [15.539616   3.5999336  1.0137618]
bas 76, expnt(s) = [0.2700058]
bas 77, expnt(s) = [0.8]
bas 78, expnt(s) = [18.731137   2.8253937  0.6401217]
bas 79, expnt(s) = [0.1612778]
bas 80, expnt(s) = [1.1]
bas 81, expnt(s) = [18.731137   2.8253937  0.6401217]
bas 82, expnt(s) = [0.1612778]
bas 83, expnt(s) = [1.1]
bas 84, expnt(s) = [5484.6717     825.23495    188.04696     52.9645      16.89757
    5.7996353]
bas 85, expnt(s) = [15.539616   3.5999336  1.0137618]
bas 86, expnt(s) = [0.2700058]
bas 87, expnt(s) = [15.539616   3.5999336  1.0137618]
bas 88, expnt(s) = [0.2700058]
bas 89, expnt(s) = [0.8]
bas 90, expnt(s) = [18.731137   2.8253937  0.6401217]
bas 91, expnt(s) = [0.1612778]
bas 92, expnt(s) = [1.1]
bas 93, expnt(s) = [18.731137   2.8253937  0.6401217]
bas 94, expnt(s) = [0.1612778]
bas 95, expnt(s) = [1.1]
bas 96, expnt(s) = [5484.6717     825.23495    188.04696     52.9645      16.89757
    5.7996353]
bas 97, expnt(s) = [15.539616   3.5999336  1.0137618]
bas 98, expnt(s) = [0.2700058]
bas 99, expnt(s) = [15.539616   3.5999336  1.0137618]
bas 100, expnt(s) = [0.2700058]
bas 101, expnt(s) = [0.8]
bas 102, expnt(s) = [18.731137   2.8253937  0.6401217]
bas 103, expnt(s) = [0.1612778]
bas 104, expnt(s) = [1.1]
bas 105, expnt(s) = [18.731137   2.8253937  0.6401217]
bas 106, expnt(s) = [0.1612778]
bas 107, expnt(s) = [1.1]
bas 108, expnt(s) = [5484.6717     825.23495    188.04696     52.9645      16.89757
    5.7996353]
bas 109, expnt(s) = [15.539616   3.5999336  1.0137618]
bas 110, expnt(s) = [0.2700058]
bas 111, expnt(s) = [15.539616   3.5999336  1.0137618]
bas 112, expnt(s) = [0.2700058]
bas 113, expnt(s) = [0.8]
bas 114, expnt(s) = [18.731137   2.8253937  0.6401217]
bas 115, expnt(s) = [0.1612778]
bas 116, expnt(s) = [1.1]
bas 117, expnt(s) = [18.731137   2.8253937  0.6401217]
bas 118, expnt(s) = [0.1612778]
bas 119, expnt(s) = [1.1]
bas 120, expnt(s) = [5484.6717     825.23495    188.04696     52.9645      16.89757
    5.7996353]
bas 121, expnt(s) = [15.539616   3.5999336  1.0137618]
bas 122, expnt(s) = [0.2700058]
bas 123, expnt(s) = [15.539616   3.5999336  1.0137618]
bas 124, expnt(s) = [0.2700058]
bas 125, expnt(s) = [0.8]
bas 126, expnt(s) = [18.731137   2.8253937  0.6401217]
bas 127, expnt(s) = [0.1612778]
bas 128, expnt(s) = [1.1]
bas 129, expnt(s) = [18.731137   2.8253937  0.6401217]
bas 130, expnt(s) = [0.1612778]
bas 131, expnt(s) = [1.1]
bas 132, expnt(s) = [5484.6717     825.23495    188.04696     52.9645      16.89757
    5.7996353]
bas 133, expnt(s) = [15.539616   3.5999336  1.0137618]
bas 134, expnt(s) = [0.2700058]
bas 135, expnt(s) = [15.539616   3.5999336  1.0137618]
bas 136, expnt(s) = [0.2700058]
bas 137, expnt(s) = [0.8]
bas 138, expnt(s) = [18.731137   2.8253937  0.6401217]
bas 139, expnt(s) = [0.1612778]
bas 140, expnt(s) = [1.1]
bas 141, expnt(s) = [18.731137   2.8253937  0.6401217]
bas 142, expnt(s) = [0.1612778]
bas 143, expnt(s) = [1.1]
bas 144, expnt(s) = [5484.6717     825.23495    188.04696     52.9645      16.89757
    5.7996353]
bas 145, expnt(s) = [15.539616   3.5999336  1.0137618]
bas 146, expnt(s) = [0.2700058]
bas 147, expnt(s) = [15.539616   3.5999336  1.0137618]
bas 148, expnt(s) = [0.2700058]
bas 149, expnt(s) = [0.8]
bas 150, expnt(s) = [18.731137   2.8253937  0.6401217]
bas 151, expnt(s) = [0.1612778]
bas 152, expnt(s) = [1.1]
bas 153, expnt(s) = [18.731137   2.8253937  0.6401217]
bas 154, expnt(s) = [0.1612778]
bas 155, expnt(s) = [1.1]
bas 156, expnt(s) = [5484.6717     825.23495    188.04696     52.9645      16.89757
    5.7996353]
bas 157, expnt(s) = [15.539616   3.5999336  1.0137618]
bas 158, expnt(s) = [0.2700058]
bas 159, expnt(s) = [15.539616   3.5999336  1.0137618]
bas 160, expnt(s) = [0.2700058]
bas 161, expnt(s) = [0.8]
bas 162, expnt(s) = [18.731137   2.8253937  0.6401217]
bas 163, expnt(s) = [0.1612778]
bas 164, expnt(s) = [1.1]
bas 165, expnt(s) = [18.731137   2.8253937  0.6401217]
bas 166, expnt(s) = [0.1612778]
bas 167, expnt(s) = [1.1]
bas 168, expnt(s) = [5484.6717     825.23495    188.04696     52.9645      16.89757
    5.7996353]
bas 169, expnt(s) = [15.539616   3.5999336  1.0137618]
bas 170, expnt(s) = [0.2700058]
bas 171, expnt(s) = [15.539616   3.5999336  1.0137618]
bas 172, expnt(s) = [0.2700058]
bas 173, expnt(s) = [0.8]
bas 174, expnt(s) = [18.731137   2.8253937  0.6401217]
bas 175, expnt(s) = [0.1612778]
bas 176, expnt(s) = [1.1]
bas 177, expnt(s) = [18.731137   2.8253937  0.6401217]
bas 178, expnt(s) = [0.1612778]
bas 179, expnt(s) = [1.1]
bas 180, expnt(s) = [5484.6717     825.23495    188.04696     52.9645      16.89757
    5.7996353]
bas 181, expnt(s) = [15.539616   3.5999336  1.0137618]
bas 182, expnt(s) = [0.2700058]
bas 183, expnt(s) = [15.539616   3.5999336  1.0137618]
bas 184, expnt(s) = [0.2700058]
bas 185, expnt(s) = [0.8]
bas 186, expnt(s) = [18.731137   2.8253937  0.6401217]
bas 187, expnt(s) = [0.1612778]
bas 188, expnt(s) = [1.1]
bas 189, expnt(s) = [18.731137   2.8253937  0.6401217]
bas 190, expnt(s) = [0.1612778]
bas 191, expnt(s) = [1.1]
bas 192, expnt(s) = [5484.6717     825.23495    188.04696     52.9645      16.89757
    5.7996353]
bas 193, expnt(s) = [15.539616   3.5999336  1.0137618]
bas 194, expnt(s) = [0.2700058]
bas 195, expnt(s) = [15.539616   3.5999336  1.0137618]
bas 196, expnt(s) = [0.2700058]
bas 197, expnt(s) = [0.8]
bas 198, expnt(s) = [18.731137   2.8253937  0.6401217]
bas 199, expnt(s) = [0.1612778]
bas 200, expnt(s) = [1.1]
bas 201, expnt(s) = [18.731137   2.8253937  0.6401217]
bas 202, expnt(s) = [0.1612778]
bas 203, expnt(s) = [1.1]
bas 204, expnt(s) = [5484.6717     825.23495    188.04696     52.9645      16.89757
    5.7996353]
bas 205, expnt(s) = [15.539616   3.5999336  1.0137618]
bas 206, expnt(s) = [0.2700058]
bas 207, expnt(s) = [15.539616   3.5999336  1.0137618]
bas 208, expnt(s) = [0.2700058]
bas 209, expnt(s) = [0.8]
bas 210, expnt(s) = [18.731137   2.8253937  0.6401217]
bas 211, expnt(s) = [0.1612778]
bas 212, expnt(s) = [1.1]
bas 213, expnt(s) = [18.731137   2.8253937  0.6401217]
bas 214, expnt(s) = [0.1612778]
bas 215, expnt(s) = [1.1]
bas 216, expnt(s) = [5484.6717     825.23495    188.04696     52.9645      16.89757
    5.7996353]
bas 217, expnt(s) = [15.539616   3.5999336  1.0137618]
bas 218, expnt(s) = [0.2700058]
bas 219, expnt(s) = [15.539616   3.5999336  1.0137618]
bas 220, expnt(s) = [0.2700058]
bas 221, expnt(s) = [0.8]
bas 222, expnt(s) = [18.731137   2.8253937  0.6401217]
bas 223, expnt(s) = [0.1612778]
bas 224, expnt(s) = [1.1]
bas 225, expnt(s) = [18.731137   2.8253937  0.6401217]
bas 226, expnt(s) = [0.1612778]
bas 227, expnt(s) = [1.1]
bas 228, expnt(s) = [5484.6717     825.23495    188.04696     52.9645      16.89757
    5.7996353]
bas 229, expnt(s) = [15.539616   3.5999336  1.0137618]
bas 230, expnt(s) = [0.2700058]
bas 231, expnt(s) = [15.539616   3.5999336  1.0137618]
bas 232, expnt(s) = [0.2700058]
bas 233, expnt(s) = [0.8]
bas 234, expnt(s) = [18.731137   2.8253937  0.6401217]
bas 235, expnt(s) = [0.1612778]
bas 236, expnt(s) = [1.1]
bas 237, expnt(s) = [18.731137   2.8253937  0.6401217]
bas 238, expnt(s) = [0.1612778]
bas 239, expnt(s) = [1.1]
bas 240, expnt(s) = [5484.6717     825.23495    188.04696     52.9645      16.89757
    5.7996353]
bas 241, expnt(s) = [15.539616   3.5999336  1.0137618]
bas 242, expnt(s) = [0.2700058]
bas 243, expnt(s) = [15.539616   3.5999336  1.0137618]
bas 244, expnt(s) = [0.2700058]
bas 245, expnt(s) = [0.8]
bas 246, expnt(s) = [18.731137   2.8253937  0.6401217]
bas 247, expnt(s) = [0.1612778]
bas 248, expnt(s) = [1.1]
bas 249, expnt(s) = [18.731137   2.8253937  0.6401217]
bas 250, expnt(s) = [0.1612778]
bas 251, expnt(s) = [1.1]
bas 252, expnt(s) = [5484.6717     825.23495    188.04696     52.9645      16.89757
    5.7996353]
bas 253, expnt(s) = [15.539616   3.5999336  1.0137618]
bas 254, expnt(s) = [0.2700058]
bas 255, expnt(s) = [15.539616   3.5999336  1.0137618]
bas 256, expnt(s) = [0.2700058]
bas 257, expnt(s) = [0.8]
bas 258, expnt(s) = [18.731137   2.8253937  0.6401217]
bas 259, expnt(s) = [0.1612778]
bas 260, expnt(s) = [1.1]
bas 261, expnt(s) = [18.731137   2.8253937  0.6401217]
bas 262, expnt(s) = [0.1612778]
bas 263, expnt(s) = [1.1]
bas 264, expnt(s) = [5484.6717     825.23495    188.04696     52.9645      16.89757
    5.7996353]
bas 265, expnt(s) = [15.539616   3.5999336  1.0137618]
bas 266, expnt(s) = [0.2700058]
bas 267, expnt(s) = [15.539616   3.5999336  1.0137618]
bas 268, expnt(s) = [0.2700058]
bas 269, expnt(s) = [0.8]
bas 270, expnt(s) = [18.731137   2.8253937  0.6401217]
bas 271, expnt(s) = [0.1612778]
bas 272, expnt(s) = [1.1]
bas 273, expnt(s) = [18.731137   2.8253937  0.6401217]
bas 274, expnt(s) = [0.1612778]
bas 275, expnt(s) = [1.1]
bas 276, expnt(s) = [5484.6717     825.23495    188.04696     52.9645      16.89757
    5.7996353]
bas 277, expnt(s) = [15.539616   3.5999336  1.0137618]
bas 278, expnt(s) = [0.2700058]
bas 279, expnt(s) = [15.539616   3.5999336  1.0137618]
bas 280, expnt(s) = [0.2700058]
bas 281, expnt(s) = [0.8]
bas 282, expnt(s) = [18.731137   2.8253937  0.6401217]
bas 283, expnt(s) = [0.1612778]
bas 284, expnt(s) = [1.1]
bas 285, expnt(s) = [18.731137   2.8253937  0.6401217]
bas 286, expnt(s) = [0.1612778]
bas 287, expnt(s) = [1.1]
bas 288, expnt(s) = [5484.6717     825.23495    188.04696     52.9645      16.89757
    5.7996353]
bas 289, expnt(s) = [15.539616   3.5999336  1.0137618]
bas 290, expnt(s) = [0.2700058]
bas 291, expnt(s) = [15.539616   3.5999336  1.0137618]
bas 292, expnt(s) = [0.2700058]
bas 293, expnt(s) = [0.8]
bas 294, expnt(s) = [18.731137   2.8253937  0.6401217]
bas 295, expnt(s) = [0.1612778]
bas 296, expnt(s) = [1.1]
bas 297, expnt(s) = [18.731137   2.8253937  0.6401217]
bas 298, expnt(s) = [0.1612778]
bas 299, expnt(s) = [1.1]
bas 300, expnt(s) = [5484.6717     825.23495    188.04696     52.9645      16.89757
    5.7996353]
bas 301, expnt(s) = [15.539616   3.5999336  1.0137618]
bas 302, expnt(s) = [0.2700058]
bas 303, expnt(s) = [15.539616   3.5999336  1.0137618]
bas 304, expnt(s) = [0.2700058]
bas 305, expnt(s) = [0.8]
bas 306, expnt(s) = [18.731137   2.8253937  0.6401217]
bas 307, expnt(s) = [0.1612778]
bas 308, expnt(s) = [1.1]
bas 309, expnt(s) = [18.731137   2.8253937  0.6401217]
bas 310, expnt(s) = [0.1612778]
bas 311, expnt(s) = [1.1]
bas 312, expnt(s) = [5484.6717     825.23495    188.04696     52.9645      16.89757
    5.7996353]
bas 313, expnt(s) = [15.539616   3.5999336  1.0137618]
bas 314, expnt(s) = [0.2700058]
bas 315, expnt(s) = [15.539616   3.5999336  1.0137618]
bas 316, expnt(s) = [0.2700058]
bas 317, expnt(s) = [0.8]
bas 318, expnt(s) = [18.731137   2.8253937  0.6401217]
bas 319, expnt(s) = [0.1612778]
bas 320, expnt(s) = [1.1]
bas 321, expnt(s) = [18.731137   2.8253937  0.6401217]
bas 322, expnt(s) = [0.1612778]
bas 323, expnt(s) = [1.1]
bas 324, expnt(s) = [5484.6717     825.23495    188.04696     52.9645      16.89757
    5.7996353]
bas 325, expnt(s) = [15.539616   3.5999336  1.0137618]
bas 326, expnt(s) = [0.2700058]
bas 327, expnt(s) = [15.539616   3.5999336  1.0137618]
bas 328, expnt(s) = [0.2700058]
bas 329, expnt(s) = [0.8]
bas 330, expnt(s) = [18.731137   2.8253937  0.6401217]
bas 331, expnt(s) = [0.1612778]
bas 332, expnt(s) = [1.1]
bas 333, expnt(s) = [18.731137   2.8253937  0.6401217]
bas 334, expnt(s) = [0.1612778]
bas 335, expnt(s) = [1.1]
bas 336, expnt(s) = [5484.6717     825.23495    188.04696     52.9645      16.89757
    5.7996353]
bas 337, expnt(s) = [15.539616   3.5999336  1.0137618]
bas 338, expnt(s) = [0.2700058]
bas 339, expnt(s) = [15.539616   3.5999336  1.0137618]
bas 340, expnt(s) = [0.2700058]
bas 341, expnt(s) = [0.8]
bas 342, expnt(s) = [18.731137   2.8253937  0.6401217]
bas 343, expnt(s) = [0.1612778]
bas 344, expnt(s) = [1.1]
bas 345, expnt(s) = [18.731137   2.8253937  0.6401217]
bas 346, expnt(s) = [0.1612778]
bas 347, expnt(s) = [1.1]
bas 348, expnt(s) = [5484.6717     825.23495    188.04696     52.9645      16.89757
    5.7996353]
bas 349, expnt(s) = [15.539616   3.5999336  1.0137618]
bas 350, expnt(s) = [0.2700058]
bas 351, expnt(s) = [15.539616   3.5999336  1.0137618]
bas 352, expnt(s) = [0.2700058]
bas 353, expnt(s) = [0.8]
bas 354, expnt(s) = [18.731137   2.8253937  0.6401217]
bas 355, expnt(s) = [0.1612778]
bas 356, expnt(s) = [1.1]
bas 357, expnt(s) = [18.731137   2.8253937  0.6401217]
bas 358, expnt(s) = [0.1612778]
bas 359, expnt(s) = [1.1]
bas 360, expnt(s) = [5484.6717     825.23495    188.04696     52.9645      16.89757
    5.7996353]
bas 361, expnt(s) = [15.539616   3.5999336  1.0137618]
bas 362, expnt(s) = [0.2700058]
bas 363, expnt(s) = [15.539616   3.5999336  1.0137618]
bas 364, expnt(s) = [0.2700058]
bas 365, expnt(s) = [0.8]
bas 366, expnt(s) = [18.731137   2.8253937  0.6401217]
bas 367, expnt(s) = [0.1612778]
bas 368, expnt(s) = [1.1]
bas 369, expnt(s) = [18.731137   2.8253937  0.6401217]
bas 370, expnt(s) = [0.1612778]
bas 371, expnt(s) = [1.1]
bas 372, expnt(s) = [5484.6717     825.23495    188.04696     52.9645      16.89757
    5.7996353]
bas 373, expnt(s) = [15.539616   3.5999336  1.0137618]
bas 374, expnt(s) = [0.2700058]
bas 375, expnt(s) = [15.539616   3.5999336  1.0137618]
bas 376, expnt(s) = [0.2700058]
bas 377, expnt(s) = [0.8]
bas 378, expnt(s) = [18.731137   2.8253937  0.6401217]
bas 379, expnt(s) = [0.1612778]
bas 380, expnt(s) = [1.1]
bas 381, expnt(s) = [18.731137   2.8253937  0.6401217]
bas 382, expnt(s) = [0.1612778]
bas 383, expnt(s) = [1.1]
CPU time:         1.21
arg.atm = [[  8  20   1  23   0   0]
 [  1  24   1  27   0   0]
 [  1  28   1  31   0   0]
 [  8  32   1  35   0   0]
 [  1  36   1  39   0   0]
 [  1  40   1  43   0   0]
 [  8  44   1  47   0   0]
 [  1  48   1  51   0   0]
 [  1  52   1  55   0   0]
 [  8  56   1  59   0   0]
 [  1  60   1  63   0   0]
 [  1  64   1  67   0   0]
 [  8  68   1  71   0   0]
 [  1  72   1  75   0   0]
 [  1  76   1  79   0   0]
 [  8  80   1  83   0   0]
 [  1  84   1  87   0   0]
 [  1  88   1  91   0   0]
 [  8  92   1  95   0   0]
 [  1  96   1  99   0   0]
 [  1 100   1 103   0   0]
 [  8 104   1 107   0   0]
 [  1 108   1 111   0   0]
 [  1 112   1 115   0   0]
 [  8 116   1 119   0   0]
 [  1 120   1 123   0   0]
 [  1 124   1 127   0   0]
 [  8 128   1 131   0   0]
 [  1 132   1 135   0   0]
 [  1 136   1 139   0   0]
 [  8 140   1 143   0   0]
 [  1 144   1 147   0   0]
 [  1 148   1 151   0   0]
 [  8 152   1 155   0   0]
 [  1 156   1 159   0   0]
 [  1 160   1 163   0   0]
 [  8 164   1 167   0   0]
 [  1 168   1 171   0   0]
 [  1 172   1 175   0   0]
 [  8 176   1 179   0   0]
 [  1 180   1 183   0   0]
 [  1 184   1 187   0   0]
 [  8 188   1 191   0   0]
 [  1 192   1 195   0   0]
 [  1 196   1 199   0   0]
 [  8 200   1 203   0   0]
 [  1 204   1 207   0   0]
 [  1 208   1 211   0   0]
 [  8 212   1 215   0   0]
 [  1 216   1 219   0   0]
 [  1 220   1 223   0   0]
 [  8 224   1 227   0   0]
 [  1 228   1 231   0   0]
 [  1 232   1 235   0   0]
 [  8 236   1 239   0   0]
 [  1 240   1 243   0   0]
 [  1 244   1 247   0   0]
 [  8 248   1 251   0   0]
 [  1 252   1 255   0   0]
 [  1 256   1 259   0   0]
 [  8 260   1 263   0   0]
 [  1 264   1 267   0   0]
 [  1 268   1 271   0   0]
 [  8 272   1 275   0   0]
 [  1 276   1 279   0   0]
 [  1 280   1 283   0   0]
 [  8 284   1 287   0   0]
 [  1 288   1 291   0   0]
 [  1 292   1 295   0   0]
 [  8 296   1 299   0   0]
 [  1 300   1 303   0   0]
 [  1 304   1 307   0   0]
 [  8 308   1 311   0   0]
 [  1 312   1 315   0   0]
 [  1 316   1 319   0   0]
 [  8 320   1 323   0   0]
 [  1 324   1 327   0   0]
 [  1 328   1 331   0   0]
 [  8 332   1 335   0   0]
 [  1 336   1 339   0   0]
 [  1 340   1 343   0   0]
 [  8 344   1 347   0   0]
 [  1 348   1 351   0   0]
 [  1 352   1 355   0   0]
 [  8 356   1 359   0   0]
 [  1 360   1 363   0   0]
 [  1 364   1 367   0   0]
 [  8 368   1 371   0   0]
 [  1 372   1 375   0   0]
 [  1 376   1 379   0   0]
 [  8 380   1 383   0   0]
 [  1 384   1 387   0   0]
 [  1 388   1 391   0   0]
 [  8 392   1 395   0   0]
 [  1 396   1 399   0   0]
 [  1 400   1 403   0   0]]
arg.bas = [[  0   0   6 ... 404 410   0]
 [  0   0   3 ... 416 419   0]
 [  0   0   1 ... 422 423   0]
 ...
 [ 95   0   3 ... 434 437   0]
 [ 95   0   1 ... 440 441   0]
 [ 95   1   1 ... 442 443   0]]
arg.env = [ 1.37036000e+02  0.00000000e+00  0.00000000e+00  0.00000000e+00
  0.00000000e+00  0.00000000e+00  0.00000000e+00  0.00000000e+00
  0.00000000e+00  0.00000000e+00  0.00000000e+00  0.00000000e+00
  0.00000000e+00  0.00000000e+00  0.00000000e+00  0.00000000e+00
  0.00000000e+00  0.00000000e+00  0.00000000e+00  0.00000000e+00
  1.58591958e+01 -2.23232232e+01 -2.11658453e+01  0.00000000e+00
  1.54490326e+01 -2.36930366e+01 -2.00580047e+01  0.00000000e+00
  1.74840371e+01 -2.17584956e+01 -2.06064713e+01  0.00000000e+00
  2.02314400e+01 -2.05013779e+01 -1.90701939e+01  0.00000000e+00
  2.17723038e+01 -2.13922289e+01 -1.87476176e+01  0.00000000e+00
  1.99702421e+01 -1.94960833e+01 -1.75892854e+01  0.00000000e+00
  1.64278541e+01 -2.65870709e+01 -1.80414289e+01  0.00000000e+00
  1.55337188e+01 -2.59511213e+01 -1.66033699e+01  0.00000000e+00
  1.61624534e+01 -2.83754831e+01 -1.79860013e+01  0.00000000e+00
  1.37010511e+01 -1.86319947e+01 -2.47619431e+01  0.00000000e+00
  1.34560972e+01 -1.93157846e+01 -2.64185526e+01  0.00000000e+00
  1.38733941e+01 -2.00816358e+01 -2.36938794e+01  0.00000000e+00
  1.05265153e+01 -2.41129828e+01 -2.02839555e+01  0.00000000e+00
  8.77344660e+00 -2.42410798e+01 -1.98570305e+01  0.00000000e+00
  1.13076525e+01 -2.34423738e+01 -1.87966655e+01  0.00000000e+00
  1.31641969e+01 -1.74757998e+01 -1.94156226e+01  0.00000000e+00
  1.31811270e+01 -1.86043839e+01 -2.08291075e+01  0.00000000e+00
  1.45213642e+01 -1.63243462e+01 -1.97383746e+01  0.00000000e+00
  1.31196920e+01 -2.23542903e+01 -1.58189805e+01  0.00000000e+00
  1.41645820e+01 -2.28487768e+01 -1.44277169e+01  0.00000000e+00
  1.38091000e+01 -2.07734569e+01 -1.63645142e+01  0.00000000e+00
  1.84053920e+01 -2.75148262e+01 -2.47254336e+01  0.00000000e+00
  1.78327464e+01 -2.63066431e+01 -2.35071158e+01  0.00000000e+00
  2.01306987e+01 -2.70664981e+01 -2.50324158e+01  0.00000000e+00
  1.90577217e+01 -1.81470343e+01 -2.58786843e+01  0.00000000e+00
  1.85910557e+01 -1.86665521e+01 -2.75472898e+01  0.00000000e+00
  1.75122961e+01 -1.81949823e+01 -2.49399156e+01  0.00000000e+00
  1.79028344e+01 -1.51124951e+01 -2.06321073e+01  0.00000000e+00
  1.88925747e+01 -1.66213261e+01 -2.05065293e+01  0.00000000e+00
  1.81855715e+01 -1.42529872e+01 -1.90658267e+01  0.00000000e+00
  1.59711829e+01 -2.00983315e+01 -2.96421136e+01  0.00000000e+00
  1.53540909e+01 -1.96661077e+01 -3.12865930e+01  0.00000000e+00
  1.75030005e+01 -2.10073446e+01 -2.99570119e+01  0.00000000e+00
  7.63287216e+00 -2.12107811e+01 -2.41968281e+01  0.00000000e+00
  8.55071592e+00 -2.27666815e+01 -2.41037950e+01  0.00000000e+00
  8.37549106e+00 -2.03288025e+01 -2.55905880e+01  0.00000000e+00
  1.05536555e+01 -2.94649215e+01 -2.16748884e+01  0.00000000e+00
  8.84108934e+00 -2.90041213e+01 -2.20308448e+01  0.00000000e+00
  1.13441828e+01 -2.79179445e+01 -2.11710515e+01  0.00000000e+00
  1.66319577e+01 -2.34815044e+01 -1.22781062e+01  0.00000000e+00
  1.71126681e+01 -2.22023601e+01 -1.10929323e+01  0.00000000e+00
  1.68931991e+01 -2.50386841e+01 -1.13955739e+01  0.00000000e+00
  1.99409759e+01 -1.71212551e+01 -1.46750991e+01  0.00000000e+00
  1.89531215e+01 -1.78628875e+01 -1.33537194e+01  0.00000000e+00
  1.90062021e+01 -1.56543646e+01 -1.51714356e+01  0.00000000e+00
  1.60474257e+01 -2.67578000e+01 -2.96895325e+01  0.00000000e+00
  1.67126282e+01 -2.84285107e+01 -2.98848829e+01  0.00000000e+00
  1.68532352e+01 -2.61200080e+01 -2.82009707e+01  0.00000000e+00
  2.01732119e+01 -2.25352958e+01 -2.98939423e+01  0.00000000e+00
  2.10617025e+01 -2.31675113e+01 -2.84507471e+01  0.00000000e+00
  2.03511466e+01 -2.38337078e+01 -3.11406929e+01  0.00000000e+00
  1.46630370e+01 -3.11898692e+01 -2.50313519e+01  0.00000000e+00
  1.38099655e+01 -3.06346091e+01 -2.35360646e+01  0.00000000e+00
  1.61331437e+01 -3.01406725e+01 -2.51308649e+01  0.00000000e+00
  2.54311103e+01 -2.22482823e+01 -1.84702379e+01  0.00000000e+00
  2.62839852e+01 -2.07798196e+01 -1.90932542e+01  0.00000000e+00
  2.67410892e+01 -2.34772676e+01 -1.82569899e+01  0.00000000e+00
  1.05661769e+01 -2.93540381e+01 -1.64410274e+01  0.00000000e+00
  1.19228094e+01 -3.03692708e+01 -1.58079521e+01  0.00000000e+00
  1.03486278e+01 -2.99029053e+01 -1.81508043e+01  0.00000000e+00
  1.00906745e+01 -2.11880666e+01 -2.92426009e+01  0.00000000e+00
  1.11117370e+01 -1.97640295e+01 -2.96914619e+01  0.00000000e+00
  1.03737593e+01 -2.23851288e+01 -3.05688107e+01  0.00000000e+00
  2.45589393e+01 -2.78051467e+01 -2.11838979e+01  0.00000000e+00
  2.32179689e+01 -2.86518083e+01 -2.03139039e+01  0.00000000e+00
  2.57676610e+01 -2.74243858e+01 -1.98931866e+01  0.00000000e+00
  8.77070649e+00 -1.53791165e+01 -2.39449937e+01  0.00000000e+00
  8.68859978e+00 -1.37421677e+01 -2.31797548e+01  0.00000000e+00
  1.05380540e+01 -1.57573055e+01 -2.40183567e+01  0.00000000e+00
  1.69341004e+01 -3.21569781e+01 -1.75281055e+01  0.00000000e+00
  1.63906983e+01 -3.25393132e+01 -1.58457088e+01  0.00000000e+00
  1.56895513e+01 -3.29254069e+01 -1.85923124e+01  0.00000000e+00
  2.43586132e+01 -1.83125819e+01 -2.59858658e+01  0.00000000e+00
  2.54894499e+01 -1.86060658e+01 -2.46049239e+01  0.00000000e+00
  2.27091147e+01 -1.84111103e+01 -2.52500839e+01  0.00000000e+00
  9.27281806e+00 -1.49477601e+01 -1.72532732e+01  0.00000000e+00
  7.67893990e+00 -1.51678962e+01 -1.80797242e+01  0.00000000e+00
  1.02474745e+01 -1.63857661e+01 -1.77573614e+01  0.00000000e+00
  5.58362480e+00 -2.40041441e+01 -1.86623796e+01  0.00000000e+00
  5.79022289e+00 -2.55204508e+01 -1.76979825e+01  0.00000000e+00
  5.17491673e+00 -2.27388534e+01 -1.74360362e+01  0.00000000e+00
  7.95719829e+00 -2.51911925e+01 -1.42761212e+01  0.00000000e+00
  9.38018663e+00 -2.40850659e+01 -1.41227926e+01  0.00000000e+00
  8.66153702e+00 -2.67619008e+01 -1.48317423e+01  0.00000000e+00
  1.61361371e+01 -1.18317680e+01 -2.44688390e+01  0.00000000e+00
  1.67808285e+01 -1.29429912e+01 -2.31954641e+01  0.00000000e+00
  1.75304658e+01 -1.15707137e+01 -2.55911701e+01  0.00000000e+00
  2.16779838e+01 -2.90173418e+01 -1.42069912e+01  0.00000000e+00
  2.05307462e+01 -2.90181619e+01 -1.56054812e+01  0.00000000e+00
  2.25019856e+01 -2.74096119e+01 -1.42973126e+01  0.00000000e+00
  2.42145046e+01 -2.46013372e+01 -1.39203349e+01  0.00000000e+00
  2.35873725e+01 -2.34649901e+01 -1.26604337e+01  0.00000000e+00
  2.39147676e+01 -2.37503916e+01 -1.54881292e+01  0.00000000e+00
  2.14001128e+01 -3.21472498e+01 -2.03386876e+01  0.00000000e+00
  2.21410612e+01 -3.37567560e+01 -1.99748058e+01  0.00000000e+00
  1.97339942e+01 -3.22469688e+01 -1.96415299e+01  0.00000000e+00
  5.48467170e+03  8.25234950e+02  1.88046960e+02  5.29645000e+01
  1.68975700e+01  5.79963530e+00  2.94842455e+00  5.42657124e+00
  8.78126489e+00  1.15432129e+01  9.90055015e+00  3.38516599e+00
  1.55396160e+01  3.59993360e+00  1.01376180e+00 -2.19051792e+00
 -9.77405528e-01  2.88629094e+00  2.70005800e-01  9.46334873e-01
  1.55396160e+01  3.59993360e+00  1.01376180e+00  6.37930734e+00
  4.91490975e+00  2.15791055e+00  2.70005800e-01  5.67807022e-01
  8.00000000e-01  1.76578110e+00  1.87311370e+01  2.82539370e+00
  6.40121700e-01  7.61926220e-01  1.29237100e+00  1.47131900e+00
  1.61277800e-01  6.42977783e-01  1.10000000e+00  3.28643653e+00]
ecpbas  = []


******** <class 'pyscf.scf.hf.RHF'> ********
method = RHF
initial guess = minao
damping factor = 0
level shift factor = 0
DIIS = <class 'pyscf.scf.diis.CDIIS'>
DIIS start cycle = 1
DIIS space = 8
SCF tol = 1e-09
SCF gradient tol = None
max. SCF cycles = 50
direct_scf = True
direct_scf_tol = 1e-13
chkfile to save SCF result = /home/liwei01/wsr/dftpart/test_2body/w32/tmp6mn_52ys
max_memory 4000 MB (current use 75 MB)
Set gradient conv threshold to 3.16228e-05
Nelec from initial guess = 319.73375988441444
cond(S) = 236.60179034116968
    CPU time for vj and vk    214.87 sec, wall time     26.87 sec
E1 = -13155.014834420217  E_coul = 5797.002047140629
init E= -2428.8481619446
    CPU time for initialize scf    221.82 sec, wall time     27.74 sec
  HOMO = -0.471932877460287  LUMO = -0.0168697025799447
  mo_energy =
[-2.08230798e+01 -2.08229224e+01 -2.08227705e+01 -2.08218955e+01
 -2.08218448e+01 -2.08218235e+01 -2.08216848e+01 -2.08204821e+01
 -2.08202891e+01 -2.08195226e+01 -2.08193482e+01 -2.08193325e+01
 -2.08191252e+01 -2.08189601e+01 -2.08188532e+01 -2.08187494e+01
 -2.08187031e+01 -2.08185588e+01 -2.08177859e+01 -2.08176812e+01
 -2.08172191e+01 -2.08169101e+01 -2.08168226e+01 -2.08165319e+01
 -2.08164341e+01 -2.08161699e+01 -2.08159725e+01 -2.08159602e+01
 -2.08157740e+01 -2.08157163e+01 -2.08152698e+01 -2.08143255e+01
 -1.72289992e+00 -1.70965326e+00 -1.69818805e+00 -1.68982227e+00
 -1.68116365e+00 -1.67944488e+00 -1.67501294e+00 -1.67051289e+00
 -1.66734266e+00 -1.66564772e+00 -1.65738982e+00 -1.65666175e+00
 -1.65379194e+00 -1.64881874e+00 -1.64616600e+00 -1.64388229e+00
 -1.63994029e+00 -1.63944994e+00 -1.63583053e+00 -1.63206576e+00
 -1.63016654e+00 -1.62850673e+00 -1.62620390e+00 -1.62429136e+00
 -1.62189338e+00 -1.61781661e+00 -1.61279791e+00 -1.61001685e+00
 -1.60816169e+00 -1.60733754e+00 -1.60664667e+00 -1.60347219e+00
 -8.28276924e-01 -8.26382267e-01 -8.23405941e-01 -8.08913450e-01
 -8.07601788e-01 -8.02086964e-01 -7.99317978e-01 -7.97364238e-01
 -7.95369314e-01 -7.94693054e-01 -7.90904243e-01 -7.90500872e-01
 -7.87633806e-01 -7.85809232e-01 -7.84358316e-01 -7.81315216e-01
 -7.80798714e-01 -7.78692770e-01 -7.77803789e-01 -7.75300647e-01
 -7.74672013e-01 -7.73577084e-01 -7.71802670e-01 -7.67233855e-01
 -7.65712763e-01 -7.64777327e-01 -7.62567116e-01 -7.60037459e-01
 -7.55204695e-01 -7.52897234e-01 -7.48342733e-01 -7.44951398e-01
 -6.67874516e-01 -6.67314090e-01 -6.54098909e-01 -6.50330350e-01
 -6.42808802e-01 -6.39284177e-01 -6.38956526e-01 -6.38177587e-01
 -6.34532384e-01 -6.31093816e-01 -6.29541415e-01 -6.26660066e-01
 -6.23032469e-01 -6.18595116e-01 -6.13462754e-01 -6.11751210e-01
 -6.10735364e-01 -6.06939942e-01 -6.05077418e-01 -6.02235343e-01
 -5.98994161e-01 -5.96072929e-01 -5.92704639e-01 -5.88552749e-01
 -5.84674080e-01 -5.82475978e-01 -5.80727662e-01 -5.76403797e-01
 -5.75765348e-01 -5.69848481e-01 -5.65233538e-01 -5.64343771e-01
 -5.19838356e-01 -5.15007587e-01 -5.13797841e-01 -5.10438586e-01
 -5.09402897e-01 -5.07669751e-01 -5.06164974e-01 -5.04732620e-01
 -5.03692855e-01 -5.01881186e-01 -5.00482726e-01 -4.99876447e-01
 -4.99330157e-01 -4.98036236e-01 -4.97550535e-01 -4.96433201e-01
 -4.95334825e-01 -4.93773451e-01 -4.93074708e-01 -4.92863491e-01
 -4.92051562e-01 -4.90839825e-01 -4.89976312e-01 -4.88441911e-01
 -4.86457805e-01 -4.84953156e-01 -4.83604306e-01 -4.81181784e-01
 -4.81099839e-01 -4.81002402e-01 -4.75472149e-01 -4.71932877e-01
 -1.68697026e-02  1.52761940e-02  2.61342766e-02  3.20280532e-02
  5.38762318e-02  6.08342989e-02  6.56507236e-02  7.66471212e-02
  8.85373321e-02  9.58993569e-02  1.02713120e-01  1.14763576e-01
  1.20674579e-01  1.25791633e-01  1.29274338e-01  1.32476952e-01
  1.38710214e-01  1.39793926e-01  1.47995147e-01  1.52314625e-01
  1.54376453e-01  1.59063256e-01  1.65515807e-01  1.67621218e-01
  1.72343088e-01  1.80328826e-01  1.88211149e-01  2.01443511e-01
  2.04999025e-01  2.06069062e-01  2.11705593e-01  2.12280335e-01
  2.17981913e-01  2.26263765e-01  2.27479819e-01  2.29777277e-01
  2.39481199e-01  2.43630762e-01  2.44876753e-01  2.49231111e-01
  2.55343732e-01  2.59105686e-01  2.64754386e-01  2.66693918e-01
  2.74365976e-01  2.75886940e-01  2.77399360e-01  2.81815891e-01
  2.88514914e-01  2.93129227e-01  2.95274356e-01  3.01419630e-01
  3.06748777e-01  3.10870265e-01  3.12408086e-01  3.14423282e-01
  3.23396376e-01  3.25875341e-01  3.28126468e-01  3.35893265e-01
  3.45136627e-01  3.54872634e-01  3.60543145e-01  3.69136788e-01
  7.98984719e-01  8.16774820e-01  8.28790253e-01  8.41296341e-01
  8.48568985e-01  8.52188372e-01  8.58396568e-01  8.59619535e-01
  8.66255280e-01  8.69637281e-01  8.73995601e-01  8.80176238e-01
  8.82324557e-01  8.85512689e-01  8.92601983e-01  8.95214924e-01
  8.98554967e-01  9.03657374e-01  9.05643242e-01  9.07011466e-01
  9.16914872e-01  9.19155245e-01  9.19997934e-01  9.25192887e-01
  9.26441414e-01  9.29062099e-01  9.35533884e-01  9.39539521e-01
  9.40563033e-01  9.44141678e-01  9.45592409e-01  9.49431949e-01
  9.52056350e-01  9.53544150e-01  9.57415590e-01  9.58581117e-01
  9.61088898e-01  9.62626605e-01  9.65312347e-01  9.68443731e-01
  9.70560473e-01  9.73275440e-01  9.74572348e-01  9.75394500e-01
  9.79020549e-01  9.83308956e-01  9.84715032e-01  9.85715179e-01
  9.87956113e-01  9.90267911e-01  9.93158385e-01  9.95331302e-01
  1.00014816e+00  1.00056256e+00  1.00331021e+00  1.00463859e+00
  1.00740216e+00  1.00819981e+00  1.01214958e+00  1.01929417e+00
  1.02412599e+00  1.02620338e+00  1.02927302e+00  1.03274760e+00
  1.03379092e+00  1.03585530e+00  1.03881533e+00  1.04086184e+00
  1.04724043e+00  1.04991302e+00  1.05339354e+00  1.05586417e+00
  1.05820319e+00  1.06249972e+00  1.06442131e+00  1.06646599e+00
  1.06721029e+00  1.06993555e+00  1.07517289e+00  1.07572816e+00
  1.08009310e+00  1.08266552e+00  1.08489929e+00  1.08846564e+00
  1.09104153e+00  1.09508348e+00  1.10192745e+00  1.10665552e+00
  1.10998870e+00  1.11071400e+00  1.11752548e+00  1.11976430e+00
  1.12248147e+00  1.12840061e+00  1.13215862e+00  1.13537289e+00
  1.13812823e+00  1.14261350e+00  1.14655782e+00  1.14834171e+00
  1.15242598e+00  1.15441507e+00  1.15858150e+00  1.16033210e+00
  1.16463876e+00  1.16907162e+00  1.17531109e+00  1.17844302e+00
  1.17860375e+00  1.18290251e+00  1.18655734e+00  1.19101670e+00
  1.19246420e+00  1.19516216e+00  1.19784177e+00  1.20120940e+00
  1.20527600e+00  1.20713253e+00  1.21075620e+00  1.21325947e+00
  1.21418260e+00  1.21662881e+00  1.21932258e+00  1.22230345e+00
  1.22677752e+00  1.23000280e+00  1.23125553e+00  1.23507864e+00
  1.23821011e+00  1.24188685e+00  1.24742905e+00  1.24949016e+00
  1.25315727e+00  1.25526783e+00  1.26135491e+00  1.26306514e+00
  1.26939984e+00  1.27396526e+00  1.27585882e+00  1.28489711e+00
  1.29032723e+00  1.29238312e+00  1.29811513e+00  1.30194582e+00
  1.30747805e+00  1.32005091e+00  1.33033195e+00  1.33299707e+00
  1.33758558e+00  1.34722949e+00  1.35357406e+00  1.36695934e+00
  1.37660330e+00  1.38022586e+00  1.39481309e+00  1.41155385e+00
  1.41643223e+00  1.43043441e+00  1.44054440e+00  1.45198347e+00
  1.46135803e+00  1.48292098e+00  1.49342177e+00  1.49859431e+00
  1.50479845e+00  1.50940776e+00  1.51959494e+00  1.52852301e+00
  1.53466050e+00  1.54403482e+00  1.55037697e+00  1.55538027e+00
  1.56366470e+00  1.58003660e+00  1.58770483e+00  1.59277952e+00
  1.60169926e+00  1.60559414e+00  1.62277413e+00  1.63052120e+00
  1.63678335e+00  1.64345186e+00  1.64527787e+00  1.65232451e+00
  1.65517623e+00  1.66065384e+00  1.66605052e+00  1.67198358e+00
  1.67468803e+00  1.67768358e+00  1.68129177e+00  1.68576009e+00
  1.68604521e+00  1.68779055e+00  1.68960556e+00  1.69128958e+00
  1.69300618e+00  1.69396190e+00  1.69475677e+00  1.69687953e+00
  1.69762253e+00  1.69788896e+00  1.69915894e+00  1.69971905e+00
  1.70118615e+00  1.70234759e+00  1.70266037e+00  1.70438195e+00
  1.70475415e+00  1.70568768e+00  1.70747655e+00  1.70850219e+00
  1.70894761e+00  1.70978254e+00  1.71088526e+00  1.71298021e+00
  1.71380221e+00  1.71513802e+00  1.71869174e+00  1.72042606e+00
  1.72241411e+00  1.72541858e+00  1.72709913e+00  1.72907883e+00
  1.73053755e+00  1.73199260e+00  1.73476810e+00  1.73875263e+00
  1.74024403e+00  1.74224825e+00  1.74507257e+00  1.74594671e+00
  1.74921703e+00  1.75342234e+00  1.75857117e+00  1.76036599e+00
  1.76152809e+00  1.76459076e+00  1.76614943e+00  1.76807245e+00
  1.77052839e+00  1.77193317e+00  1.77534604e+00  1.78030270e+00
  1.78261212e+00  1.78791452e+00  1.79244406e+00  1.79498442e+00
  1.79738075e+00  1.79877633e+00  1.80029805e+00  1.80148212e+00
  1.80177027e+00  1.80194120e+00  1.80503407e+00  1.80618372e+00
  1.81256633e+00  1.81393045e+00  1.82195895e+00  1.82356895e+00
  1.83338855e+00  1.83903662e+00  1.84315738e+00  1.85074412e+00
  1.85380743e+00  1.86315174e+00  1.86683409e+00  1.87100231e+00
  1.87617706e+00  1.87845483e+00  1.88180579e+00  1.89132430e+00
  1.89346565e+00  1.89445611e+00  1.90088387e+00  1.90366970e+00
  1.91877177e+00  1.92270613e+00  1.92869580e+00  1.93286731e+00
  1.94153682e+00  1.94809606e+00  1.96099424e+00  1.96835849e+00
  1.97190288e+00  1.99127088e+00  2.00664919e+00  2.05617156e+00
  2.44848371e+00  2.44989730e+00  2.45434309e+00  2.45544877e+00
  2.45819726e+00  2.46091048e+00  2.46301130e+00  2.46311355e+00
  2.46791210e+00  2.46952028e+00  2.47040109e+00  2.47170481e+00
  2.47644492e+00  2.47726420e+00  2.47983367e+00  2.48675318e+00
  2.48841289e+00  2.49085919e+00  2.49303115e+00  2.50063758e+00
  2.50414983e+00  2.50506139e+00  2.50681684e+00  2.50941145e+00
  2.51095169e+00  2.51849709e+00  2.52111655e+00  2.52522108e+00
  2.52645579e+00  2.52724886e+00  2.52840075e+00  2.53043793e+00
  2.53237769e+00  2.53479956e+00  2.53663874e+00  2.53901323e+00
  2.54094274e+00  2.54546592e+00  2.54917751e+00  2.55144683e+00
  2.55429373e+00  2.55701857e+00  2.56002213e+00  2.56239791e+00
  2.56609215e+00  2.56842059e+00  2.57340430e+00  2.57474843e+00
  2.57561703e+00  2.57888966e+00  2.58066470e+00  2.58697959e+00
  2.58960931e+00  2.59166759e+00  2.59601929e+00  2.59965241e+00
  2.60301366e+00  2.61292071e+00  2.61656577e+00  2.61950159e+00
  2.62527662e+00  2.63964808e+00  2.64445527e+00  2.68081107e+00
  2.69578540e+00  2.69723969e+00  2.69814986e+00  2.70093977e+00
  2.70402664e+00  2.70533099e+00  2.71077249e+00  2.71276096e+00
  2.71743636e+00  2.71839407e+00  2.72219454e+00  2.72305086e+00
  2.72460815e+00  2.72756476e+00  2.72827974e+00  2.73230825e+00
  2.73933477e+00  2.74662911e+00  2.74958438e+00  2.75326642e+00
  2.76141416e+00  2.76196136e+00  2.77118499e+00  2.77461096e+00
  2.78135107e+00  2.78611050e+00  2.78619977e+00  2.80805696e+00
  2.82311744e+00  2.82775810e+00  2.83830238e+00  2.84686880e+00
  2.86321144e+00  2.87140263e+00  2.87787112e+00  2.87985007e+00
  2.88107407e+00  2.88380732e+00  2.88488877e+00  2.88691594e+00
  2.88818262e+00  2.88896495e+00  2.89019414e+00  2.89174637e+00
  2.89263581e+00  2.89513182e+00  2.89750845e+00  2.89920623e+00
  2.90120927e+00  2.90242156e+00  2.90438459e+00  2.90535379e+00
  2.90572209e+00  2.90687944e+00  2.90757700e+00  2.90935332e+00
  2.91052012e+00  2.91171420e+00  2.91229833e+00  2.91673582e+00
  2.91739168e+00  2.91914000e+00  2.91982277e+00  2.92176728e+00
  2.92226709e+00  2.92287586e+00  2.92395348e+00  2.92555152e+00
  2.92740030e+00  2.92874843e+00  2.93264625e+00  2.93288403e+00
  2.93669439e+00  2.93910820e+00  2.94112012e+00  2.94210272e+00
  2.94272885e+00  2.94508873e+00  2.94693631e+00  2.94709732e+00
  2.94966569e+00  2.95008603e+00  2.96329096e+00  2.96361072e+00
  2.97145732e+00  2.97371167e+00  2.97957352e+00  2.98145989e+00
  2.98504774e+00  2.99045786e+00  2.99375388e+00  3.00788720e+00
  3.01800279e+00  3.02878476e+00  3.06438369e+00  3.07310764e+00
  3.28842058e+00  3.29697182e+00  3.30098710e+00  3.30210707e+00
  3.30262248e+00  3.30302816e+00  3.30415350e+00  3.30480607e+00
  3.30558899e+00  3.30623473e+00  3.30904750e+00  3.31134808e+00
  3.31405025e+00  3.31595146e+00  3.31804744e+00  3.32391767e+00
  3.32469513e+00  3.32573847e+00  3.32623905e+00  3.32745414e+00
  3.32933499e+00  3.33267970e+00  3.33565595e+00  3.33630894e+00
  3.34149227e+00  3.34823575e+00  3.35081610e+00  3.35165430e+00
  3.37159445e+00  3.38030901e+00  3.38581774e+00  3.41333094e+00
  3.67488465e+00  3.67577640e+00  3.67919772e+00  3.67995137e+00
  3.68215907e+00  3.68655551e+00  3.68968089e+00  3.69174374e+00
  3.69351039e+00  3.69903095e+00  3.70163942e+00  3.70476294e+00
  3.70592730e+00  3.71093607e+00  3.71382767e+00  3.71703329e+00
  3.72344258e+00  3.72632092e+00  3.73108096e+00  3.73600766e+00
  3.74437168e+00  3.74699443e+00  3.75093203e+00  3.75777744e+00
  3.76384150e+00  3.76716675e+00  3.77121811e+00  3.77332034e+00
  3.78424752e+00  3.79852097e+00  3.80195413e+00  3.80589553e+00
  3.82976705e+00  3.84069375e+00  3.84209063e+00  3.84444775e+00
  3.84606264e+00  3.84775384e+00  3.85092349e+00  3.85288040e+00
  3.86099484e+00  3.86304115e+00  3.87393954e+00  3.87504358e+00
  3.87650365e+00  3.88323760e+00  3.88704865e+00  3.89210514e+00
  3.89790301e+00  3.90076291e+00  3.90512979e+00  3.91133817e+00
  3.91642623e+00  3.93006230e+00  3.93765302e+00  3.94092936e+00
  3.95341587e+00  3.96743532e+00  3.98185997e+00  3.99013415e+00
  3.99836095e+00  4.01365729e+00  4.02187963e+00  4.03775803e+00]
    CPU time for vj and vk    218.49 sec, wall time     27.32 sec
E1 = -13235.430910292405  E_coul = 5874.333582033051
cycle= 1 E= -2431.93270292437  delta_E= -3.08  |g|=  2.3  |ddm|= 6.68
    CPU time for cycle= 1    219.90 sec, wall time     27.50 sec
diis-norm(errvec)=4.08262
diis-c [-16.66779075   1.        ]
  HOMO = -0.293704848684139  LUMO = 0.0667709968334914
  mo_energy =
[-20.51221083 -20.49363995 -20.48532362 -20.47067698 -20.45644847
 -20.43248795 -20.428593   -20.4182015  -20.41644886 -20.40556508
 -20.40221186 -20.39591478 -20.39083574 -20.34265309 -20.33351976
 -20.33218371 -20.32920885 -20.32906455 -20.32717041 -20.31319352
 -20.31308802 -20.31047582 -20.28906382 -20.28543092 -20.28256732
 -20.28008881 -20.27863444 -20.24617126 -20.23856691 -20.23761152
 -20.23750002 -20.19559887  -1.41944068  -1.41252639  -1.40129447
  -1.39964937  -1.36687552  -1.36138804  -1.34411338  -1.34370811
  -1.34246837  -1.33218731  -1.33044391  -1.31991395  -1.31809417
  -1.28072089  -1.27554685  -1.26911584  -1.26807616  -1.26636982
  -1.26437657  -1.25667038  -1.2559387   -1.25447747  -1.25110359
  -1.24095491  -1.2389951   -1.22310419  -1.22054984  -1.20755147
  -1.20441463  -1.1959998   -1.18864295  -1.15015334  -0.7920397
  -0.78951941  -0.78388629  -0.7786      -0.74578166  -0.73771008
  -0.72620291  -0.72451149  -0.72262776  -0.71516416  -0.71073414
  -0.70489742  -0.69606154  -0.68406231  -0.68362724  -0.66490234
  -0.66109272  -0.65961621  -0.65593865  -0.65269156  -0.6459755
  -0.63904613  -0.63313943  -0.63171536  -0.62933742  -0.62667658
  -0.62443236  -0.62062631  -0.62009335  -0.61627725  -0.61500285
  -0.61312944  -0.60064343  -0.59217181  -0.58068265  -0.57450872
  -0.57232629  -0.57141975  -0.5640555   -0.56175254  -0.55985416
  -0.55769173  -0.5565492   -0.54525248  -0.54224973  -0.5374743
  -0.53510499  -0.53102376  -0.52930171  -0.51667688  -0.5127447
  -0.50856563  -0.50383925  -0.50115036  -0.49660406  -0.49044407
  -0.49034674  -0.48795458  -0.48613498  -0.48165354  -0.4790347
  -0.47601412  -0.47451704  -0.47268371  -0.46424694  -0.46278624
  -0.46123049  -0.45857092  -0.45627656  -0.45279899  -0.44569318
  -0.44470082  -0.42888697  -0.42493012  -0.424622    -0.41930558
  -0.41283161  -0.41263826  -0.4104063   -0.40852583  -0.40779282
  -0.4040859   -0.4027139   -0.3937444   -0.39165155  -0.386467
  -0.38362528  -0.38273079  -0.37489267  -0.37475227  -0.36641206
  -0.35303988  -0.35038566  -0.3443953   -0.33236345  -0.29370485
   0.066771     0.08621137   0.11216336   0.11532361   0.15502142
   0.17428954   0.17706251   0.19090738   0.19347086   0.19809188
   0.20612716   0.21142385   0.23037538   0.23617819   0.24023216
   0.2439073    0.24986701   0.25270274   0.26352977   0.26919635
   0.27671884   0.27854148   0.28880969   0.29186848   0.29330715
   0.30293287   0.30650477   0.31520059   0.32614628   0.32808867
   0.33244414   0.33919252   0.34315884   0.35281205   0.35358382
   0.35728033   0.3671341    0.37527838   0.38090697   0.38616088
   0.39274217   0.39556263   0.40057178   0.4080474    0.41905748
   0.42615182   0.43294497   0.44223803   0.44460729   0.44650886
   0.4593402    0.4623917    0.47045785   0.47477235   0.47862404
   0.48300921   0.48752945   0.49844647   0.50655234   0.51588515
   0.5248579    0.52927884   0.54316923   0.55564828   0.87284788
   0.90829398   0.91510629   0.92061176   0.93061869   0.93457554
   0.94755582   0.96071029   0.96538491   0.96899246   0.9714326
   0.98077903   0.98662506   0.98747339   0.9924335    0.99750039
   1.00291793   1.00429559   1.01319043   1.01818872   1.02266582
   1.0276078    1.03176182   1.03696806   1.03900365   1.04389809
   1.04692344   1.04866992   1.05673716   1.05876156   1.05897539
   1.06342053   1.06453385   1.0686349    1.07180845   1.0750809
   1.07662414   1.08419393   1.09094114   1.09551645   1.10255482
   1.10699583   1.11005445   1.11396173   1.11675136   1.11818107
   1.1205758    1.12402418   1.12833458   1.13271586   1.13445717
   1.13712823   1.14089863   1.14512126   1.14806364   1.15223214
   1.15647743   1.16036944   1.1621513    1.1635049    1.16795123
   1.16922304   1.1721344    1.17732709   1.18210882   1.18486187
   1.18965842   1.19412455   1.19851483   1.20535958   1.20884389
   1.21966145   1.224342     1.22660305   1.22806608   1.22857433
   1.23608338   1.24104537   1.24336166   1.24848797   1.24901489
   1.25451414   1.25997143   1.26352433   1.27069335   1.27193006
   1.27371454   1.27433302   1.28156788   1.28397835   1.28671915
   1.28917826   1.29047635   1.29222534   1.29319263   1.30025483
   1.30145986   1.30449564   1.30522729   1.3118857    1.31245698
   1.31554389   1.31931694   1.32165203   1.32628657   1.32967426
   1.3316157    1.33543683   1.34151207   1.343163     1.34793584
   1.35156765   1.35306511   1.35695349   1.3615647    1.36559381
   1.37156725   1.37509652   1.37767349   1.3824779    1.38428949
   1.38589893   1.38851164   1.39517462   1.39753965   1.40015861
   1.40659      1.40687633   1.41112268   1.4126515    1.41703267
   1.41995133   1.42918887   1.43060155   1.4392429    1.44039947
   1.44359855   1.44798153   1.4556269    1.45773551   1.46284528
   1.46522599   1.47063757   1.47681866   1.482227     1.49138958
   1.50243746   1.51069041   1.51850029   1.52558341   1.52790126
   1.5355827    1.53949368   1.54653852   1.55590985   1.55968862
   1.58216496   1.58772463   1.59992009   1.60881036   1.61569658
   1.62705764   1.63321025   1.64284002   1.65455339   1.65784354
   1.68066485   1.68773422   1.69274619   1.69814069   1.70256391
   1.70429219   1.70657022   1.71889361   1.72285628   1.72410006
   1.7269327    1.72722201   1.73949509   1.74277461   1.74818558
   1.75120259   1.75199477   1.76177958   1.7664528    1.76903872
   1.77270143   1.78011961   1.78128366   1.78513296   1.78626635
   1.78942531   1.79270126   1.79392925   1.79806161   1.80054374
   1.80734433   1.81213728   1.81562796   1.82123527   1.82457176
   1.82704994   1.82982944   1.83111128   1.83685465   1.83901438
   1.84182462   1.84779583   1.85114571   1.85160039   1.85418175
   1.85816606   1.86059896   1.86392339   1.8660016    1.8675088
   1.86928987   1.87195253   1.87727673   1.88131683   1.88300695
   1.88612389   1.88702547   1.88921105   1.89263536   1.89395848
   1.89821748   1.90166308   1.90229235   1.9033599    1.90464951
   1.90783616   1.91000381   1.91342055   1.91757996   1.92120609
   1.92386006   1.92666798   1.93343664   1.93434788   1.94526259
   1.94822569   1.95046914   1.95057773   1.95695457   1.96058518
   1.96765624   1.9702581    1.97329589   1.9760054    1.98254132
   1.98372366   1.98430359   1.98581894   1.99150087   1.99398302
   1.99772427   1.99954026   2.0053961    2.00909813   2.01139511
   2.01742619   2.01930604   2.02331914   2.0322449    2.03671603
   2.03969315   2.04589788   2.04950331   2.0565869    2.05734057
   2.06122619   2.06282606   2.06730685   2.06902782   2.08172076
   2.08380338   2.0853511    2.10206022   2.10772803   2.11110604
   2.1175797    2.1271508    2.14086467   2.15702756   2.17005006
   2.20232796   2.22709866   2.44053632   2.44660913   2.45063422
   2.45289586   2.49146788   2.49688087   2.49943412   2.50218954
   2.50619712   2.50662187   2.5140763    2.5266136    2.52754389
   2.53298339   2.53582976   2.55935281   2.56334175   2.56734991
   2.57427914   2.5743941    2.57599534   2.58395452   2.58595224
   2.59119704   2.5930421    2.60621762   2.60711707   2.61455343
   2.62037466   2.62228434   2.62418095   2.62717448   2.63027971
   2.63400213   2.63960778   2.64077759   2.6462587    2.65592019
   2.66088443   2.66348248   2.66405802   2.66646203   2.66796138
   2.67205742   2.68409446   2.68537995   2.69114919   2.70216436
   2.705264     2.70721645   2.71462945   2.71658342   2.72479342
   2.72550598   2.72625744   2.73387204   2.73809988   2.74233611
   2.74289771   2.74751459   2.76180759   2.76451116   2.76697681
   2.77238263   2.77983702   2.78470198   2.78793111   2.79050128
   2.79890955   2.80121035   2.80327961   2.80759229   2.82633585
   2.83411103   2.83810081   2.84110369   2.8509329    2.85964425
   2.86227509   2.8657971    2.86912927   2.87055491   2.87228919
   2.87778715   2.87971005   2.8872129    2.88896507   2.89687681
   2.897598     2.90656291   2.91036104   2.91440821   2.91651348
   2.91686855   2.92301227   2.92516196   2.92679169   2.9281984
   2.9409039    2.94312587   2.94758365   2.94906859   2.9514265
   2.95371017   2.95581319   2.96894622   2.97077457   2.9752707
   2.97829975   2.98131177   2.9821016    2.98724035   2.98918819
   2.99123648   2.99257827   2.99779148   2.9999002    3.00232557
   3.00670809   3.00885058   3.01134484   3.01197485   3.01459606
   3.01499878   3.01674674   3.02740145   3.03304361   3.04039834
   3.04465019   3.04909325   3.05263968   3.05320871   3.0549598
   3.05790258   3.06336471   3.06409537   3.06485629   3.06711363
   3.06836721   3.06928519   3.07319438   3.07439596   3.07487566
   3.07905905   3.0809734    3.08248768   3.08697311   3.08993905
   3.09265906   3.0980723    3.09999533   3.10144502   3.11531461
   3.12233285   3.13188454   3.14218936   3.14331742   3.15037195
   3.1744321    3.20183269   3.27683086   3.28637476   3.29524469
   3.29731133   3.34339868   3.34610454   3.35475911   3.35713016
   3.36494738   3.3696865    3.37276734   3.40287108   3.41101356
   3.41487454   3.41654324   3.41832414   3.42787986   3.43426987
   3.44232835   3.44582237   3.45000144   3.4600425    3.46085576
   3.46449984   3.47156312   3.49074918   3.49441193   3.49511492
   3.49745509   3.50929981   3.53565847   3.55944859   3.6543672
   3.67014637   3.6900553    3.69396365   3.73762693   3.73926829
   3.76542385   3.76681148   3.77742549   3.79224182   3.79551129
   3.80305766   3.806466     3.80926732   3.81608664   3.82142872
   3.83203716   3.83483821   3.84450966   3.84817862   3.85376316
   3.85586705   3.8579011    3.8632649    3.87074322   3.88029556
   3.88534395   3.88964554   3.89433433   3.89735419   3.90135978
   3.90989132   3.92013365   3.92569994   3.93951848   3.95231489
   3.96072455   3.96487015   3.96915574   3.97818127   3.99906306
   4.00895395   4.01275726   4.02529634   4.03134734   4.03579274
   4.04122435   4.04293359   4.04755343   4.05785131   4.0696007
   4.07653681   4.08810502   4.09062612   4.09889938   4.10054702
   4.10984045   4.13528626   4.14037106   4.15820507   4.16807055
   4.17939278   4.1953055    4.20788389]
    CPU time for vj and vk    204.11 sec, wall time     25.53 sec
E1 = -13190.274885098406  E_coul = 5828.377854979406
cycle= 2 E= -2432.73240478401  delta_E= -0.8  |g|= 1.09  |ddm|= 1.87
    CPU time for cycle= 2    205.41 sec, wall time     25.69 sec
diis-norm(errvec)=1.83778
diis-c [-0.910552    0.28349927  0.71650073]
  HOMO = -0.408347993324348  LUMO = 0.0763580425838175
  mo_energy =
[-20.68342829 -20.68068808 -20.67949344 -20.67179563 -20.6400998
 -20.63893802 -20.6227878  -20.62278734 -20.62264605 -20.61890402
 -20.61124329 -20.6016299  -20.60108363 -20.59113826 -20.58699566
 -20.58010386 -20.57365975 -20.5721058  -20.56512806 -20.56420228
 -20.56325274 -20.56266545 -20.56136614 -20.56129845 -20.55666024
 -20.53985264 -20.53718597 -20.53684154 -20.53169358 -20.52272482
 -20.52213468 -20.49506947  -1.45096464  -1.45046741  -1.44760263
  -1.4428193   -1.41214686  -1.41141528  -1.39739099  -1.39725854
  -1.39621162  -1.38805874  -1.38339135  -1.37617368  -1.3723744
  -1.35794178  -1.35012071  -1.34727917  -1.34221778  -1.3420254
  -1.34039476  -1.3383907   -1.33125538  -1.32901894  -1.32775891
  -1.32600452  -1.32475745  -1.3080617   -1.30691452  -1.30123986
  -1.29844257  -1.2877229   -1.28374025  -1.25722324  -0.81355802
  -0.81168243  -0.81088092  -0.80871202  -0.78052148  -0.77123104
  -0.7656389   -0.7607442   -0.76025061  -0.75524653  -0.75238353
  -0.74439717  -0.74181277  -0.73688545  -0.7339704   -0.72083285
  -0.71906653  -0.71632991  -0.71480453  -0.71312628  -0.70517368
  -0.69710526  -0.69470332  -0.69020495  -0.68991604  -0.68425858
  -0.68290031  -0.68075915  -0.679199    -0.67467715  -0.67173113
  -0.66830291  -0.66717001  -0.66357284  -0.64975771  -0.63677734
  -0.63097918  -0.63009066  -0.62640814  -0.62347503  -0.62280151
  -0.61750562  -0.61705797  -0.61046134  -0.60125879  -0.59840393
  -0.5934708   -0.59172392  -0.59083606  -0.58361871  -0.58138997
  -0.58104968  -0.58059989  -0.5725199   -0.57237274  -0.57011763
  -0.5664924   -0.5634946   -0.5599007   -0.55452798  -0.55254024
  -0.5478675   -0.54560619  -0.54198586  -0.54127507  -0.53920454
  -0.53790722  -0.53410726  -0.5271657   -0.52641091  -0.52566161
  -0.52227957  -0.5221438   -0.51517372  -0.51308532  -0.509532
  -0.50940732  -0.50008729  -0.49809445  -0.49479279  -0.49226578
  -0.48984288  -0.48848638  -0.48078892  -0.48019018  -0.47698437
  -0.47662903  -0.47168588  -0.46702107  -0.46621032  -0.4613868
  -0.45433851  -0.45084932  -0.44199071  -0.4357515   -0.40834799
   0.07635804   0.09675459   0.11643882   0.12325671   0.14872138
   0.17628      0.17839465   0.18777938   0.19099626   0.19584243
   0.2007928    0.20717796   0.22459265   0.22942453   0.23369313
   0.24062762   0.24471842   0.24923757   0.25379455   0.25934728
   0.2644971    0.26741276   0.27606189   0.2781064    0.28054699
   0.28831381   0.29834949   0.30054003   0.31085458   0.31630721
   0.32282847   0.32585621   0.33294177   0.3342029    0.33575411
   0.34125292   0.34497651   0.35889069   0.36392304   0.36534651
   0.37393305   0.37754888   0.38179138   0.38574628   0.39471816
   0.4059154    0.4093894    0.41606565   0.42041748   0.42543972
   0.42825493   0.43466725   0.43966655   0.44340641   0.44878114
   0.45476938   0.45539003   0.46314471   0.47209036   0.48211307
   0.49274772   0.49613226   0.50918164   0.51691318   0.87554926
   0.89631207   0.90413437   0.91088028   0.9186808    0.92848622
   0.93310252   0.94407986   0.94725856   0.95072525   0.9530901
   0.96121049   0.96871614   0.97630965   0.98119663   0.98541515
   0.98782717   0.99381678   0.99643346   1.00179909   1.00672368
   1.00812994   1.01039254   1.01555559   1.01907144   1.02217939
   1.0254289    1.02672152   1.03239772   1.03392854   1.038584
   1.04042037   1.04206565   1.04350017   1.04440718   1.04865451
   1.05508676   1.05854943   1.06436264   1.06679896   1.06951889
   1.07372425   1.07838958   1.08090503   1.08349996   1.08368508
   1.0888471    1.09011744   1.09434715   1.0961112    1.09875078
   1.10176528   1.1024408    1.10402883   1.10991983   1.11094412
   1.1200032    1.12021753   1.12232007   1.12404049   1.12877276
   1.13073417   1.13576363   1.13620137   1.13793762   1.14349071
   1.14705683   1.15152204   1.15329768   1.15657437   1.16185926
   1.16620356   1.17052531   1.17394205   1.17628949   1.17868418
   1.18472879   1.1896866    1.19561346   1.19719934   1.2003679
   1.20361716   1.20448591   1.20789239   1.21039202   1.2139097
   1.21659693   1.21994231   1.22052807   1.22467603   1.22571799
   1.22735753   1.23469667   1.23957132   1.24385872   1.2466483
   1.24875445   1.2506047    1.25324061   1.25563067   1.2596796
   1.26358917   1.26978596   1.27069441   1.27650407   1.28134105
   1.28390338   1.28545056   1.29034577   1.29227567   1.29629385
   1.30194716   1.3047937    1.30811412   1.31237864   1.31405515
   1.31753301   1.31961924   1.32079025   1.32801062   1.33049058
   1.33260964   1.33492684   1.33786622   1.34136243   1.34793489
   1.34993508   1.35269921   1.35403335   1.35779426   1.36200327
   1.36572938   1.37296486   1.3747777    1.37931929   1.38417693
   1.38664798   1.3945304    1.39787164   1.39987005   1.40555356
   1.41235007   1.41477673   1.4188163    1.42651434   1.43202674
   1.44381554   1.44789269   1.45759246   1.47336288   1.47658538
   1.48313866   1.48727642   1.4958094    1.50210779   1.50630736
   1.5281521    1.54364387   1.55072275   1.55677239   1.5691451
   1.57951067   1.59265065   1.60428648   1.61104118   1.62060851
   1.63502987   1.64422774   1.65188687   1.65858854   1.65957261
   1.671119     1.67969067   1.68273596   1.68754788   1.69056903
   1.69495356   1.69882343   1.70430073   1.70841819   1.70937044
   1.71776009   1.72674591   1.72982895   1.73810417   1.74105135
   1.74339351   1.74805549   1.75001979   1.75425545   1.7550215
   1.75819911   1.75916175   1.76561421   1.76813622   1.77237641
   1.77497814   1.77647428   1.78072916   1.78199636   1.78617172
   1.78805597   1.78924897   1.79471482   1.79863195   1.80001007
   1.80105547   1.80503283   1.81240532   1.81441154   1.81497735
   1.8171089    1.82036516   1.8210491    1.82271363   1.82526357
   1.82586445   1.82958565   1.83131891   1.83502203   1.83664733
   1.83702482   1.84249141   1.84380664   1.84868201   1.84955593
   1.85049625   1.85140936   1.8540479    1.85792475   1.85957497
   1.86229444   1.86376817   1.86601072   1.86706551   1.87200144
   1.87544328   1.87995867   1.88346871   1.88597943   1.88950941
   1.89619207   1.89820326   1.9016165    1.90829438   1.90932598
   1.91424882   1.92355631   1.92500954   1.92556371   1.93027233
   1.93152102   1.93214507   1.9348053    1.93679793   1.94491514
   1.94668494   1.9521772    1.95669232   1.96094226   1.96361418
   1.9667734    1.96911296   1.9730482    1.97564609   1.97974065
   1.98432251   1.98931062   1.99153008   2.0008903    2.00297633
   2.00529936   2.01232472   2.01405508   2.02024679   2.02794799
   2.03118737   2.03628484   2.03955096   2.05034197   2.05847531
   2.06278094   2.06892607   2.08405399   2.10033805   2.11718061
   2.145331     2.1762356    2.46301937   2.46375537   2.47169049
   2.47549347   2.48237601   2.48539137   2.49120183   2.49214339
   2.50568747   2.51007023   2.52335636   2.5254856    2.52819103
   2.53179775   2.53974048   2.54816947   2.55072574   2.55479711
   2.55732898   2.55982536   2.56727573   2.5687911    2.57904599
   2.58217004   2.58626225   2.58939448   2.59307852   2.59453339
   2.59952387   2.60311955   2.6058887    2.60928973   2.61412713
   2.61679948   2.61878481   2.62060029   2.62437916   2.6249394
   2.62701771   2.62849287   2.63484368   2.64050904   2.64859833
   2.65002302   2.65069884   2.65652788   2.66099225   2.66685718
   2.66898913   2.67696811   2.67767817   2.68347504   2.68647852
   2.6887334    2.694778     2.6987506    2.70481791   2.70558188
   2.71500658   2.71696052   2.72448986   2.7264763    2.73044123
   2.73355176   2.73714422   2.73883762   2.74812043   2.77114989
   2.77453194   2.77534502   2.77901839   2.78146644   2.80404431
   2.80826692   2.81279986   2.81614099   2.81776426   2.82667565
   2.83055187   2.83243704   2.83528179   2.83965036   2.85117497
   2.8625161    2.86630904   2.87002102   2.87180847   2.87582628
   2.87799949   2.88004392   2.88747728   2.8883268    2.89781974
   2.90106994   2.90424694   2.90558029   2.91131115   2.91614188
   2.91914097   2.92393904   2.92544623   2.92939454   2.93106512
   2.93280189   2.93827615   2.94053174   2.94263842   2.94470668
   2.95810242   2.9592814    2.96034243   2.96499387   2.97001321
   2.97130878   2.97160913   2.9750122    2.97819375   2.98027063
   2.982357     2.98433838   2.98639704   2.99235098   2.99250898
   2.99320964   2.99540974   2.99950262   3.00630974   3.01439702
   3.0200732    3.02177272   3.02288386   3.02480508   3.02502445
   3.02943439   3.03283702   3.0346832    3.03549629   3.03670486
   3.03964237   3.04019513   3.04176613   3.04189003   3.04770311
   3.04900337   3.05232866   3.0528016    3.05496652   3.05645149
   3.05871605   3.06197881   3.06422058   3.07159052   3.08033583
   3.0903665    3.09184353   3.09976348   3.10817779   3.13071544
   3.13449463   3.16412856   3.28310333   3.28813004   3.29889139
   3.30432986   3.33918343   3.34031417   3.34590879   3.35123363
   3.35554931   3.36027767   3.36448049   3.37742533   3.38890367
   3.39211371   3.39278697   3.40162694   3.40297095   3.41142452
   3.41481083   3.41679695   3.42248997   3.42794624   3.42972172
   3.43653483   3.44827404   3.45277967   3.45702947   3.45883787
   3.46628092   3.47210254   3.48971447   3.52175033   3.65451175
   3.67663052   3.68805124   3.69242073   3.72575722   3.72746156
   3.75311609   3.75754588   3.76099883   3.76934019   3.77246541
   3.77797736   3.77906891   3.7861199    3.78951901   3.79906101
   3.80141551   3.80553184   3.80732487   3.82183113   3.82564457
   3.82653094   3.83191759   3.84022783   3.84404971   3.84624468
   3.84756303   3.85888259   3.86083092   3.87296273   3.87403107
   3.8794787    3.88387228   3.88855862   3.89808232   3.91040939
   3.92448632   3.93327024   3.93915368   3.94180014   3.95695997
   3.96247864   3.96890029   3.98356519   3.98698427   3.99297187
   3.99640635   3.9976027    4.00051797   4.00945993   4.01608319
   4.0274165    4.03656793   4.04443731   4.04695768   4.05089193
   4.06197558   4.08188457   4.08369273   4.08514708   4.1215248
   4.12943817   4.14281006   4.15499024]
    CPU time for vj and vk    192.40 sec, wall time     24.06 sec
E1 = -13210.034853261714  E_coul = 5847.929943883771
cycle= 3 E= -2432.94028404296  delta_E= -0.208  |g|= 0.167  |ddm|= 0.729
    CPU time for cycle= 3    193.80 sec, wall time     24.24 sec
diis-norm(errvec)=0.307578
diis-c [-0.04470399 -0.03287785  0.0553053   0.97757255]
  HOMO = -0.401658793211716  LUMO = 0.0850980630853233
  mo_energy =
[-20.64923805 -20.64881211 -20.6445294  -20.64001964 -20.61054052
 -20.60932977 -20.59643149 -20.59444449 -20.58992372 -20.58678139
 -20.5864721  -20.57738166 -20.57616043 -20.55587399 -20.54873957
 -20.54482694 -20.54409411 -20.53762092 -20.53640141 -20.53587697
 -20.5357273  -20.53453174 -20.53357368 -20.52572387 -20.52412174
 -20.51508009 -20.51125084 -20.50285842 -20.49892135 -20.490674
 -20.48711651 -20.46256582  -1.43449729  -1.43429965  -1.42883736
  -1.42644603  -1.39758511  -1.39730583  -1.38487496  -1.38454178
  -1.38215067  -1.37479514  -1.37194194  -1.36471664  -1.36093589
  -1.34408716  -1.33881155  -1.33256788  -1.33144427  -1.33084764
  -1.32812385  -1.32498762  -1.32173509  -1.31866209  -1.31748788
  -1.31258257  -1.31099567  -1.29890827  -1.29839662  -1.28944406
  -1.28746324  -1.27690021  -1.27191433  -1.24760603  -0.79728031
  -0.79643681  -0.79560343  -0.79146848  -0.76786345  -0.75766903
  -0.7545275   -0.74769625  -0.74753465  -0.743004    -0.74121451
  -0.73354563  -0.7317547   -0.72648205  -0.72196462  -0.71289798
  -0.70827839  -0.70664181  -0.70310224  -0.70201004  -0.69363112
  -0.6874112   -0.68349727  -0.68057545  -0.67819562  -0.67528044
  -0.67361043  -0.67185827  -0.6672548   -0.66422867  -0.66329523
  -0.65554432  -0.65482951  -0.65405834  -0.63992275  -0.62685864
  -0.62037353  -0.61922191  -0.61705169  -0.61534816  -0.6130179
  -0.60982281  -0.6063398   -0.60011373  -0.58964412  -0.58924961
  -0.58175939  -0.58021382  -0.5789117   -0.57322072  -0.57267498
  -0.57189553  -0.57037252  -0.56450111  -0.56432882  -0.56097218
  -0.55610236  -0.55416875  -0.55141405  -0.54551742  -0.54435278
  -0.53791121  -0.53726326  -0.53268672  -0.53193966  -0.52943054
  -0.52886292  -0.52581603  -0.51889492  -0.51801435  -0.51717571
  -0.51420936  -0.51349237  -0.50810193  -0.50523804  -0.50180396
  -0.498565    -0.48875602  -0.48831156  -0.48750144  -0.48180701
  -0.48134861  -0.47997967  -0.47385214  -0.46982251  -0.46936168
  -0.46617632  -0.46595638  -0.45904259  -0.45890689  -0.45509806
  -0.44551082  -0.44241329  -0.4336849   -0.42703531  -0.40165879
   0.08509806   0.1053667    0.1248534    0.1324828    0.15465341
   0.18295841   0.18614448   0.19424687   0.19725597   0.20395676
   0.20765988   0.21411295   0.23132276   0.23495722   0.24019699
   0.24644298   0.25266852   0.25539673   0.25984812   0.26578727
   0.2702631    0.27482882   0.28140158   0.28328561   0.28596533
   0.29384377   0.30537032   0.30690766   0.31583408   0.32271227
   0.32876959   0.33211038   0.3385657    0.34065569   0.34217404
   0.34676955   0.35050148   0.36448932   0.36900805   0.37225893
   0.38017327   0.38469258   0.38853948   0.39207819   0.4006525
   0.41256558   0.41546148   0.42103833   0.42599622   0.43232687
   0.43439749   0.4401095    0.44438354   0.44770547   0.4545749
   0.46004522   0.46249245   0.46853402   0.47681625   0.48784817
   0.4979623    0.50073265   0.51466635   0.52129804   0.88814597
   0.90234991   0.91478207   0.92053008   0.92659038   0.93737304
   0.94309604   0.95203752   0.95485636   0.95978405   0.9608975
   0.9693863    0.97820491   0.98507381   0.98882182   0.99412293
   0.99731806   1.00402342   1.00604201   1.01121399   1.01382378
   1.01480767   1.02085171   1.02686171   1.02832813   1.02916086
   1.03505879   1.03693171   1.04138837   1.04221414   1.04602502
   1.04839771   1.05026811   1.05228449   1.0531398    1.05767556
   1.06429372   1.06832508   1.07381346   1.07585333   1.07730263
   1.08202478   1.08579475   1.08966744   1.09194821   1.09265463
[...]
  -0.73315457  -0.73185205  -0.72617159  -0.7221773   -0.71285844
  -0.7087205   -0.70716184  -0.70341418  -0.70241693  -0.6940258
  -0.68774681  -0.68383843  -0.68080729  -0.67909114  -0.67565619
  -0.67384498  -0.67231483  -0.66749935  -0.6644497   -0.66354827
  -0.65575406  -0.65529933  -0.65433164  -0.64074728  -0.62759298
  -0.6211791   -0.61951409  -0.6174575   -0.61602506  -0.61337997
  -0.61027212  -0.6070989   -0.60081295  -0.59074246  -0.58984244
  -0.5826933   -0.58107344  -0.58024469  -0.57408201  -0.57350702
  -0.57291533  -0.57144862  -0.56527341  -0.56524059  -0.56218256
  -0.55730467  -0.55545558  -0.55216782  -0.5463219   -0.54531329
  -0.53930422  -0.53846308  -0.53397796  -0.53331941  -0.53097353
  -0.53020716  -0.52701839  -0.52022998  -0.51938848  -0.51836062
  -0.51543466  -0.5149115   -0.50918729  -0.50645063  -0.50328306
  -0.50035479  -0.4905684   -0.49043974  -0.48875983  -0.48352223
  -0.48338077  -0.48165528  -0.475504    -0.47132926  -0.47104935
  -0.468747    -0.46732741  -0.460969    -0.46014562  -0.456809
  -0.44749067  -0.44428019  -0.43569878  -0.42948579  -0.40406232
   0.08521084   0.1053172    0.1251557    0.13271466   0.1545137
   0.18289789   0.18626009   0.1942502    0.19721093   0.2041567
   0.20761826   0.21424485   0.23129313   0.23467508   0.24013085
   0.2462965    0.25272533   0.25530229   0.25954971   0.26557283
   0.27001393   0.27485365   0.28120227   0.28308045   0.28578272
   0.29363576   0.3053118    0.3068919    0.31559526   0.32262783
   0.32870316   0.33208194   0.33827182   0.34058077   0.34234782
   0.34677816   0.35042008   0.36428122   0.3685876    0.37221318
   0.37994364   0.38445345   0.38840161   0.39180132   0.40051353
   0.41242224   0.41546656   0.42084845   0.42586969   0.43215111
   0.43440722   0.43988363   0.44417756   0.44752661   0.4543658
   0.45977933   0.46228606   0.46834818   0.47658745   0.48778285
   0.49775375   0.50055166   0.51452793   0.52102534   0.88821513
   0.90210536   0.91465669   0.92030247   0.92635863   0.93710206
   0.94295828   0.95162455   0.95435258   0.95956143   0.96048623
   0.96896828   0.97797171   0.98453685   0.9883742    0.99367461
   0.99691625   1.00357344   1.00574035   1.010906     1.01320828
   1.01434753   1.02067886   1.026654     1.02782546   1.02858451
   1.0346216    1.03666464   1.04085725   1.04174132   1.04550138
   1.04788547   1.04963466   1.05174509   1.05278569   1.05717907
   1.06384719   1.06789918   1.07336719   1.07526421   1.07656962
   1.08153602   1.08507194   1.08902251   1.09134837   1.09194119
   1.09779696   1.09799573   1.10210282   1.10439433   1.10662653
   1.1093862    1.11000374   1.11271481   1.11718866   1.11803859
   1.12661836   1.12788724   1.12917929   1.13140256   1.1360352
   1.13837376   1.14284684   1.14344707   1.14564243   1.15126633
   1.15409106   1.1591962    1.16170067   1.16387316   1.16890932
   1.17413259   1.17739292   1.18215154   1.18404186   1.18682555
   1.19142396   1.19739468   1.20368092   1.20513007   1.20685665
   1.21095298   1.21347103   1.21570784   1.21917563   1.22108453
   1.22469004   1.22667249   1.22728279   1.23128902   1.23216702
   1.23577589   1.24246355   1.24692316   1.25153621   1.25389688
   1.25703487   1.25867521   1.26074521   1.26327331   1.26788269
   1.27012464   1.27785883   1.28010558   1.28450144   1.28786549
   1.29182101   1.29330334   1.29976693   1.30113386   1.30463197
   1.30946649   1.3130082    1.31621325   1.31932902   1.32117448
   1.32566008   1.32722064   1.32930005   1.33684898   1.33870595
   1.34125947   1.34285546   1.34509801   1.34925478   1.3557615
   1.35756697   1.3599132    1.36185159   1.36591643   1.37084385
   1.37430959   1.3802175    1.38283888   1.38630409   1.39151742
   1.39409745   1.40197206   1.40473746   1.40675983   1.41338042
   1.42062589   1.42266316   1.42467032   1.43413475   1.44009527
   1.44952223   1.45481948   1.464911     1.48051075   1.48440856
   1.4901474    1.49468652   1.50294355   1.51163279   1.51497986
   1.53558883   1.55146851   1.55903393   1.56450293   1.57633627
   1.58924983   1.60133475   1.61361535   1.61997797   1.63131231
   1.64405806   1.65261518   1.66030269   1.6697856    1.67012686
   1.67931654   1.68838426   1.69146122   1.69557684   1.69977908
   1.70866528   1.71361554   1.71382437   1.72122872   1.72350575
   1.72863244   1.73714523   1.74118246   1.74909394   1.75071205
   1.75383104   1.75896124   1.76109535   1.76491829   1.76584207
   1.76831933   1.76939365   1.77769574   1.77824337   1.78304768
   1.78465035   1.78689975   1.78925076   1.79098257   1.79537893
   1.79744871   1.79877065   1.80328404   1.80782766   1.8084315
   1.81108222   1.8148026    1.82162438   1.82344479   1.82379516
   1.82636159   1.82848928   1.829911     1.83275561   1.83331951
   1.83490139   1.83867773   1.84023661   1.84232588   1.84489341
   1.84630036   1.85197619   1.85243731   1.85610279   1.85774932
   1.85848243   1.85968091   1.86164987   1.8662677    1.86757091
   1.86982327   1.87137044   1.87441411   1.87618987   1.88082824
   1.88328027   1.88731964   1.89170606   1.89338791   1.89663896
   1.90346824   1.90561548   1.90955499   1.91473992   1.91852529
   1.92076139   1.93201891   1.93259533   1.93408838   1.9394536
   1.93973202   1.94060435   1.94244319   1.94532638   1.9534193
   1.95545083   1.95999244   1.96381583   1.96869469   1.97237189
   1.97411325   1.97723711   1.9809632    1.98285656   1.98740387
   1.99177372   1.99691741   1.99862935   2.00890516   2.00957547
   2.01298291   2.01941145   2.02126538   2.02950248   2.03361884
   2.03711702   2.0421676    2.04763221   2.05713715   2.06486773
   2.06948729   2.07540233   2.09006353   2.10558809   2.12259321
   2.15020895   2.18207027   2.47764462   2.47840884   2.48652069
   2.49062656   2.49767061   2.50012587   2.50538913   2.50655206
   2.51624682   2.52247762   2.53597816   2.53676621   2.53791845
   2.54381281   2.54922076   2.55678599   2.5615389    2.56520324
   2.56728502   2.56965597   2.57703853   2.5779901    2.58876256
   2.59244483   2.59329497   2.59795952   2.60240233   2.60403848
   2.60811441   2.61297287   2.61518736   2.6186778    2.62234901
   2.62743046   2.62766405   2.62886133   2.63311765   2.63439111
   2.63616786   2.63649455   2.64162667   2.64684251   2.65512289
   2.65608101   2.65682025   2.66641946   2.66851185   2.67541618
   2.67807452   2.68408892   2.68524431   2.69127869   2.69355447
   2.69538941   2.70088347   2.70493902   2.71381303   2.72049849
   2.72335581   2.7283695    2.73766269   2.73980621   2.74170297
   2.74197819   2.74895122   2.75145353   2.75632865   2.7854447
   2.78625237   2.78742688   2.79045677   2.79268463   2.81389004
   2.8168106    2.82358617   2.82723469   2.82959161   2.83888533
   2.8400693    2.84318886   2.8458554    2.85049278   2.85945461
   2.87531691   2.87600447   2.88013434   2.88530805   2.8866995
   2.88889703   2.89225841   2.89741038   2.90069545   2.90585828
   2.9111508    2.91540492   2.91952808   2.9210488    2.92482385
   2.93307595   2.935534     2.93734152   2.93741624   2.94209228
   2.94359703   2.94850051   2.94953198   2.95222757   2.95476894
   2.96662299   2.96922483   2.97022013   2.97470719   2.97926971
   2.98127524   2.98213365   2.9852453    2.9881458    2.98996198
   2.99182111   2.9935188    2.99523559   3.00073076   3.00236202
   3.00387194   3.00404235   3.00748062   3.01527366   3.02076691
   3.02685252   3.02909956   3.03058988   3.03254097   3.03266568
   3.03643023   3.0387748    3.04027688   3.04275851   3.04292733
   3.0458845    3.04750284   3.04905314   3.05030489   3.05377487
   3.05522677   3.05837498   3.05974958   3.06294046   3.0641776
   3.06572763   3.06730714   3.07048552   3.07926969   3.08598692
   3.09497251   3.09709611   3.10541811   3.11458823   3.13824071
   3.1395398    3.17216175   3.29784178   3.30343559   3.31297638
   3.3184864    3.3503835    3.35108735   3.35684539   3.36415094
   3.36542416   3.36992351   3.37401101   3.38707275   3.39676624
   3.40152805   3.4022743    3.40945112   3.41127644   3.41904849
   3.42174944   3.42484448   3.42923462   3.4345973    3.43876981
   3.44335544   3.45534275   3.45914727   3.46291801   3.46487017
   3.4711998    3.47699437   3.49404226   3.52708901   3.67309979
   3.69422409   3.70612341   3.71087634   3.73990312   3.74292951
   3.7658905    3.77231984   3.77470598   3.78225551   3.78582284
   3.7897639    3.79188417   3.79891837   3.80252276   3.81168105
   3.81261041   3.81804413   3.82062681   3.83241582   3.83735676
   3.83854364   3.8451144    3.85260284   3.85572079   3.85776443
   3.86072048   3.86883543   3.87245523   3.88398628   3.88795232
   3.89225554   3.89569385   3.89957536   3.90827955   3.91909003
   3.93405135   3.94496498   3.95066688   3.95312861   3.9684844
   3.97386678   3.98005479   3.99318733   3.99832408   4.00251345
   4.00678808   4.00814053   4.01053501   4.01823362   4.02594452
   4.03649629   4.04520112   4.05440685   4.05817065   4.06046366
   4.0707028    4.08963249   4.09178351   4.09277811   4.12847045
   4.13788787   4.14912414   4.16250973]
    CPU time for vj and vk     80.94 sec, wall time     10.12 sec
E1 = -13207.754249918336  E_coul = 5845.642448750154
cycle= 10 E= -2432.9471758332  delta_E= -3.02e-10  |g|= 1.09e-05  |ddm|= 3.75e-05
    CPU time for cycle= 10     82.17 sec, wall time     10.28 sec
  HOMO = -0.404060932070284  LUMO = 0.0852106149855955
  mo_energy =
[-20.65054202 -20.64997828 -20.64712164 -20.64103287 -20.61190719
 -20.61017705 -20.59666933 -20.59602253 -20.5920006  -20.58908632
 -20.58748143 -20.57784097 -20.57663667 -20.55828527 -20.55183213
 -20.547647   -20.54580067 -20.53871845 -20.53833483 -20.53801026
 -20.53618963 -20.53577328 -20.53506014 -20.52948789 -20.52707471
 -20.51565884 -20.51261447 -20.50519768 -20.50087109 -20.492642
 -20.49092524 -20.46562876  -1.43497271  -1.43470183  -1.42965063
  -1.42657166  -1.39813848  -1.39778023  -1.38522442  -1.38520152
  -1.38332831  -1.37608875  -1.37244787  -1.36528883  -1.36140322
  -1.34523773  -1.33944891  -1.33397108  -1.3320723   -1.33185229
  -1.32969483  -1.3264841   -1.32246197  -1.31921147  -1.31849019
  -1.31388411  -1.3129388   -1.29958791  -1.29944704  -1.29078843
  -1.28868587  -1.27820336  -1.27380262  -1.24929371  -0.79677677
  -0.7957066   -0.79503411  -0.79113456  -0.76755829  -0.75721896
  -0.75480932  -0.74796912  -0.74735822  -0.74274079  -0.74165148
  -0.7331537   -0.73185224  -0.7261715   -0.72217682  -0.71285839
  -0.70872075  -0.70716211  -0.70341454  -0.70241643  -0.69402573
  -0.68774731  -0.68383849  -0.68080727  -0.67909095  -0.67565653
  -0.67384487  -0.67231492  -0.6675002   -0.66445013  -0.66354868
  -0.65575374  -0.65529945  -0.65433234  -0.64074695  -0.62759304
  -0.62117977  -0.61951401  -0.61745769  -0.61602441  -0.61338005
  -0.61027163  -0.60709875  -0.60081334  -0.59074229  -0.58984246
  -0.5826937   -0.58107408  -0.58024509  -0.57408202  -0.57350716
  -0.57291507  -0.57144876  -0.56527354  -0.56524101  -0.56218239
  -0.55730391  -0.55545507  -0.55216764  -0.54632183  -0.54531365
  -0.53930473  -0.53846333  -0.53397812  -0.53331938  -0.53097352
  -0.53020741  -0.52701859  -0.52023008  -0.51938859  -0.51836085
  -0.51543422  -0.51491104  -0.50918749  -0.50645084  -0.50328273
  -0.50035373  -0.49056818  -0.49043878  -0.48876053  -0.4835225
  -0.48338091  -0.48165516  -0.47550317  -0.47132927  -0.47104977
  -0.46874663  -0.46732742  -0.46096951  -0.46014583  -0.45680946
  -0.44748982  -0.44428064  -0.43569871  -0.4294853   -0.40406093
   0.08521061   0.10531703   0.12515549   0.13271439   0.15451377
   0.1828978    0.18625991   0.19425011   0.19721086   0.20415657
   0.20761817   0.21424475   0.23129311   0.2346751    0.24013081
   0.2462965    0.25272519   0.25530226   0.25954972   0.26557271
   0.27001388   0.27485351   0.28120227   0.28308046   0.28578268
   0.2936357    0.30531176   0.30689184   0.31559523   0.32262778
   0.32870314   0.3320819    0.33827181   0.34058077   0.3423477
   0.34677812   0.35042013   0.36428125   0.36858767   0.37221312
   0.37994369   0.38445346   0.38840175   0.39180128   0.40051357
   0.41242247   0.41546668   0.42084851   0.42586986   0.43215112
   0.43440732   0.4398837    0.44417769   0.4475268    0.45436577
   0.45977938   0.46228597   0.46834824   0.47658752   0.48778289
   0.4977538    0.50055156   0.51452799   0.52102524   0.88821472
   0.90210526   0.91465669   0.92030233   0.92635841   0.93710209
   0.94295805   0.95162442   0.95435246   0.9595616    0.9604862
   0.96896834   0.9779716    0.98453665   0.98837407   0.9936745
   0.99691605   1.00357329   1.00574034   1.01090583   1.01320848
   1.0143475    1.02067869   1.02665368   1.02782539   1.0285845
   1.03462145   1.03666452   1.04085728   1.04174123   1.04550141
   1.04788541   1.04963474   1.05174495   1.05278566   1.05717904
   1.06384705   1.06789914   1.07336707   1.07526413   1.07656964
   1.08153598   1.08507207   1.08902226   1.09134821   1.09194124
   1.09779707   1.09799557   1.10210269   1.10439427   1.10662664
   1.10938628   1.11000364   1.11271469   1.11718872   1.11803855
   1.12661837   1.12788733   1.12917929   1.13140258   1.13603518
   1.13837376   1.14284686   1.14344699   1.14564232   1.1512664
   1.15409103   1.15919626   1.16170078   1.1638732    1.16890947
   1.17413257   1.17739294   1.18215146   1.18404196   1.18682555
   1.19142412   1.19739472   1.20368107   1.20513007   1.20685701
   1.2109532    1.21347098   1.21570781   1.21917561   1.22108457
   1.22469009   1.22667247   1.22728291   1.23128932   1.232167
   1.23577584   1.24246363   1.2469232    1.25153622   1.25389684
   1.25703484   1.25867497   1.26074528   1.26327328   1.26788264
   1.27012457   1.27785883   1.28010556   1.28450133   1.28786549
   1.29182099   1.29330322   1.29976687   1.30113377   1.30463183
   1.30946653   1.31300813   1.31621329   1.31932901   1.32117455
   1.3256602    1.32722045   1.32929982   1.33684916   1.33870606
   1.34125962   1.34285546   1.34509816   1.3492548    1.35576131
   1.35756683   1.35991331   1.36185172   1.36591654   1.37084375
   1.37430953   1.38021759   1.382839     1.38630405   1.39151752
   1.39409742   1.40197218   1.40473751   1.40675988   1.41338067
   1.42062578   1.4226631    1.42467058   1.43413463   1.44009519
   1.44952226   1.45481947   1.46491104   1.48051087   1.48440847
   1.49014732   1.49468648   1.50294351   1.51163254   1.51497959
   1.53558871   1.55146846   1.55903381   1.56450278   1.57633607
   1.58924992   1.6013345    1.61361513   1.61997785   1.63131216
   1.64405803   1.65261523   1.66030277   1.66978577   1.67012677
   1.67931649   1.68838424   1.69146094   1.69557677   1.69977909
   1.70866554   1.71361557   1.71382381   1.72122845   1.72350526
   1.72863239   1.73714526   1.74118213   1.74909392   1.75071191
   1.75383084   1.75896144   1.76109528   1.76491788   1.76584186
   1.76831914   1.76939344   1.77769567   1.77824398   1.7830477
   1.78465024   1.78689958   1.78925074   1.7909826    1.79537885
   1.79744867   1.79877067   1.8032841    1.8078276    1.80843151
   1.81108227   1.81480276   1.82162444   1.82344474   1.82379507
   1.82636148   1.82848915   1.82991114   1.8327556    1.83331951
   1.83490144   1.83867779   1.84023667   1.84232576   1.84489338
   1.84630071   1.8519765    1.85243735   1.85610287   1.85774925
   1.85848245   1.85968117   1.86165      1.86626749   1.86757068
   1.86982352   1.87137068   1.87441384   1.8761898    1.88082837
   1.8832802    1.88731963   1.89170622   1.89338788   1.8966392
   1.90346823   1.90561535   1.90955501   1.91474017   1.91852568
   1.92076167   1.93201901   1.93259545   1.93408829   1.9394538
   1.939732     1.94060428   1.94244311   1.9453266    1.95341911
   1.95545081   1.95999241   1.96381579   1.96869462   1.9723717
   1.97411368   1.97723713   1.98096313   1.98285697   1.98740385
   1.99177385   1.99691748   1.99862954   2.00890518   2.00957555
   2.01298282   2.01941131   2.0212656    2.02950259   2.03361901
   2.03711698   2.04216803   2.0476323    2.05713729   2.06486765
   2.0694873    2.07540235   2.09006344   2.10558791   2.12259301
   2.15020899   2.18206983   2.47764435   2.47840858   2.48652071
   2.49062626   2.49767008   2.50012526   2.50538913   2.50655159
   2.51624674   2.52247736   2.53597781   2.53676596   2.5379187
   2.54381256   2.54922059   2.55678595   2.56153871   2.56520339
   2.56728524   2.56965646   2.57703842   2.57799005   2.58876257
   2.59244508   2.59329504   2.59795949   2.60240235   2.60403847
   2.60811439   2.61297281   2.61518721   2.6186774    2.6223491
   2.62743044   2.62766413   2.62886108   2.63311777   2.6343914
   2.63616781   2.63649442   2.64162672   2.64684245   2.65512297
   2.65608099   2.65682025   2.66641994   2.66851205   2.67541635
   2.67807499   2.68408906   2.68524428   2.69127887   2.69355454
   2.69538965   2.7008837    2.7049393    2.71381298   2.72049812
   2.72335555   2.72836928   2.73766268   2.73980609   2.74170279
   2.7419778    2.74895104   2.75145366   2.75632814   2.7854445
   2.78625232   2.78742663   2.79045639   2.79268473   2.81388984
   2.8168104    2.82358627   2.82723494   2.82959195   2.83888558
   2.84006935   2.84318895   2.84585554   2.85049275   2.85945432
   2.87531666   2.87600444   2.8801342    2.88530775   2.88669941
   2.8888967    2.89225803   2.8974104    2.90069526   2.90585837
   2.91115081   2.91540481   2.91952756   2.92104866   2.92482381
   2.93307573   2.93553423   2.93734184   2.93741644   2.94209211
   2.94359675   2.94850035   2.94953186   2.9522274    2.95476877
   2.96662324   2.96922481   2.97022017   2.97470732   2.9792696
   2.98127521   2.98213383   2.98524546   2.98814591   2.98996215
   2.9918212    2.99351893   2.99523547   3.00073067   3.00236202
   3.00387181   3.00404208   3.00748047   3.01527371   3.02076694
   3.02685263   3.0290994    3.03059008   3.03254143   3.03266556
   3.03643039   3.03877489   3.04027694   3.04275839   3.04292727
   3.04588429   3.04750289   3.04905323   3.05030513   3.05377511
   3.0552267    3.05837517   3.05974943   3.06294054   3.06417787
   3.06572761   3.06730722   3.0704856    3.07926965   3.08598717
   3.09497271   3.0970962    3.10541825   3.11458807   3.13824061
   3.13953978   3.17216177   3.29784134   3.30343514   3.31297598
   3.31848645   3.35038302   3.35108708   3.35684524   3.3641508
   3.36542453   3.36992365   3.37401107   3.38707309   3.3967661
   3.4015284    3.40227437   3.40945104   3.41127636   3.41904847
   3.42174946   3.42484461   3.42923464   3.43459757   3.43876977
   3.44335544   3.45534274   3.45914741   3.46291804   3.46487005
   3.47119961   3.47699435   3.49404258   3.52708905   3.67309923
   3.6942242    3.70612266   3.7108758    3.73990296   3.74292957
   3.76589039   3.77231959   3.7747059    3.78225562   3.78582286
   3.78976378   3.79188383   3.79891858   3.80252296   3.81168108
   3.81261063   3.81804415   3.82062675   3.83241576   3.83735662
   3.83854346   3.84511439   3.85260281   3.85572064   3.85776434
   3.86072007   3.86883547   3.87245501   3.88398634   3.88795209
   3.89225521   3.89569377   3.89957536   3.90827941   3.91908987
   3.93405131   3.94496517   3.95066634   3.95312887   3.96848449
   3.97386675   3.98005525   3.99318702   3.99832457   4.00251324
   4.00678817   4.00814044   4.01053489   4.01823356   4.02594447
   4.03649659   4.04520144   4.05440677   4.05817135   4.06046351
   4.07070271   4.08963289   4.09178351   4.09277817   4.12847056
   4.13788762   4.14912403   4.16250949]
    CPU time for vj and vk     73.10 sec, wall time      9.14 sec
E1 = -13207.75428468722  E_coul = 5845.642483519
Extra cycle  E= -2432.94717583323  delta_E= -3.73e-11  |g|= 5.71e-06  |ddm|= 1.55e-05
    CPU time for scf_cycle   1809.96 sec, wall time    226.35 sec
    CPU time for SCF   1810.36 sec, wall time    226.58 sec
converged SCF energy = -2432.94717583323
