#INFO: **** input file is /share/home/srwang/dftpart/test/mayer/eda.py ****
from dftpart.eda import mayer
from pyscf import lib

with lib.with_omp_threads(4):
    test1 = mayer.MayerEDA()
    test1.gjf = 'c3.gjf' # provide geom, charge, multiplicity
    test1.method = ['hf','6-31gs'] 
    test1.output = 'c3'
    test1.verbose = 9
    #test1.build()
    #test1.showinter=True
    #test1.lso = 'c8b/c8b.lso'
    totE, conv, RR2 = test1.kernel()
        

#INFO: ******************** input file end ********************


System: uname_result(system='Linux', node='xn01', release='3.10.0-1127.el7.x86_64', version='#1 SMP Tue Feb 18 16:39:12 EST 2020', machine='x86_64', processor='x86_64')  Threads 4
Python 3.7.4 (default, Aug 13 2019, 20:35:49) 
[GCC 7.3.0]
numpy 1.17.2  scipy 1.4.1
Date: Thu Jul 15 18:57:18 2021
PySCF version 1.7.6a1
PySCF path  /share/home/srwang/pyscf/pyscf
GIT ORIG_HEAD 80f71dfe77ac5f9caae26788acf76446987635bd
GIT HEAD      ref: refs/heads/master
GIT master branch  80f71dfe77ac5f9caae26788acf76446987635bd

[ENV] PYSCF_EXT_PATH /share/home/srwang/pyscf_ext/fciqmc:
[CONFIG] DEBUG = False
[CONFIG] MAX_MEMORY = 4000
[CONFIG] TMPDIR = .
[CONFIG] UNIT = angstrom
[CONFIG] VERBOSE = 3
[CONFIG] conf_file = /share/home/srwang/.pyscf_conf.py
[CONFIG] mcscf_analyze_with_meta_lowdin = False
[INPUT] verbose = 9
[INPUT] max_memory = 4000 
[INPUT] num. atoms = 11
[INPUT] num. electrons = 26
[INPUT] charge = 0
[INPUT] spin (= nelec alpha-beta = 2S) = 0
[INPUT] symmetry False subgroup None
[INPUT] Mole.unit = angstrom
[INPUT]  1 C     -6.673773490000  -1.716417880000   0.000000000000 AA  -12.611604113483  -3.243559708507   0.000000000000 Bohr
[INPUT]  2 H     -6.317119070000  -2.725227890000   0.000000000000 AA  -11.937624938567  -5.149934339126   0.000000000000 Bohr
[INPUT]  3 H     -6.317100650000  -1.212019690000  -0.873651500000 AA  -11.937590129812  -2.290385271680  -1.650962063315 Bohr
[INPUT]  4 H     -7.743773490000  -1.716404700000   0.000000000000 AA  -14.633611066767  -3.243534801916   0.000000000000 Bohr
[INPUT]  5 C     -6.160431280000  -0.990461610000   1.257404970000 AA  -11.641527928404  -1.871701179796   2.376151020967 Bohr
[INPUT]  6 H     -6.517085910000   0.018348320000   1.257405100000 AA  -12.315507500162   0.034673299646   2.376151266631 Bohr
[INPUT]  7 H     -6.517103970000  -1.494860270000   2.131056260000 AA  -12.315541628616  -2.824876504793   4.027112687440 Bohr
[INPUT]  8 C     -4.620431280000  -0.990480780000   1.257404590000 AA   -8.731349696574  -1.871737405846   2.376150302871 Bohr
[INPUT]  9 H     -4.263758430000  -0.485912670000   2.130957970000 AA   -8.057335694006  -0.918241866756   4.026926946259 Bohr
[INPUT] 10 H     -4.263777490000  -1.999290990000   1.257600160000 AA   -8.057371712185  -3.778112414411   2.376519876609 Bohr
[INPUT] 11 H     -4.263758350000  -0.486251980000   0.383655350000 AA   -8.057335542827  -0.918883069727   0.725003537724 Bohr
[INPUT] ---------------- BASIS SET ---------------- 
[INPUT] l, kappa, [nprim/nctr], expnt,             c_1 c_2 ...
[INPUT] H
[INPUT] 0    0    [3    /1   ]  18.731137         0.0334946
                                2.8253937         0.23472695
                                0.6401217         0.81375733
[INPUT] 0    0    [1    /1   ]  0.1612778            1
[INPUT] C
[INPUT] 0    0    [6    /1   ]  3047.5249         0.0018347
                                457.36951         0.0140373
                                103.94869         0.0688426
                                29.210155         0.2321844
                                9.286663          0.4679413
                                3.163927          0.362312
[INPUT] 0    0    [3    /1   ]  7.8682724         -0.1193324
                                1.8812885         -0.1608542
                                0.5442493         1.1434564
[INPUT] 0    0    [1    /1   ]  0.1687144            1
[INPUT] 1    0    [3    /1   ]  7.8682724         0.0689991
                                1.8812885         0.316424
                                0.5442493         0.7443083
[INPUT] 1    0    [1    /1   ]  0.1687144            1
[INPUT] 2    0    [1    /1   ]  0.8                  1

nuclear repulsion = 83.3207448412445
number of shells = 34
number of NR pGTOs = 113
number of NR cGTOs = 58
basis = 6-31gs
ecp = {}
bas 0, expnt(s) = [3047.5249    457.36951   103.94869    29.210155    9.286663    3.163927]
bas 1, expnt(s) = [7.868272 1.881288 0.544249]
bas 2, expnt(s) = [0.168714]
bas 3, expnt(s) = [7.868272 1.881288 0.544249]
bas 4, expnt(s) = [0.168714]
bas 5, expnt(s) = [0.8]
bas 6, expnt(s) = [18.731137  2.825394  0.640122]
bas 7, expnt(s) = [0.161278]
bas 8, expnt(s) = [18.731137  2.825394  0.640122]
bas 9, expnt(s) = [0.161278]
bas 10, expnt(s) = [18.731137  2.825394  0.640122]
bas 11, expnt(s) = [0.161278]
bas 12, expnt(s) = [3047.5249    457.36951   103.94869    29.210155    9.286663    3.163927]
bas 13, expnt(s) = [7.868272 1.881288 0.544249]
bas 14, expnt(s) = [0.168714]
bas 15, expnt(s) = [7.868272 1.881288 0.544249]
bas 16, expnt(s) = [0.168714]
bas 17, expnt(s) = [0.8]
bas 18, expnt(s) = [18.731137  2.825394  0.640122]
bas 19, expnt(s) = [0.161278]
bas 20, expnt(s) = [18.731137  2.825394  0.640122]
bas 21, expnt(s) = [0.161278]
bas 22, expnt(s) = [3047.5249    457.36951   103.94869    29.210155    9.286663    3.163927]
bas 23, expnt(s) = [7.868272 1.881288 0.544249]
bas 24, expnt(s) = [0.168714]
bas 25, expnt(s) = [7.868272 1.881288 0.544249]
bas 26, expnt(s) = [0.168714]
bas 27, expnt(s) = [0.8]
bas 28, expnt(s) = [18.731137  2.825394  0.640122]
bas 29, expnt(s) = [0.161278]
bas 30, expnt(s) = [18.731137  2.825394  0.640122]
bas 31, expnt(s) = [0.161278]
bas 32, expnt(s) = [18.731137  2.825394  0.640122]
bas 33, expnt(s) = [0.161278]
CPU time:         0.50
arg.atm = [[ 6 20  1 23  0  0]
 [ 1 24  1 27  0  0]
 [ 1 28  1 31  0  0]
 [ 1 32  1 35  0  0]
 [ 6 36  1 39  0  0]
 [ 1 40  1 43  0  0]
 [ 1 44  1 47  0  0]
 [ 6 48  1 51  0  0]
 [ 1 52  1 55  0  0]
 [ 1 56  1 59  0  0]
 [ 1 60  1 63  0  0]]
arg.bas = [[  0   0   6   1   0  72  78   0]
 [  0   0   3   1   0  84  87   0]
 [  0   0   1   1   0  90  91   0]
 [  0   1   3   1   0  92  95   0]
 [  0   1   1   1   0  98  99   0]
 [  0   2   1   1   0 100 101   0]
 [  1   0   3   1   0  64  67   0]
 [  1   0   1   1   0  70  71   0]
 [  2   0   3   1   0  64  67   0]
 [  2   0   1   1   0  70  71   0]
 [  3   0   3   1   0  64  67   0]
 [  3   0   1   1   0  70  71   0]
 [  4   0   6   1   0  72  78   0]
 [  4   0   3   1   0  84  87   0]
 [  4   0   1   1   0  90  91   0]
 [  4   1   3   1   0  92  95   0]
 [  4   1   1   1   0  98  99   0]
 [  4   2   1   1   0 100 101   0]
 [  5   0   3   1   0  64  67   0]
 [  5   0   1   1   0  70  71   0]
 [  6   0   3   1   0  64  67   0]
 [  6   0   1   1   0  70  71   0]
 [  7   0   6   1   0  72  78   0]
 [  7   0   3   1   0  84  87   0]
 [  7   0   1   1   0  90  91   0]
 [  7   1   3   1   0  92  95   0]
 [  7   1   1   1   0  98  99   0]
 [  7   2   1   1   0 100 101   0]
 [  8   0   3   1   0  64  67   0]
 [  8   0   1   1   0  70  71   0]
 [  9   0   3   1   0  64  67   0]
 [  9   0   1   1   0  70  71   0]
 [ 10   0   3   1   0  64  67   0]
 [ 10   0   1   1   0  70  71   0]]
arg.env = [   0.          0.          0.          0.          0.          0.          0.          0.          0.          0.          0.          0.          0.
    0.          0.          0.          0.          0.          0.          0.        -12.611604   -3.24356     0.          0.        -11.937625   -5.149934
    0.          0.        -11.93759    -2.290385   -1.650962    0.        -14.633611   -3.243535    0.          0.        -11.641528   -1.871701    2.376151
    0.        -12.315508    0.034673    2.376151    0.        -12.315542   -2.824877    4.027113    0.         -8.73135    -1.871737    2.37615     0.
   -8.057336   -0.918242    4.026927    0.         -8.057372   -3.778112    2.37652     0.         -8.057336   -0.918883    0.725004    0.         18.731137
    2.825394    0.640122    0.761926    1.292371    1.471319    0.161278    0.642978 3047.5249    457.36951   103.94869    29.210155    9.286663    3.163927
    1.901256    3.507511    5.662218    7.370526    6.289284    2.171539    7.868272    1.881288    0.544249   -1.41639    -0.652813    1.830556    0.168714
    0.665088    7.868272    1.881288    0.544249    2.652632    2.033869    1.015043    0.168714    0.315446    0.8         1.765781]
ecpbas  = []


******** <class 'pyscf.scf.hf.RHF'> ********
method = RHF
initial guess = minao
damping factor = 0
level_shift factor = 0
DIIS = <class 'pyscf.scf.diis.CDIIS'>
diis_start_cycle = 1
diis_space = 8
SCF conv_tol = 1e-09
SCF conv_tol_grad = None
SCF max_cycles = 50
direct_scf = True
direct_scf_tol = 1e-13
chkfile to save SCF result = /share/home/srwang/dftpart/test/mayer/tmpzyyzo2jv
max_memory 4000 MB (current use 75 MB)
Set gradient conv threshold to 3.16228e-05
Nelec from initial guess = 25.9877277005198
E1 = -320.57867822019847  E_coul = 118.65276394860001
init E= -118.605169430354
cond(S) = 807.9438966759529
    CPU time for initialize scf      0.45 sec, wall time      0.12 sec
  HOMO = -0.364345023218128  LUMO = 0.156191393937422
  mo_energy =
[-11.333752 -11.332421 -11.324147  -1.520669  -1.19753   -0.936127  -0.612978  -0.562759  -0.486022  -0.461202  -0.380329  -0.374903  -0.364345   0.156191
   0.220477   0.23452    0.237047   0.245864   0.288988   0.294916   0.295038   0.299686   0.344632   0.663392   0.667463   0.701061   0.701635   0.725682
   0.822066   0.871131   0.903399   0.946693   1.077367   1.092901   1.09453    1.12309    1.124429   1.16112    1.162772   1.177151   1.207007   1.60586
   1.645145   1.647482   1.758668   1.96046    2.126154   2.13168    2.213028   2.273052   2.359407   2.501313   2.529988   2.597977   2.624742   2.668566
   2.795415   2.93161 ]
E1 = -322.6715104550812  E_coul = 121.11715176781847
cycle= 1 E= -118.233613846018  delta_E= 0.372  |g|= 0.272  |ddm|= 2.46
    CPU time for cycle= 1      0.03 sec, wall time      0.01 sec
diis-norm(errvec)=0.562893
diis-c [-0.316849  1.      ]
  HOMO = -0.463402345136219  LUMO = 0.228807466948588
  mo_energy =
[-11.232236 -11.202489 -11.202462  -1.067296  -0.93881   -0.817739  -0.640127  -0.604601  -0.555634  -0.541652  -0.483752  -0.478571  -0.463402   0.228807
   0.293889   0.296644   0.297233   0.314556   0.337988   0.355644   0.35662    0.379634   0.424102   0.713153   0.714251   0.744908   0.748397   0.770967
   0.924444   0.963838   0.963881   1.000816   1.157388   1.179355   1.186692   1.208726   1.214402   1.243731   1.259003   1.27534    1.276882   1.666834
   1.724623   1.728599   1.815262   2.049216   2.218277   2.219166   2.302823   2.361232   2.451582   2.596439   2.624241   2.685009   2.72033    2.764326
   2.892525   3.029379]
E1 = -322.9332835405721  E_coul = 121.354047568012
cycle= 2 E= -118.258491131316  delta_E= -0.0249  |g|= 0.0648  |ddm|= 0.234
    CPU time for cycle= 2      0.03 sec, wall time      0.01 sec
diis-norm(errvec)=0.135864
diis-c [-0.003122 -0.283872  1.283872]
  HOMO = -0.458742543235164  LUMO = 0.236179319857944
  mo_energy =
[-11.193595 -11.193529 -11.191653  -1.050966  -0.925797  -0.802242  -0.630426  -0.597194  -0.550046  -0.537047  -0.476933  -0.472427  -0.458743   0.236179
   0.302086   0.304243   0.304688   0.323948   0.345102   0.362324   0.363866   0.392028   0.435799   0.718179   0.720172   0.751133   0.756057   0.775788
   0.938086   0.973372   0.978695   1.006767   1.170462   1.189631   1.202213   1.218181   1.225006   1.257112   1.270269   1.289604   1.289899   1.673804
   1.738842   1.742009   1.825315   2.059243   2.228059   2.233208   2.3182     2.375297   2.463722   2.607557   2.635244   2.704883   2.732743   2.776855
   2.908626   3.044957]
E1 = -322.86106383726025  E_coul = 121.2802766209978
cycle= 3 E= -118.260042375018  delta_E= -0.00155  |g|= 0.0102  |ddm|= 0.0773
    CPU time for cycle= 3      0.03 sec, wall time      0.01 sec
diis-norm(errvec)=0.0177546
diis-c [-0.000195 -0.053012  0.209846  0.843166]
  HOMO = -0.463280891608116  LUMO = 0.235093863252051
  mo_energy =
[-11.209547 -11.197517 -11.197486  -1.055198  -0.927848  -0.80572   -0.633801  -0.599852  -0.552451  -0.53853   -0.480462  -0.476679  -0.463281   0.235094
   0.301121   0.302986   0.303508   0.322432   0.343192   0.361413   0.362913   0.389158   0.432831   0.716382   0.717134   0.748752   0.752728   0.774236
   0.932916   0.969817   0.972519   1.005283   1.166265   1.187947   1.198235   1.216593   1.22315    1.253963   1.268318   1.2857     1.288196   1.672268
   1.733853   1.737145   1.822238   2.055899   2.225152   2.227858   2.312646   2.370167   2.459598   2.605197   2.63297    2.697568   2.729479   2.77307
   2.90239    3.038729]
E1 = -322.9030162703755  E_coul = 121.32220041653711
cycle= 4 E= -118.260071012594  delta_E= -2.86e-05  |g|= 0.00255  |ddm|= 0.0114
    CPU time for cycle= 4      0.03 sec, wall time      0.01 sec
diis-norm(errvec)=0.00503467
diis-c [-0.000008  0.00919  -0.051904  0.125013  0.917701]
  HOMO = -0.463049911394683  LUMO = 0.235172177122906
  mo_energy =
[-11.207408 -11.197444 -11.197409  -1.054578  -0.927669  -0.805368  -0.633448  -0.599727  -0.552409  -0.53855   -0.480207  -0.476408  -0.46305    0.235172
   0.301133   0.303144   0.30361    0.322572   0.343428   0.361427   0.362963   0.389446   0.433011   0.716417   0.717204   0.748914   0.752912   0.774236
   0.93339    0.970117   0.97305    1.005198   1.166739   1.187942   1.198518   1.216629   1.223182   1.254213   1.268337   1.286063   1.288014   1.672336
   1.734285   1.737581   1.822503   2.056068   2.225278   2.228291   2.313213   2.370644   2.459909   2.605194   2.632964   2.69839    2.729572   2.773294
   2.902969   3.039357]
E1 = -322.89426166600896  E_coul = 121.31344371199945
cycle= 5 E= -118.260073112765  delta_E= -2.1e-06  |g|= 0.000335  |ddm|= 0.00341
    CPU time for cycle= 5      0.03 sec, wall time      0.01 sec
diis-norm(errvec)=0.000600963
diis-c [-0.        0.001855 -0.007863 -0.020217 -0.054635  1.08086 ]
  HOMO = -0.46312707120402  LUMO = 0.235152952631276
  mo_energy =
[-11.207323 -11.19744  -11.197405  -1.054611  -0.927699  -0.80537   -0.633464  -0.59976   -0.552451  -0.538595  -0.480223  -0.476459  -0.463127   0.235153
   0.301119   0.303126   0.303586   0.322575   0.343425   0.361407   0.362935   0.389434   0.433      0.716367   0.717162   0.748879   0.752887   0.774204
   0.933347   0.970107   0.973027   1.005163   1.166727   1.187918   1.198517   1.216592   1.223143   1.254196   1.268312   1.286063   1.287994   1.672275
   1.73426    1.737546   1.822479   2.056025   2.225227   2.228269   2.313181   2.370603   2.45987    2.605142   2.632912   2.69837    2.729531   2.773246
   2.902956   3.039339]
E1 = -322.8938010960622  E_coul = 121.31298307877728
cycle= 6 E= -118.26007317604  delta_E= -6.33e-08  |g|= 6.51e-05  |ddm|= 0.000807
    CPU time for cycle= 6      0.03 sec, wall time      0.01 sec
diis-norm(errvec)=0.000117655
diis-c [-0.       -0.000546  0.002448  0.001772 -0.009127 -0.19917   1.204624]
  HOMO = -0.463137150470091  LUMO = 0.235151596374772
  mo_energy =
[-11.207307 -11.19744  -11.197405  -1.054613  -0.927705  -0.805375  -0.63346   -0.599766  -0.552453  -0.538591  -0.48022   -0.476461  -0.463137   0.235152
   0.301116   0.303128   0.303586   0.322572   0.343427   0.361405   0.362937   0.389435   0.432999   0.716368   0.717156   0.748881   0.752886   0.774203
   0.933347   0.970109   0.973023   1.005162   1.166731   1.187914   1.198515   1.216595   1.223146   1.254198   1.268309   1.28606    1.287993   1.672277
   1.734261   1.737545   1.822477   2.056024   2.225226   2.228268   2.313182   2.370603   2.459868   2.605142   2.63291    2.698372   2.72953    2.773247
   2.902955   3.039341]
E1 = -322.8936950917485  E_coul = 121.31287707189936
cycle= 7 E= -118.260073178605  delta_E= -2.56e-09  |g|= 1.28e-05  |ddm|= 0.000158
    CPU time for cycle= 7      0.03 sec, wall time      0.01 sec
diis-norm(errvec)=2.43655e-05
diis-c [-0.       -0.00006   0.000249  0.000755  0.004558 -0.043952 -0.076242  1.114691]
  HOMO = -0.463139770645255  LUMO = 0.235150317321706
  mo_energy =
[-11.207312 -11.197445 -11.197411  -1.054616  -0.927708  -0.805377  -0.63346   -0.599767  -0.552456  -0.538593  -0.48022   -0.476463  -0.46314    0.23515
   0.301114   0.303127   0.303585   0.322572   0.343428   0.361403   0.362936   0.389433   0.432998   0.716365   0.717154   0.74888    0.752885   0.774202
   0.933344   0.970108   0.97302    1.00516    1.16673    1.187912   1.198514   1.216592   1.223143   1.254197   1.268306   1.286059   1.28799    1.672274
   1.734258   1.737543   1.822476   2.056021   2.225223   2.228266   2.31318    2.3706     2.459865   2.605139   2.632907   2.69837    2.729527   2.773243
   2.902953   3.039338]
E1 = -322.8937192747133  E_coul = 121.31290125477409
cycle= 8 E= -118.260073178695  delta_E= -9.01e-11  |g|= 2.44e-06  |ddm|= 3.2e-05
    CPU time for cycle= 8      0.03 sec, wall time      0.01 sec
  HOMO = -0.46313922333121  LUMO = 0.23515056092306
  mo_energy =
[-11.207312 -11.197443 -11.197409  -1.054615  -0.927707  -0.805376  -0.63346   -0.599767  -0.552455  -0.538593  -0.480219  -0.476462  -0.463139   0.235151
   0.301114   0.303128   0.303585   0.322572   0.343428   0.361403   0.362936   0.389434   0.432998   0.716366   0.717155   0.74888    0.752885   0.774202
   0.933345   0.970109   0.973021   1.00516    1.16673    1.187913   1.198514   1.216593   1.223144   1.254198   1.268307   1.286059   1.28799    1.672275
   1.734259   1.737543   1.822476   2.056022   2.225224   2.228266   2.31318    2.3706     2.459866   2.60514    2.632908   2.69837    2.729528   2.773244
   2.902953   3.039338]
E1 = -322.89371432260253  E_coul = 121.31289630266097
Extra cycle  E= -118.260073178697  delta_E= -2.33e-12  |g|= 9.46e-07  |ddm|= 4.02e-06
    CPU time for scf_cycle      0.72 sec, wall time      0.19 sec
    CPU time for SCF      0.72 sec, wall time      0.19 sec
converged SCF energy = -118.260073178697
