#INFO: **** input file is /share/home/srwang/dftpart/test_2body/mayer/eda.py ****
from dftpart.eda import mayer
from pyscf import lib

with lib.with_omp_threads(4):
    test1 = mayer.MayerEDA()
    test1.gjf = 'c3.gjf' # provide geom, charge, multiplicity
    test1.method = ['b3lyp','6-31gs'] 
    test1.output = 'c3'
    test1.verbose = 9
    #test1.build()
    test1.showinter=True
    #test1.lso = 'c8b/c8b.lso'
    test1.kernel()
        

#INFO: ******************** input file end ********************


System: uname_result(system='Linux', node='xn01', release='3.10.0-1127.el7.x86_64', version='#1 SMP Tue Feb 18 16:39:12 EST 2020', machine='x86_64', processor='x86_64')  Threads 4
Python 3.7.4 (default, Aug 13 2019, 20:35:49) 
[GCC 7.3.0]
numpy 1.17.2  scipy 1.4.1
Date: Thu Jul 15 13:27:49 2021
PySCF version 1.7.6a1
PySCF path  /share/home/srwang/pyscf/pyscf
GIT ORIG_HEAD 80f71dfe77ac5f9caae26788acf76446987635bd
GIT HEAD      ref: refs/heads/master
GIT master branch  80f71dfe77ac5f9caae26788acf76446987635bd

[ENV] PYSCF_EXT_PATH /share/home/srwang/pyscf_ext/fciqmc:
[CONFIG] DEBUG = False
[CONFIG] MAX_MEMORY = 4000
[CONFIG] TMPDIR = .
[CONFIG] UNIT = angstrom
[CONFIG] VERBOSE = 3
[CONFIG] conf_file = /share/home/srwang/.pyscf_conf.py
[CONFIG] mcscf_analyze_with_meta_lowdin = False
[INPUT] verbose = 9
[INPUT] max_memory = 4000 
[INPUT] num. atoms = 11
[INPUT] num. electrons = 26
[INPUT] charge = 0
[INPUT] spin (= nelec alpha-beta = 2S) = 0
[INPUT] symmetry False subgroup None
[INPUT] Mole.unit = angstrom
[INPUT]  1 C     -6.673773490000  -1.716417880000   0.000000000000 AA  -12.611604113483  -3.243559708507   0.000000000000 Bohr
[INPUT]  2 H     -6.317119070000  -2.725227890000   0.000000000000 AA  -11.937624938567  -5.149934339126   0.000000000000 Bohr
[INPUT]  3 H     -6.317100650000  -1.212019690000  -0.873651500000 AA  -11.937590129812  -2.290385271680  -1.650962063315 Bohr
[INPUT]  4 H     -7.743773490000  -1.716404700000   0.000000000000 AA  -14.633611066767  -3.243534801916   0.000000000000 Bohr
[INPUT]  5 C     -6.160431280000  -0.990461610000   1.257404970000 AA  -11.641527928404  -1.871701179796   2.376151020967 Bohr
[INPUT]  6 H     -6.517085910000   0.018348320000   1.257405100000 AA  -12.315507500162   0.034673299646   2.376151266631 Bohr
[INPUT]  7 H     -6.517103970000  -1.494860270000   2.131056260000 AA  -12.315541628616  -2.824876504793   4.027112687440 Bohr
[INPUT]  8 C     -4.620431280000  -0.990480780000   1.257404590000 AA   -8.731349696574  -1.871737405846   2.376150302871 Bohr
[INPUT]  9 H     -4.263758430000  -0.485912670000   2.130957970000 AA   -8.057335694006  -0.918241866756   4.026926946259 Bohr
[INPUT] 10 H     -4.263777490000  -1.999290990000   1.257600160000 AA   -8.057371712185  -3.778112414411   2.376519876609 Bohr
[INPUT] 11 H     -4.263758350000  -0.486251980000   0.383655350000 AA   -8.057335542827  -0.918883069727   0.725003537724 Bohr
[INPUT] ---------------- BASIS SET ---------------- 
[INPUT] l, kappa, [nprim/nctr], expnt,             c_1 c_2 ...
[INPUT] H
[INPUT] 0    0    [3    /1   ]  18.731137         0.0334946
                                2.8253937         0.23472695
                                0.6401217         0.81375733
[INPUT] 0    0    [1    /1   ]  0.1612778            1
[INPUT] C
[INPUT] 0    0    [6    /1   ]  3047.5249         0.0018347
                                457.36951         0.0140373
                                103.94869         0.0688426
                                29.210155         0.2321844
                                9.286663          0.4679413
                                3.163927          0.362312
[INPUT] 0    0    [3    /1   ]  7.8682724         -0.1193324
                                1.8812885         -0.1608542
                                0.5442493         1.1434564
[INPUT] 0    0    [1    /1   ]  0.1687144            1
[INPUT] 1    0    [3    /1   ]  7.8682724         0.0689991
                                1.8812885         0.316424
                                0.5442493         0.7443083
[INPUT] 1    0    [1    /1   ]  0.1687144            1
[INPUT] 2    0    [1    /1   ]  0.8                  1

nuclear repulsion = 83.3207448412445
number of shells = 34
number of NR pGTOs = 113
number of NR cGTOs = 58
basis = 6-31gs
ecp = {}
bas 0, expnt(s) = [3047.5249    457.36951   103.94869    29.210155    9.286663    3.163927]
bas 1, expnt(s) = [7.868272 1.881288 0.544249]
bas 2, expnt(s) = [0.168714]
bas 3, expnt(s) = [7.868272 1.881288 0.544249]
bas 4, expnt(s) = [0.168714]
bas 5, expnt(s) = [0.8]
bas 6, expnt(s) = [18.731137  2.825394  0.640122]
bas 7, expnt(s) = [0.161278]
bas 8, expnt(s) = [18.731137  2.825394  0.640122]
bas 9, expnt(s) = [0.161278]
bas 10, expnt(s) = [18.731137  2.825394  0.640122]
bas 11, expnt(s) = [0.161278]
bas 12, expnt(s) = [3047.5249    457.36951   103.94869    29.210155    9.286663    3.163927]
bas 13, expnt(s) = [7.868272 1.881288 0.544249]
bas 14, expnt(s) = [0.168714]
bas 15, expnt(s) = [7.868272 1.881288 0.544249]
bas 16, expnt(s) = [0.168714]
bas 17, expnt(s) = [0.8]
bas 18, expnt(s) = [18.731137  2.825394  0.640122]
bas 19, expnt(s) = [0.161278]
bas 20, expnt(s) = [18.731137  2.825394  0.640122]
bas 21, expnt(s) = [0.161278]
bas 22, expnt(s) = [3047.5249    457.36951   103.94869    29.210155    9.286663    3.163927]
bas 23, expnt(s) = [7.868272 1.881288 0.544249]
bas 24, expnt(s) = [0.168714]
bas 25, expnt(s) = [7.868272 1.881288 0.544249]
bas 26, expnt(s) = [0.168714]
bas 27, expnt(s) = [0.8]
bas 28, expnt(s) = [18.731137  2.825394  0.640122]
bas 29, expnt(s) = [0.161278]
bas 30, expnt(s) = [18.731137  2.825394  0.640122]
bas 31, expnt(s) = [0.161278]
bas 32, expnt(s) = [18.731137  2.825394  0.640122]
bas 33, expnt(s) = [0.161278]
CPU time:         0.48
arg.atm = [[ 6 20  1 23  0  0]
 [ 1 24  1 27  0  0]
 [ 1 28  1 31  0  0]
 [ 1 32  1 35  0  0]
 [ 6 36  1 39  0  0]
 [ 1 40  1 43  0  0]
 [ 1 44  1 47  0  0]
 [ 6 48  1 51  0  0]
 [ 1 52  1 55  0  0]
 [ 1 56  1 59  0  0]
 [ 1 60  1 63  0  0]]
arg.bas = [[  0   0   6   1   0  72  78   0]
 [  0   0   3   1   0  84  87   0]
 [  0   0   1   1   0  90  91   0]
 [  0   1   3   1   0  92  95   0]
 [  0   1   1   1   0  98  99   0]
 [  0   2   1   1   0 100 101   0]
 [  1   0   3   1   0  64  67   0]
 [  1   0   1   1   0  70  71   0]
 [  2   0   3   1   0  64  67   0]
 [  2   0   1   1   0  70  71   0]
 [  3   0   3   1   0  64  67   0]
 [  3   0   1   1   0  70  71   0]
 [  4   0   6   1   0  72  78   0]
 [  4   0   3   1   0  84  87   0]
 [  4   0   1   1   0  90  91   0]
 [  4   1   3   1   0  92  95   0]
 [  4   1   1   1   0  98  99   0]
 [  4   2   1   1   0 100 101   0]
 [  5   0   3   1   0  64  67   0]
 [  5   0   1   1   0  70  71   0]
 [  6   0   3   1   0  64  67   0]
 [  6   0   1   1   0  70  71   0]
 [  7   0   6   1   0  72  78   0]
 [  7   0   3   1   0  84  87   0]
 [  7   0   1   1   0  90  91   0]
 [  7   1   3   1   0  92  95   0]
 [  7   1   1   1   0  98  99   0]
 [  7   2   1   1   0 100 101   0]
 [  8   0   3   1   0  64  67   0]
 [  8   0   1   1   0  70  71   0]
 [  9   0   3   1   0  64  67   0]
 [  9   0   1   1   0  70  71   0]
 [ 10   0   3   1   0  64  67   0]
 [ 10   0   1   1   0  70  71   0]]
arg.env = [   0.          0.          0.          0.          0.          0.          0.          0.          0.          0.          0.          0.          0.
    0.          0.          0.          0.          0.          0.          0.        -12.611604   -3.24356     0.          0.        -11.937625   -5.149934
    0.          0.        -11.93759    -2.290385   -1.650962    0.        -14.633611   -3.243535    0.          0.        -11.641528   -1.871701    2.376151
    0.        -12.315508    0.034673    2.376151    0.        -12.315542   -2.824877    4.027113    0.         -8.73135    -1.871737    2.37615     0.
   -8.057336   -0.918242    4.026927    0.         -8.057372   -3.778112    2.37652     0.         -8.057336   -0.918883    0.725004    0.         18.731137
    2.825394    0.640122    0.761926    1.292371    1.471319    0.161278    0.642978 3047.5249    457.36951   103.94869    29.210155    9.286663    3.163927
    1.901256    3.507511    5.662218    7.370526    6.289284    2.171539    7.868272    1.881288    0.544249   -1.41639    -0.652813    1.830556    0.168714
    0.665088    7.868272    1.881288    0.544249    2.652632    2.033869    1.015043    0.168714    0.315446    0.8         1.765781]
ecpbas  = []


******** <class 'pyscf.dft.rks.RKS'> ********
method = RKS-RHF
initial guess = minao
damping factor = 0
level_shift factor = 0
DIIS = <class 'pyscf.scf.diis.CDIIS'>
diis_start_cycle = 1
diis_space = 8
SCF conv_tol = 1e-09
SCF conv_tol_grad = None
SCF max_cycles = 50
direct_scf = True
direct_scf_tol = 1e-13
chkfile to save SCF result = /share/home/srwang/dftpart/test_2body/mayer/tmp0bcgipw6
max_memory 4000 MB (current use 75 MB)
XC functionals = b3lyp
small_rho_cutoff = 1e-07
radial grids: 
    Treutler-Ahlrichs [JCP 102, 346 (1995); DOI:10.1063/1.469408] (M4) radial grids
    
becke partition: Becke, JCP 88, 2547 (1988); DOI:10.1063/1.454033
pruning grids: <function nwchem_prune at 0x7f1c425d0950>
grids dens level: 3
symmetrized grids: False
atomic radii adjust function: <function treutler_atomic_radii_adjust at 0x7f1c425d0dd0>
atomic_radii : [3.77945  0.661404 2.645617 2.740103 1.984212 1.606267 1.322808 1.228322 1.133836 0.944863 2.834589 3.401507 2.834589 2.362158 2.078699 1.889726 1.889726
 1.889726 3.401507 4.157397 3.401507 3.023562 2.645617 2.55113  2.645617 2.645617 2.645617 2.55113  2.55113  2.55113  2.55113  2.456644 2.362158 2.173185
 2.173185 2.173185 3.59048  4.440856 3.779452 3.401507 2.929075 2.740103 2.740103 2.55113  2.456644 2.55113  2.645617 3.023562 2.929075 2.929075 2.740103
 2.740103 2.645617 2.645617 3.968425 4.913288 4.062911 3.684966 3.495993 3.495993 3.495993 3.495993 3.495993 3.495993 3.401507 3.307021 3.307021 3.307021
 3.307021 3.307021 3.307021 3.307021 2.929075 2.740103 2.55113  2.55113  2.456644 2.55113  2.55113  2.55113  2.834589 3.59048  3.401507 3.023562 3.59048
 2.740103 3.968425 3.401507 4.062911 3.684966 3.401507 3.401507 3.307021 3.307021 3.307021 3.307021 3.307021 3.307021 3.307021 3.307021 3.307021 3.307021
 3.307021 3.307021 3.307021 3.307021 3.307021 3.307021 3.307021 3.307021 3.307021 3.307021 3.307021 3.307021 3.307021 3.307021 3.307021 3.307021 3.307021
 3.307021 3.307021 3.307021 3.307021 3.307021 3.307021 3.307021 3.307021 3.307021 3.307021 3.307021 3.307021]
Set gradient conv threshold to 3.16228e-05
Nelec from initial guess = 25.9877277005198
atom C rad-grids = 75, ang-grids = [ 50  50  50  50  50  50  50  50  50  50  50  50  50  50  50  50  50  50  50  50  50  50  50  86  86  86  86  86  86  86  86  86  86 266 266 266 266 266 266
 266 302 302 302 302 302 302 302 302 302 302 302 302 302 302 302 302 302 302 302 302 266 266 266 266 266 266 266 266 266 266 266 266 266 266 266]
atom H rad-grids = 50, ang-grids = [ 50  50  50  50  50  50  50  50  50  50  50  50  50  50  86  86  86  86 266 266 266 266 302 302 302 302 302 302 302 302 302 302 302 302 302 266 266 266 266
 266 266 266 266 266 266 266 266 266 266 266]
tot grids = 121898
Drop grids 21830
    CPU time for setting up grids      0.33 sec, wall time      0.08 sec
nelec by numeric integration = 25.98772080371981
    CPU time for vxc      0.76 sec, wall time      0.19 sec
E1 = -320.57867822019847  Ecoul = 137.2752659288402  Exc = -19.055885017483067
init E= -119.038552467597
cond(S) = 807.9438966759529
    CPU time for initialize scf      1.54 sec, wall time      0.40 sec
  HOMO = -0.387494465332669  LUMO = 0.0441700929923349
  mo_energy =
[-10.295287 -10.295137 -10.287686  -0.95992   -0.820258  -0.694566  -0.532775  -0.506604  -0.464334  -0.44549   -0.397089  -0.392925  -0.387494   0.04417
   0.098433   0.099404   0.10192    0.121143   0.140334   0.140341   0.143257   0.150059   0.17471    0.441674   0.450771   0.481773   0.482313   0.505344
   0.566782   0.609784   0.657436   0.70847    0.810075   0.817577   0.827444   0.851827   0.857024   0.894441   0.9101     0.925507   0.987409   1.349692
   1.350165   1.350935   1.502378   1.64738    1.79446    1.815488   1.882929   1.943344   2.022995   2.155029   2.182529   2.246412   2.27254    2.315769
   2.434532   2.565518]
nelec by numeric integration = 25.99999707646388
    CPU time for vxc      0.74 sec, wall time      0.19 sec
E1 = -325.636520922392  Ecoul = 142.82213035596877  Exc = -19.499343650978037
cycle= 1 E= -118.992989376157  delta_E= 0.0456  |g|= 0.422  |ddm|= 2.58
    CPU time for cycle= 1      0.78 sec, wall time      0.20 sec
diis-norm(errvec)=0.744811
diis-c [-0.554743  1.      ]
  HOMO = -0.23281268960717  LUMO = 0.132623697957525
  mo_energy =
[-10.004382  -9.959534  -9.959501  -0.689872  -0.599799  -0.517104  -0.394344  -0.362346  -0.325774  -0.31715   -0.276271  -0.256571  -0.232813   0.132624
   0.1917     0.195669   0.196158   0.21101    0.236184   0.249048   0.249486   0.284749   0.31923    0.57491    0.580127   0.60121    0.607941   0.626306
   0.755599   0.78705    0.802432   0.834541   0.961093   0.965847   0.973274   1.004354   1.007989   1.03371    1.057325   1.073182   1.122124   1.477308
   1.549641   1.559475   1.623335   1.858355   2.011198   2.011758   2.085569   2.148353   2.230687   2.354448   2.379093   2.443747   2.477928   2.525883
   2.654651   2.788936]
nelec by numeric integration = 25.999992842225346
    CPU time for vxc      0.74 sec, wall time      0.19 sec
E1 = -320.54568782440685  Ecoul = 137.2864410722695  Exc = -19.041070810768808
cycle= 2 E= -118.979572721662  delta_E= 0.0134  |g|= 0.485  |ddm|= 0.897
    CPU time for cycle= 2      0.78 sec, wall time      0.20 sec
diis-norm(errvec)=0.862055
diis-c [-0.01041   0.537084  0.462916]
  HOMO = -0.319838667575592  LUMO = 0.102511685421386
  mo_energy =
[-10.159998 -10.146046 -10.146014  -0.775126  -0.674216  -0.580029  -0.457102  -0.429563  -0.391058  -0.378873  -0.33009   -0.329964  -0.319839   0.102512
   0.159505   0.161727   0.161937   0.182125   0.200779   0.210799   0.213321   0.22864    0.262817   0.519057   0.523281   0.553445   0.554422   0.575784
   0.667683   0.706827   0.739951   0.783508   0.897021   0.914716   0.916957   0.944032   0.944525   0.982099   1.005899   1.019228   1.063835   1.425394
   1.464485   1.467077   1.574896   1.765419   1.916329   1.927717   1.997875   2.060114   2.141188   2.272123   2.298225   2.361339   2.393005   2.43676
   2.559204   2.690153]
nelec by numeric integration = 25.99999469974636
    CPU time for vxc      0.74 sec, wall time      0.18 sec
E1 = -323.305371872192  Ecoul = 140.21579784871054  Exc = -19.273714772654376
cycle= 3 E= -119.042543954891  delta_E= -0.063  |g|= 0.0164  |ddm|= 0.466
    CPU time for cycle= 3      0.78 sec, wall time      0.19 sec
diis-norm(errvec)=0.0371657
diis-c [-0.000604  0.112415  0.102706  0.784879]
  HOMO = -0.320260124460837  LUMO = 0.10215136288192
  mo_energy =
[-10.157339 -10.150407 -10.150375  -0.774154  -0.675443  -0.581366  -0.457107  -0.43057   -0.392119  -0.379632  -0.330688  -0.330187  -0.32026    0.102151
   0.159767   0.161019   0.161928   0.181469   0.201002   0.210241   0.213286   0.229088   0.262143   0.518985   0.522842   0.55356    0.554207   0.575111
   0.668236   0.706976   0.739874   0.782545   0.897391   0.913925   0.91557    0.94339    0.944136   0.981874   1.004468   1.017601   1.063967   1.425796
   1.464536   1.467219   1.57494    1.764821   1.916222   1.927172   1.998596   2.060476   2.140876   2.271163   2.29715    2.362537   2.392031   2.436421
   2.559226   2.690584]
nelec by numeric integration = 25.999994825849313
    CPU time for vxc      0.76 sec, wall time      0.19 sec
E1 = -323.30080990860813  Ecoul = 140.2136735929255  Exc = -19.27620578247939
cycle= 4 E= -119.042597256918  delta_E= -5.33e-05  |g|= 0.00649  |ddm|= 0.0199
    CPU time for cycle= 4      0.81 sec, wall time      0.20 sec
diis-norm(errvec)=0.0120198
diis-c [-0.000037  0.003517  0.007074  0.227103  0.762307]
  HOMO = -0.320288490406637  LUMO = 0.102148613899594
  mo_energy =
[-10.160902 -10.148275 -10.148244  -0.77446   -0.674954  -0.581583  -0.45744   -0.4303    -0.391872  -0.379329  -0.331063  -0.330486  -0.320288   0.102149
   0.15968    0.161177   0.161948   0.181447   0.200746   0.210469   0.213381   0.228877   0.26207    0.519185   0.522892   0.553476   0.554036   0.575411
   0.668004   0.7064     0.739587   0.782952   0.897033   0.913736   0.916138   0.943794   0.944486   0.981769   1.004528   1.018121   1.063855   1.425866
   1.464251   1.46708    1.574691   1.76523    1.916088   1.927557   1.998094   2.060159   2.141042   2.271699   2.297754   2.361407   2.392377   2.436598
   2.55887    2.69022 ]
nelec by numeric integration = 25.99999477542955
    CPU time for vxc      0.74 sec, wall time      0.18 sec
E1 = -323.2996778037008  Ecoul = 140.2118512259207  Exc = -19.27552336307634
cycle= 5 E= -119.042605099612  delta_E= -7.84e-06  |g|= 0.00326  |ddm|= 0.0072
    CPU time for cycle= 5      0.77 sec, wall time      0.19 sec
diis-norm(errvec)=0.00585628
diis-c [-0.000001 -0.004952 -0.002173  0.057993  0.392705  0.556427]
  HOMO = -0.320149281646917  LUMO = 0.102188117670949
  mo_energy =
[-10.159233 -10.148648 -10.148616  -0.774244  -0.675003  -0.58132   -0.457259  -0.430273  -0.391873  -0.379449  -0.330845  -0.330284  -0.320149   0.102188
   0.15972    0.161186   0.161958   0.18157    0.200904   0.210438   0.21334    0.229055   0.262246   0.519134   0.522984   0.553549   0.554206   0.575366
   0.668224   0.706804   0.739796   0.782865   0.897258   0.913979   0.916081   0.94371    0.944388   0.981909   1.004712   1.01803    1.063979   1.425811
   1.464504   1.46727    1.574877   1.76521    1.916316   1.927514   1.998398   2.060387   2.141128   2.271595   2.297644   2.361978   2.392384   2.436654
   2.559212   2.690544]
nelec by numeric integration = 25.999994777456546
    CPU time for vxc      0.74 sec, wall time      0.18 sec
E1 = -323.2950773799926  Ecoul = 140.2069207947327  Exc = -19.275195942541608
cycle= 6 E= -119.042607686557  delta_E= -2.59e-06  |g|= 0.000197  |ddm|= 0.00265
    CPU time for cycle= 6      0.78 sec, wall time      0.19 sec
diis-norm(errvec)=0.00043733
diis-c [-0.       -0.001672 -0.000805  0.012221  0.108274  0.168742  0.713239]
  HOMO = -0.320160610122702  LUMO = 0.102193557987521
  mo_energy =
[-10.159231 -10.148624 -10.148592  -0.774243  -0.674993  -0.581316  -0.457255  -0.430282  -0.391864  -0.37942   -0.330841  -0.330282  -0.320161   0.102194
   0.159728   0.161189   0.161964   0.181558   0.200897   0.210441   0.213354   0.229054   0.262248   0.519147   0.522981   0.553552   0.554203   0.57537
   0.668223   0.706795   0.739794   0.782877   0.89726    0.913975   0.916076   0.943727   0.944412   0.981912   1.004705   1.018052   1.063975   1.425831
   1.464506   1.467268   1.574866   1.765217   1.916318   1.927522   1.998397   2.060389   2.141125   2.271614   2.297652   2.361967   2.392396   2.436663
   2.559206   2.690541]
nelec by numeric integration = 25.999994779404894
    CPU time for vxc      0.74 sec, wall time      0.19 sec
E1 = -323.29485710098174  Ecoul = 140.20667814466998  Exc = -19.27517358260338
cycle= 7 E= -119.042607697671  delta_E= -1.11e-08  |g|= 1.07e-05  |ddm|= 0.000283
    CPU time for cycle= 7      0.78 sec, wall time      0.19 sec
diis-norm(errvec)=2.26851e-05
diis-c [-0.       -0.000038 -0.000015 -0.000202  0.001389  0.001637  0.044967  0.952261]
  HOMO = -0.320160698571736  LUMO = 0.102193244954264
  mo_energy =
[-10.159228 -10.148623 -10.148591  -0.774243  -0.674994  -0.581316  -0.457254  -0.430281  -0.391865  -0.379421  -0.33084   -0.330282  -0.320161   0.102193
   0.159728   0.161188   0.161964   0.181558   0.200897   0.21044    0.213353   0.229054   0.262247   0.519147   0.52298    0.553551   0.554203   0.575369
   0.668223   0.706795   0.739794   0.782876   0.897261   0.913976   0.916076   0.943727   0.944411   0.981912   1.004705   1.01805    1.063975   1.42583
   1.464505   1.467267   1.574866   1.765216   1.916317   1.927522   1.998397   2.060389   2.141125   2.271612   2.297652   2.361968   2.392395   2.436662
   2.559206   2.690541]
nelec by numeric integration = 25.999994779404286
    CPU time for vxc      0.75 sec, wall time      0.19 sec
E1 = -323.29483756307485  Ecoul = 140.20665764721005  Exc = -19.275172623082767
cycle= 8 E= -119.042607697703  delta_E= -3.24e-11  |g|= 9.08e-07  |ddm|= 1.31e-05
    CPU time for cycle= 8      0.79 sec, wall time      0.20 sec
  HOMO = -0.320160473676095  LUMO = 0.102193367944427
  mo_energy =
[-10.159227 -10.148623 -10.148591  -0.774243  -0.674993  -0.581316  -0.457254  -0.430281  -0.391865  -0.379421  -0.33084   -0.330282  -0.32016    0.102193
   0.159728   0.161189   0.161964   0.181558   0.200897   0.21044    0.213353   0.229054   0.262247   0.519147   0.52298    0.553551   0.554203   0.57537
   0.668223   0.706795   0.739794   0.782876   0.897261   0.913976   0.916076   0.943727   0.944411   0.981912   1.004706   1.018051   1.063975   1.42583
   1.464506   1.467268   1.574866   1.765217   1.916317   1.927522   1.998397   2.060389   2.141125   2.271613   2.297652   2.361968   2.392395   2.436662
   2.559206   2.690541]
nelec by numeric integration = 25.999994779407114
    CPU time for vxc      0.76 sec, wall time      0.19 sec
E1 = -323.29483301806323  Ecoul = 140.20665273640515  Exc = -19.275172257289302
Extra cycle  E= -119.042607697703  delta_E= 1.99e-13  |g|= 7.48e-07  |ddm|= 1.49e-06
    CPU time for scf_cycle      8.61 sec, wall time      2.17 sec
    CPU time for SCF      8.61 sec, wall time      2.17 sec
converged SCF energy = -119.042607697703
atom C rad-grids = 75, ang-grids = [ 50  50  50  50  50  50  50  50  50  50  50  50  50  50  50  50  50  50  50  50  50  50  50  86  86  86  86  86  86  86  86  86  86 266 266 266 266 266 266
 266 302 302 302 302 302 302 302 302 302 302 302 302 302 302 302 302 302 302 302 302 266 266 266 266 266 266 266 266 266 266 266 266 266 266 266]
atom H rad-grids = 50, ang-grids = [ 50  50  50  50  50  50  50  50  50  50  50  50  50  50  86  86  86  86 266 266 266 266 302 302 302 302 302 302 302 302 302 302 302 302 302 266 266 266 266
 266 266 266 266 266 266 266 266 266 266 266]
tot grids = 121898
