#INFO: **** input file is /share/home/srwang/dftpart/test/more/eda.py ****
from dftpart.eda import mayer
from pyscf import lib

with lib.with_omp_threads(4):
    #for mol in ['c2h6', 'c2h4', 'c2h5oh']:
    for mol in [ 'c2h4']:
        test1 = mayer.MayerEDA()
        test1.gjf = mol+'.gjf' # provide geom, charge, multiplicity
        test1.method = ['b3lyp','6-31gs'] 
        test1.output = mol
        test1.verbose = 9
        #test1.build()
        #test1.showinter=True
        #test1.lso = 'c8b/c8b.lso'
        totE, conv, RR2 = test1.kernel()
            

#INFO: ******************** input file end ********************


System: uname_result(system='Linux', node='xn01', release='3.10.0-1127.el7.x86_64', version='#1 SMP Tue Feb 18 16:39:12 EST 2020', machine='x86_64', processor='x86_64')  Threads 4
Python 3.7.4 (default, Aug 13 2019, 20:35:49) 
[GCC 7.3.0]
numpy 1.17.2  scipy 1.4.1
Date: Thu Jul 15 20:53:49 2021
PySCF version 1.7.6a1
PySCF path  /share/home/srwang/pyscf/pyscf
GIT ORIG_HEAD 80f71dfe77ac5f9caae26788acf76446987635bd
GIT HEAD      ref: refs/heads/master
GIT master branch  80f71dfe77ac5f9caae26788acf76446987635bd

[ENV] PYSCF_EXT_PATH /share/home/srwang/pyscf_ext/fciqmc:
[CONFIG] DEBUG = False
[CONFIG] MAX_MEMORY = 4000
[CONFIG] TMPDIR = .
[CONFIG] UNIT = angstrom
[CONFIG] VERBOSE = 3
[CONFIG] conf_file = /share/home/srwang/.pyscf_conf.py
[CONFIG] mcscf_analyze_with_meta_lowdin = False
[INPUT] verbose = 9
[INPUT] max_memory = 4000 
[INPUT] num. atoms = 6
[INPUT] num. electrons = 16
[INPUT] charge = 0
[INPUT] spin (= nelec alpha-beta = 2S) = 0
[INPUT] symmetry False subgroup None
[INPUT] Mole.unit = angstrom
[INPUT]  1 C     -1.471215240000  -2.206822990000   0.000000000000 AA   -2.780193873886  -4.170291056494   0.000000000000 Bohr
[INPUT]  2 H     -0.938051500000  -3.134527910000   0.000000000000 AA   -1.772660425737  -5.923399279705   0.000000000000 Bohr
[INPUT]  3 H     -2.541215240000  -2.206822990000   0.000000000000 AA   -4.802200827171  -4.170291056494   0.000000000000 Bohr
[INPUT]  4 C     -0.795940930000  -1.031845700000   0.000000000000 AA   -1.504110369032  -1.949905775810   0.000000000000 Bohr
[INPUT]  5 H     -1.329104680000  -0.104140780000   0.000000000000 AA   -2.511643836078  -0.196797552599   0.000000000000 Bohr
[INPUT]  6 H      0.274059070000  -1.031845700000   0.000000000000 AA    0.517896584253  -1.949905775810   0.000000000000 Bohr
[INPUT] ---------------- BASIS SET ---------------- 
[INPUT] l, kappa, [nprim/nctr], expnt,             c_1 c_2 ...
[INPUT] H
[INPUT] 0    0    [3    /1   ]  18.731137         0.0334946
                                2.8253937         0.23472695
                                0.6401217         0.81375733
[INPUT] 0    0    [1    /1   ]  0.1612778            1
[INPUT] C
[INPUT] 0    0    [6    /1   ]  3047.5249         0.0018347
                                457.36951         0.0140373
                                103.94869         0.0688426
                                29.210155         0.2321844
                                9.286663          0.4679413
                                3.163927          0.362312
[INPUT] 0    0    [3    /1   ]  7.8682724         -0.1193324
                                1.8812885         -0.1608542
                                0.5442493         1.1434564
[INPUT] 0    0    [1    /1   ]  0.1687144            1
[INPUT] 1    0    [3    /1   ]  7.8682724         0.0689991
                                1.8812885         0.316424
                                0.5442493         0.7443083
[INPUT] 1    0    [1    /1   ]  0.1687144            1
[INPUT] 2    0    [1    /1   ]  0.8                  1

nuclear repulsion = 33.3121056578101
number of shells = 20
number of NR pGTOs = 70
number of NR cGTOs = 36
basis = 6-31gs
ecp = {}
bas 0, expnt(s) = [3047.5249    457.36951   103.94869    29.210155    9.286663    3.163927]
bas 1, expnt(s) = [7.868272 1.881288 0.544249]
bas 2, expnt(s) = [0.168714]
bas 3, expnt(s) = [7.868272 1.881288 0.544249]
bas 4, expnt(s) = [0.168714]
bas 5, expnt(s) = [0.8]
bas 6, expnt(s) = [18.731137  2.825394  0.640122]
bas 7, expnt(s) = [0.161278]
bas 8, expnt(s) = [18.731137  2.825394  0.640122]
bas 9, expnt(s) = [0.161278]
bas 10, expnt(s) = [3047.5249    457.36951   103.94869    29.210155    9.286663    3.163927]
bas 11, expnt(s) = [7.868272 1.881288 0.544249]
bas 12, expnt(s) = [0.168714]
bas 13, expnt(s) = [7.868272 1.881288 0.544249]
bas 14, expnt(s) = [0.168714]
bas 15, expnt(s) = [0.8]
bas 16, expnt(s) = [18.731137  2.825394  0.640122]
bas 17, expnt(s) = [0.161278]
bas 18, expnt(s) = [18.731137  2.825394  0.640122]
bas 19, expnt(s) = [0.161278]
CPU time:         0.48
arg.atm = [[ 6 20  1 23  0  0]
 [ 1 24  1 27  0  0]
 [ 1 28  1 31  0  0]
 [ 6 32  1 35  0  0]
 [ 1 36  1 39  0  0]
 [ 1 40  1 43  0  0]]
arg.bas = [[ 0  0  6  1  0 52 58  0]
 [ 0  0  3  1  0 64 67  0]
 [ 0  0  1  1  0 70 71  0]
 [ 0  1  3  1  0 72 75  0]
 [ 0  1  1  1  0 78 79  0]
 [ 0  2  1  1  0 80 81  0]
 [ 1  0  3  1  0 44 47  0]
 [ 1  0  1  1  0 50 51  0]
 [ 2  0  3  1  0 44 47  0]
 [ 2  0  1  1  0 50 51  0]
 [ 3  0  6  1  0 52 58  0]
 [ 3  0  3  1  0 64 67  0]
 [ 3  0  1  1  0 70 71  0]
 [ 3  1  3  1  0 72 75  0]
 [ 3  1  1  1  0 78 79  0]
 [ 3  2  1  1  0 80 81  0]
 [ 4  0  3  1  0 44 47  0]
 [ 4  0  1  1  0 50 51  0]
 [ 5  0  3  1  0 44 47  0]
 [ 5  0  1  1  0 50 51  0]]
arg.env = [   0.          0.          0.          0.          0.          0.          0.          0.          0.          0.          0.          0.          0.
    0.          0.          0.          0.          0.          0.          0.         -2.780194   -4.170291    0.          0.         -1.77266    -5.923399
    0.          0.         -4.802201   -4.170291    0.          0.         -1.50411    -1.949906    0.          0.         -2.511644   -0.196798    0.
    0.          0.517897   -1.949906    0.          0.         18.731137    2.825394    0.640122    0.761926    1.292371    1.471319    0.161278    0.642978
 3047.5249    457.36951   103.94869    29.210155    9.286663    3.163927    1.901256    3.507511    5.662218    7.370526    6.289284    2.171539    7.868272
    1.881288    0.544249   -1.41639    -0.652813    1.830556    0.168714    0.665088    7.868272    1.881288    0.544249    2.652632    2.033869    1.015043
    0.168714    0.315446    0.8         1.765781]
ecpbas  = []


******** <class 'pyscf.dft.rks.RKS'> ********
method = RKS-RHF
initial guess = minao
damping factor = 0
level_shift factor = 0
DIIS = <class 'pyscf.scf.diis.CDIIS'>
diis_start_cycle = 1
diis_space = 8
SCF conv_tol = 1e-09
SCF conv_tol_grad = None
SCF max_cycles = 50
direct_scf = True
direct_scf_tol = 1e-13
chkfile to save SCF result = /share/home/srwang/dftpart/test/more/tmp56mh4jew
max_memory 4000 MB (current use 75 MB)
XC functionals = b3lyp
small_rho_cutoff = 1e-07
radial grids: 
    Treutler-Ahlrichs [JCP 102, 346 (1995); DOI:10.1063/1.469408] (M4) radial grids
    
becke partition: Becke, JCP 88, 2547 (1988); DOI:10.1063/1.454033
pruning grids: <function nwchem_prune at 0x2b7aa931b7a0>
grids dens level: 3
symmetrized grids: False
atomic radii adjust function: <function treutler_atomic_radii_adjust at 0x2b7aa931bc20>
atomic_radii : [3.77945  0.661404 2.645617 2.740103 1.984212 1.606267 1.322808 1.228322 1.133836 0.944863 2.834589 3.401507 2.834589 2.362158 2.078699 1.889726 1.889726
 1.889726 3.401507 4.157397 3.401507 3.023562 2.645617 2.55113  2.645617 2.645617 2.645617 2.55113  2.55113  2.55113  2.55113  2.456644 2.362158 2.173185
 2.173185 2.173185 3.59048  4.440856 3.779452 3.401507 2.929075 2.740103 2.740103 2.55113  2.456644 2.55113  2.645617 3.023562 2.929075 2.929075 2.740103
 2.740103 2.645617 2.645617 3.968425 4.913288 4.062911 3.684966 3.495993 3.495993 3.495993 3.495993 3.495993 3.495993 3.401507 3.307021 3.307021 3.307021
 3.307021 3.307021 3.307021 3.307021 2.929075 2.740103 2.55113  2.55113  2.456644 2.55113  2.55113  2.55113  2.834589 3.59048  3.401507 3.023562 3.59048
 2.740103 3.968425 3.401507 4.062911 3.684966 3.401507 3.401507 3.307021 3.307021 3.307021 3.307021 3.307021 3.307021 3.307021 3.307021 3.307021 3.307021
 3.307021 3.307021 3.307021 3.307021 3.307021 3.307021 3.307021 3.307021 3.307021 3.307021 3.307021 3.307021 3.307021 3.307021 3.307021 3.307021 3.307021
 3.307021 3.307021 3.307021 3.307021 3.307021 3.307021 3.307021 3.307021 3.307021 3.307021 3.307021 3.307021]
Set gradient conv threshold to 3.16228e-05
Nelec from initial guess = 15.990762435772062
atom C rad-grids = 75, ang-grids = [ 50  50  50  50  50  50  50  50  50  50  50  50  50  50  50  50  50  50  50  50  50  50  50  86  86  86  86  86  86  86  86  86  86 266 266 266 266 266 266
 266 302 302 302 302 302 302 302 302 302 302 302 302 302 302 302 302 302 302 302 302 266 266 266 266 266 266 266 266 266 266 266 266 266 266 266]
atom H rad-grids = 50, ang-grids = [ 50  50  50  50  50  50  50  50  50  50  50  50  50  50  86  86  86  86 266 266 266 266 302 302 302 302 302 302 302 302 302 302 302 302 302 266 266 266 266
 266 266 266 266 266 266 266 266 266 266 266]
tot grids = 67900
Drop grids 10510
    CPU time for setting up grids      0.13 sec, wall time      0.03 sec
nelec by numeric integration = 15.99076367320359
    CPU time for vxc      0.33 sec, wall time      0.08 sec
E1 = -168.7743716290779  Ecoul = 69.10911928560509  Exc = -12.149632417925183
init E= -78.5027791035879
cond(S) = 513.3498142157978
    CPU time for initialize scf      0.59 sec, wall time      0.16 sec
  HOMO = -0.31465218855512  LUMO = -0.0760501370119287
  mo_energy =
[-10.291466 -10.290255  -0.912537  -0.664347  -0.529298  -0.467188  -0.399171  -0.314652  -0.07605    0.078738   0.098263   0.11946    0.206534   0.262798
   0.427648   0.488399   0.515626   0.569725   0.600071   0.601595   0.794005   0.80443    0.866958   0.88443    1.036483   1.194367   1.356613   1.453803
   1.723735   1.823527   1.898879   1.978958   2.224628   2.26269    2.55824    2.570916]
nelec by numeric integration = 15.999998055241212
    CPU time for vxc      0.31 sec, wall time      0.08 sec
E1 = -171.4172658836004  Ecoul = 71.99152771898359  Exc = -12.387776990574348
cycle= 1 E= -78.5014094973811  delta_E= 0.00137  |g|= 0.292  |ddm|=    2
    CPU time for cycle= 1      0.34 sec, wall time      0.08 sec
diis-norm(errvec)=0.555799
diis-c [-0.308913  1.      ]
  HOMO = -0.19555477436292  LUMO = 0.0707753363912495
  mo_energy =
[-10.026766 -10.026104  -0.677437  -0.53206   -0.420799  -0.335025  -0.320891  -0.195555   0.070775   0.145728   0.180974   0.187815   0.268892   0.351976
   0.526926   0.610443   0.611216   0.695293   0.695391   0.750865   0.918843   0.943711   0.981249   0.996143   1.157923   1.276368   1.536944   1.62311
   1.891486   1.986678   2.06496    2.162236   2.384823   2.439326   2.729464   2.767944]
nelec by numeric integration = 15.999997317884178
    CPU time for vxc      0.30 sec, wall time      0.08 sec
E1 = -169.02966075401616  Ecoul = 69.35982057471091  Exc = -12.144156411656217
cycle= 2 E= -78.5018909331514  delta_E= -0.000481  |g|= 0.293  |ddm|= 0.57
    CPU time for cycle= 2      0.33 sec, wall time      0.08 sec
diis-norm(errvec)=0.542278
diis-c [-0.003016  0.493781  0.506219]
  HOMO = -0.259598728390602  LUMO = 0.0166203607726888
  mo_energy =
[-10.174135 -10.173494  -0.749939  -0.577667  -0.468747  -0.404602  -0.359953  -0.259599   0.01662    0.12503    0.152755   0.167608   0.247281   0.323113
   0.486614   0.555155   0.574855   0.638796   0.659335   0.690944   0.869038   0.88574    0.939242   0.955761   1.106846   1.251445   1.459576   1.551723
   1.82174    1.919409   1.999247   2.086608   2.320486   2.365452   2.662239   2.684289]
nelec by numeric integration = 15.999997646407516
    CPU time for vxc      0.30 sec, wall time      0.08 sec
E1 = -170.26097356826125  Ecoul = 70.68909267191297  Exc = -12.265973758780675
cycle= 3 E= -78.5257489973189  delta_E= -0.0239  |g|= 0.00535  |ddm|= 0.286
    CPU time for cycle= 3      0.33 sec, wall time      0.08 sec
diis-norm(errvec)=0.0099825
diis-c [-0.000006 -0.027164 -0.00968   1.036844]
  HOMO = -0.258601728608083  LUMO = 0.0176694088422127
  mo_energy =
[-10.171662 -10.171019  -0.7487    -0.576794  -0.468188  -0.403735  -0.359543  -0.258602   0.017669   0.125356   0.153196   0.167991   0.247514   0.32374
   0.487283   0.556196   0.575388   0.639805   0.659908   0.691993   0.869821   0.886581   0.940045   0.956584   1.107667   1.251853   1.460927   1.55276
   1.822758   1.92051    2.000335   2.087924   2.321462   2.366814   2.663441   2.685821]
nelec by numeric integration = 15.999997633877603
    CPU time for vxc      0.30 sec, wall time      0.08 sec
E1 = -170.2382220735809  Ecoul = 70.66389920385664  Exc = -12.263540533396935
cycle= 4 E= -78.5257577453112  delta_E= -8.75e-06  |g|= 0.000432  |ddm|= 0.00612
    CPU time for cycle= 4      0.33 sec, wall time      0.08 sec
diis-norm(errvec)=0.000809355
diis-c [-0.       -0.007508 -0.004124  0.221079  0.790554]
  HOMO = -0.258671659354997  LUMO = 0.0175722279603315
  mo_energy =
[-10.171894 -10.17125   -0.748759  -0.57691   -0.468257  -0.403829  -0.359625  -0.258672   0.017572   0.125313   0.153165   0.167946   0.247475   0.323669
   0.487216   0.556128   0.575348   0.639719   0.659853   0.691897   0.869769   0.886502   0.939947   0.956491   1.107607   1.251811   1.46082    1.552675
   1.822662   1.920431   2.000248   2.087828   2.321383   2.366693   2.66333    2.685701]
nelec by numeric integration = 15.99999763411404
    CPU time for vxc      0.30 sec, wall time      0.08 sec
E1 = -170.2396453893548  Ecoul = 70.66549550195086  Exc = -12.263713564491216
cycle= 5 E= -78.5257577940851  delta_E= -4.88e-08  |g|= 5.04e-05  |ddm|= 0.000449
    CPU time for cycle= 5      0.33 sec, wall time      0.08 sec
diis-norm(errvec)=8.43438e-05
diis-c [-0.        0.000028  0.000079 -0.004184  0.031451  0.972626]
  HOMO = -0.25866076159272  LUMO = 0.0175820134337641
  mo_energy =
[-10.171866 -10.171223  -0.748747  -0.576898  -0.468246  -0.403818  -0.359615  -0.258661   0.017582   0.125318   0.15317    0.167951   0.24748    0.323674
   0.487221   0.556136   0.575353   0.639728   0.659857   0.691906   0.869778   0.886513   0.939957   0.9565     1.107614   1.251816   1.460831   1.552686
   1.822673   1.920442   2.000259   2.08784    2.321394   2.366703   2.663342   2.685713]
nelec by numeric integration = 15.99999763398939
    CPU time for vxc      0.30 sec, wall time      0.08 sec
E1 = -170.23944608373324  Ecoul = 70.66527337656498  Exc = -12.263690745459664
cycle= 6 E= -78.5257577948179  delta_E= -7.33e-10  |g|= 1.06e-06  |ddm|= 4.45e-05
    CPU time for cycle= 6      0.33 sec, wall time      0.08 sec
  HOMO = -0.258660654731667  LUMO = 0.0175820611909959
  mo_energy =
[-10.171867 -10.171224  -0.748747  -0.576898  -0.468247  -0.403819  -0.359615  -0.258661   0.017582   0.125318   0.15317    0.167951   0.24748    0.323674
   0.487221   0.556136   0.575353   0.639728   0.659857   0.691906   0.869777   0.886513   0.939956   0.9565     1.107614   1.251816   1.46083    1.552686
   1.822673   1.920441   2.000259   2.08784    2.321394   2.366703   2.663342   2.685713]
nelec by numeric integration = 15.999997633984773
    CPU time for vxc      0.30 sec, wall time      0.08 sec
E1 = -170.2394503754504  Ecoul = 70.6652781639414  Exc = -12.263691241119554
Extra cycle  E= -78.5257577948185  delta_E= -6.25e-13  |g|= 5.07e-07  |ddm|= 2.46e-06
    CPU time for scf_cycle      2.89 sec, wall time      0.73 sec
    CPU time for SCF      2.89 sec, wall time      0.74 sec
converged SCF energy = -78.5257577948185
atom C rad-grids = 75, ang-grids = [ 50  50  50  50  50  50  50  50  50  50  50  50  50  50  50  50  50  50  50  50  50  50  50  86  86  86  86  86  86  86  86  86  86 266 266 266 266 266 266
 266 302 302 302 302 302 302 302 302 302 302 302 302 302 302 302 302 302 302 302 302 266 266 266 266 266 266 266 266 266 266 266 266 266 266 266]
atom H rad-grids = 50, ang-grids = [ 50  50  50  50  50  50  50  50  50  50  50  50  50  50  86  86  86  86 266 266 266 266 302 302 302 302 302 302 302 302 302 302 302 302 302 266 266 266 266
 266 266 266 266 266 266 266 266 266 266 266]
tot grids = 67900
arg.atm = [[ 6 20  1 23  0  0]
 [ 1 24  1 27  0  0]
 [ 1 28  1 31  0  0]
 [ 6 32  1 35  0  0]
 [ 1 36  1 39  0  0]
 [ 1 40  1 43  0  0]]
arg.bas = [[  0   0   1   1   0  62  63   0]
 [  0   0   1   1   0  64  65   0]
 [  0   0   1   1   0  66  67   0]
 [  0   0   1   1   0  68  69   0]
 [  0   0   1   1   0  70  71   0]
 [  0   0   1   1   0  72  73   0]
 [  0   0   1   1   0  74  75   0]
 [  0   0   1   1   0  76  77   0]
 [  0   0   1   1   0  78  79   0]
 [  0   0   1   1   0  80  81   0]
 [  0   1   1   1   0  82  83   0]
 [  0   1   1   1   0  84  85   0]
 [  0   1   1   1   0  86  87   0]
 [  0   1   1   1   0  88  89   0]
 [  0   1   1   1   0  90  91   0]
 [  0   1   1   1   0  92  93   0]
 [  0   1   1   1   0  94  95   0]
 [  0   2   1   1   0  96  97   0]
 [  0   2   1   1   0  98  99   0]
 [  0   2   1   1   0 100 101   0]
 [  0   2   1   1   0 102 103   0]
 [  0   2   1   1   0 104 105   0]
 [  0   3   1   1   0 106 107   0]
 [  0   3   1   1   0 108 109   0]
 [  1   0   1   1   0  44  45   0]
 [  1   0   1   1   0  46  47   0]
 [  1   0   1   1   0  48  49   0]
 [  1   0   1   1   0  50  51   0]
 [  1   1   1   1   0  52  53   0]
 [  1   1   1   1   0  54  55   0]
 [  1   1   1   1   0  56  57   0]
 [  1   2   1   1   0  58  59   0]
 [  1   2   1   1   0  60  61   0]
 [  2   0   1   1   0  44  45   0]
 [  2   0   1   1   0  46  47   0]
 [  2   0   1   1   0  48  49   0]
 [  2   0   1   1   0  50  51   0]
 [  2   1   1   1   0  52  53   0]
 [  2   1   1   1   0  54  55   0]
 [  2   1   1   1   0  56  57   0]
 [  2   2   1   1   0  58  59   0]
 [  2   2   1   1   0  60  61   0]
 [  3   0   1   1   0  62  63   0]
 [  3   0   1   1   0  64  65   0]
 [  3   0   1   1   0  66  67   0]
 [  3   0   1   1   0  68  69   0]
 [  3   0   1   1   0  70  71   0]
 [  3   0   1   1   0  72  73   0]
 [  3   0   1   1   0  74  75   0]
 [  3   0   1   1   0  76  77   0]
 [  3   0   1   1   0  78  79   0]
 [  3   0   1   1   0  80  81   0]
 [  3   1   1   1   0  82  83   0]
 [  3   1   1   1   0  84  85   0]
 [  3   1   1   1   0  86  87   0]
 [  3   1   1   1   0  88  89   0]
 [  3   1   1   1   0  90  91   0]
 [  3   1   1   1   0  92  93   0]
 [  3   1   1   1   0  94  95   0]
 [  3   2   1   1   0  96  97   0]
 [  3   2   1   1   0  98  99   0]
 [  3   2   1   1   0 100 101   0]
 [  3   2   1   1   0 102 103   0]
 [  3   2   1   1   0 104 105   0]
 [  3   3   1   1   0 106 107   0]
 [  3   3   1   1   0 108 109   0]
 [  4   0   1   1   0  44  45   0]
 [  4   0   1   1   0  46  47   0]
 [  4   0   1   1   0  48  49   0]
 [  4   0   1   1   0  50  51   0]
 [  4   1   1   1   0  52  53   0]
 [  4   1   1   1   0  54  55   0]
 [  4   1   1   1   0  56  57   0]
 [  4   2   1   1   0  58  59   0]
 [  4   2   1   1   0  60  61   0]
 [  5   0   1   1   0  44  45   0]
 [  5   0   1   1   0  46  47   0]
 [  5   0   1   1   0  48  49   0]
 [  5   0   1   1   0  50  51   0]
 [  5   1   1   1   0  52  53   0]
 [  5   1   1   1   0  54  55   0]
 [  5   1   1   1   0  56  57   0]
 [  5   2   1   1   0  58  59   0]
 [  5   2   1   1   0  60  61   0]]
arg.env = [   0.          0.          0.          0.          0.          0.          0.          0.          0.          0.          0.          0.          0.
    0.          0.          0.          0.          0.          0.          0.         -2.780194   -4.170291    0.          0.         -1.77266    -5.923399
    0.          0.         -4.802201   -4.170291    0.          0.         -1.50411    -1.949906    0.          0.         -2.511644   -0.196798    0.
    0.          0.517897   -1.949906    0.          0.          9.530249   13.70387     1.917451    4.116785    0.68424     1.900735    0.284133    0.983231
    2.913323   11.103764    1.262121    3.902657    0.501998    1.232712    2.313533   11.324312    0.712907    1.443235 1113.986772  487.163845  369.162342
  212.778659  121.792752   92.625616   48.127115   46.164421   20.365074   24.2203      8.08836    12.117426    2.506866    5.033422    1.243854    2.97572
    0.484499    1.467184    0.191852    0.732384  102.991762  957.166533   28.132594  189.01515     9.836432   50.819616    3.349054   13.21713     1.494762
    4.821691    0.576901    1.466767    0.203201    0.398007   10.594068  162.326429    3.59972    24.547064    1.335569    4.329578    0.519498    0.82947
    0.199541    0.155449    1.194866    2.944278    0.415866    0.273941]
ecpbas  = []
