#INFO: **** input file is /share/home/srwang/dftpart/test/more/eda.py ****
from dftpart.eda import mayer
from pyscf import lib

with lib.with_omp_threads(4):
    for mol in ['c2h6', 'c2h4', 'c2h5oh']:
        test1 = mayer.MayerEDA()
        test1.gjf = mol+'.gjf' # provide geom, charge, multiplicity
        test1.method = ['b3lyp','6-31gs'] 
        test1.output = mol
        test1.verbose = 9
        #test1.build()
        #test1.showinter=True
        #test1.lso = 'c8b/c8b.lso'
        totE, conv, RR2 = test1.kernel()
            

#INFO: ******************** input file end ********************


System: uname_result(system='Linux', node='xn01', release='3.10.0-1127.el7.x86_64', version='#1 SMP Tue Feb 18 16:39:12 EST 2020', machine='x86_64', processor='x86_64')  Threads 4
Python 3.7.4 (default, Aug 13 2019, 20:35:49) 
[GCC 7.3.0]
numpy 1.17.2  scipy 1.4.1
Date: Thu Jul 15 20:29:15 2021
PySCF version 1.7.6a1
PySCF path  /share/home/srwang/pyscf/pyscf
GIT ORIG_HEAD 80f71dfe77ac5f9caae26788acf76446987635bd
GIT HEAD      ref: refs/heads/master
GIT master branch  80f71dfe77ac5f9caae26788acf76446987635bd

[ENV] PYSCF_EXT_PATH /share/home/srwang/pyscf_ext/fciqmc:
[CONFIG] DEBUG = False
[CONFIG] MAX_MEMORY = 4000
[CONFIG] TMPDIR = .
[CONFIG] UNIT = angstrom
[CONFIG] VERBOSE = 3
[CONFIG] conf_file = /share/home/srwang/.pyscf_conf.py
[CONFIG] mcscf_analyze_with_meta_lowdin = False
[INPUT] verbose = 9
[INPUT] max_memory = 4000 
[INPUT] num. atoms = 9
[INPUT] num. electrons = 26
[INPUT] charge = 0
[INPUT] spin (= nelec alpha-beta = 2S) = 0
[INPUT] symmetry False subgroup None
[INPUT] Mole.unit = angstrom
[INPUT]  1 C     -3.304903810000  -1.503198270000   0.000000000000 AA   -6.245363068932  -2.840633041220   0.000000000000 Bohr
[INPUT]  2 H     -2.948249380000  -2.512008270000   0.000000000000 AA   -5.571383875119  -4.747007652942   0.000000000000 Bohr
[INPUT]  3 H     -2.948230970000  -0.998800080000  -0.873651500000 AA   -5.571349085261  -1.887458604394  -1.650962063315 Bohr
[INPUT]  4 H     -4.374903810000  -1.503185090000   0.000000000000 AA   -8.267370022216  -2.840608134630   0.000000000000 Bohr
[INPUT]  5 C     -2.791561590000  -0.777242000000   1.257404970000 AA   -5.275286864955  -1.468774512509   2.376151020967 Bohr
[INPUT]  6 H     -1.721561610000  -0.777424570000   1.257502430000 AA   -3.253279949465  -1.469119519808   2.376335193675 Bohr
[INPUT]  7 H     -3.148056640000   0.231624330000   1.257307390000 AA   -5.948964874219   0.437706547486   2.375966621492 Bohr
[INPUT]  8 O     -3.268449560000  -1.451194060000   2.424995000000 AA   -6.176474520355  -2.742359326996   4.582576403440 Bohr
[INPUT]  9 H     -2.947245300000  -0.999981670000   3.209109280000 AA   -5.569486438912  -1.889691485885   6.064337643000 Bohr
[INPUT] ---------------- BASIS SET ---------------- 
[INPUT] l, kappa, [nprim/nctr], expnt,             c_1 c_2 ...
[INPUT] O
[INPUT] 0    0    [6    /1   ]  5484.6717         0.0018311
                                825.23495         0.0139501
                                188.04696         0.0684451
                                52.9645           0.2327143
                                16.89757          0.470193
                                5.7996353         0.3585209
[INPUT] 0    0    [3    /1   ]  15.539616         -0.1107775
                                3.5999336         -0.1480263
                                1.0137618         1.130767
[INPUT] 0    0    [1    /1   ]  0.2700058            1
[INPUT] 1    0    [3    /1   ]  15.539616         0.0708743
                                3.5999336         0.3397528
                                1.0137618         0.7271586
[INPUT] 1    0    [1    /1   ]  0.2700058            1
[INPUT] 2    0    [1    /1   ]  0.8                  1
[INPUT] H
[INPUT] 0    0    [3    /1   ]  18.731137         0.0334946
                                2.8253937         0.23472695
                                0.6401217         0.81375733
[INPUT] 0    0    [1    /1   ]  0.1612778            1
[INPUT] C
[INPUT] 0    0    [6    /1   ]  3047.5249         0.0018347
                                457.36951         0.0140373
                                103.94869         0.0688426
                                29.210155         0.2321844
                                9.286663          0.4679413
                                3.163927          0.362312
[INPUT] 0    0    [3    /1   ]  7.8682724         -0.1193324
                                1.8812885         -0.1608542
                                0.5442493         1.1434564
[INPUT] 0    0    [1    /1   ]  0.1687144            1
[INPUT] 1    0    [3    /1   ]  7.8682724         0.0689991
                                1.8812885         0.316424
                                0.5442493         0.7443083
[INPUT] 1    0    [1    /1   ]  0.1687144            1
[INPUT] 2    0    [1    /1   ]  0.8                  1

nuclear repulsion = 81.6946222477973
number of shells = 30
number of NR pGTOs = 105
number of NR cGTOs = 54
basis = 6-31gs
ecp = {}
bas 0, expnt(s) = [3047.5249    457.36951   103.94869    29.210155    9.286663    3.163927]
bas 1, expnt(s) = [7.868272 1.881288 0.544249]
bas 2, expnt(s) = [0.168714]
bas 3, expnt(s) = [7.868272 1.881288 0.544249]
bas 4, expnt(s) = [0.168714]
bas 5, expnt(s) = [0.8]
bas 6, expnt(s) = [18.731137  2.825394  0.640122]
bas 7, expnt(s) = [0.161278]
bas 8, expnt(s) = [18.731137  2.825394  0.640122]
bas 9, expnt(s) = [0.161278]
bas 10, expnt(s) = [18.731137  2.825394  0.640122]
bas 11, expnt(s) = [0.161278]
bas 12, expnt(s) = [3047.5249    457.36951   103.94869    29.210155    9.286663    3.163927]
bas 13, expnt(s) = [7.868272 1.881288 0.544249]
bas 14, expnt(s) = [0.168714]
bas 15, expnt(s) = [7.868272 1.881288 0.544249]
bas 16, expnt(s) = [0.168714]
bas 17, expnt(s) = [0.8]
bas 18, expnt(s) = [18.731137  2.825394  0.640122]
bas 19, expnt(s) = [0.161278]
bas 20, expnt(s) = [18.731137  2.825394  0.640122]
bas 21, expnt(s) = [0.161278]
bas 22, expnt(s) = [5484.6717    825.23495   188.04696    52.9645     16.89757     5.799635]
bas 23, expnt(s) = [15.539616  3.599934  1.013762]
bas 24, expnt(s) = [0.270006]
bas 25, expnt(s) = [15.539616  3.599934  1.013762]
bas 26, expnt(s) = [0.270006]
bas 27, expnt(s) = [0.8]
bas 28, expnt(s) = [18.731137  2.825394  0.640122]
bas 29, expnt(s) = [0.161278]
CPU time:        44.63
arg.atm = [[ 6 20  1 23  0  0]
 [ 1 24  1 27  0  0]
 [ 1 28  1 31  0  0]
 [ 1 32  1 35  0  0]
 [ 6 36  1 39  0  0]
 [ 1 40  1 43  0  0]
 [ 1 44  1 47  0  0]
 [ 8 48  1 51  0  0]
 [ 1 52  1 55  0  0]]
arg.bas = [[  0   0   6   1   0  94 100   0]
 [  0   0   3   1   0 106 109   0]
 [  0   0   1   1   0 112 113   0]
 [  0   1   3   1   0 114 117   0]
 [  0   1   1   1   0 120 121   0]
 [  0   2   1   1   0 122 123   0]
 [  1   0   3   1   0  86  89   0]
 [  1   0   1   1   0  92  93   0]
 [  2   0   3   1   0  86  89   0]
 [  2   0   1   1   0  92  93   0]
 [  3   0   3   1   0  86  89   0]
 [  3   0   1   1   0  92  93   0]
 [  4   0   6   1   0  94 100   0]
 [  4   0   3   1   0 106 109   0]
 [  4   0   1   1   0 112 113   0]
 [  4   1   3   1   0 114 117   0]
 [  4   1   1   1   0 120 121   0]
 [  4   2   1   1   0 122 123   0]
 [  5   0   3   1   0  86  89   0]
 [  5   0   1   1   0  92  93   0]
 [  6   0   3   1   0  86  89   0]
 [  6   0   1   1   0  92  93   0]
 [  7   0   6   1   0  56  62   0]
 [  7   0   3   1   0  68  71   0]
 [  7   0   1   1   0  74  75   0]
 [  7   1   3   1   0  76  79   0]
 [  7   1   1   1   0  82  83   0]
 [  7   2   1   1   0  84  85   0]
 [  8   0   3   1   0  86  89   0]
 [  8   0   1   1   0  92  93   0]]
arg.env = [   0.          0.          0.          0.          0.          0.          0.          0.          0.          0.          0.          0.          0.
    0.          0.          0.          0.          0.          0.          0.         -6.245363   -2.840633    0.          0.         -5.571384   -4.747008
    0.          0.         -5.571349   -1.887459   -1.650962    0.         -8.26737    -2.840608    0.          0.         -5.275287   -1.468775    2.376151
    0.         -3.25328    -1.46912     2.376335    0.         -5.948965    0.437707    2.375967    0.         -6.176475   -2.742359    4.582576    0.
   -5.569486   -1.889691    6.064338    0.       5484.6717    825.23495   188.04696    52.9645     16.89757     5.799635    2.948425    5.426571    8.781265
   11.543213    9.90055     3.385166   15.539616    3.599934    1.013762   -2.190518   -0.977406    2.886291    0.270006    0.946335   15.539616    3.599934
    1.013762    6.379307    4.91491     2.157911    0.270006    0.567807    0.8         1.765781   18.731137    2.825394    0.640122    0.761926    1.292371
    1.471319    0.161278    0.642978 3047.5249    457.36951   103.94869    29.210155    9.286663    3.163927    1.901256    3.507511    5.662218    7.370526
    6.289284    2.171539    7.868272    1.881288    0.544249   -1.41639    -0.652813    1.830556    0.168714    0.665088    7.868272    1.881288    0.544249
    2.652632    2.033869    1.015043    0.168714    0.315446    0.8         1.765781]
ecpbas  = []


******** <class 'pyscf.dft.rks.RKS'> ********
method = RKS-RHF
initial guess = minao
damping factor = 0
level_shift factor = 0
DIIS = <class 'pyscf.scf.diis.CDIIS'>
diis_start_cycle = 1
diis_space = 8
SCF conv_tol = 1e-09
SCF conv_tol_grad = None
SCF max_cycles = 50
direct_scf = True
direct_scf_tol = 1e-13
chkfile to save SCF result = /share/home/srwang/dftpart/test/more/tmpacvc7bq_
max_memory 4000 MB (current use 185 MB)
XC functionals = b3lyp
small_rho_cutoff = 1e-07
radial grids: 
    Treutler-Ahlrichs [JCP 102, 346 (1995); DOI:10.1063/1.469408] (M4) radial grids
    
becke partition: Becke, JCP 88, 2547 (1988); DOI:10.1063/1.454033
pruning grids: <function nwchem_prune at 0x2ac1a3eab7a0>
grids dens level: 3
symmetrized grids: False
atomic radii adjust function: <function treutler_atomic_radii_adjust at 0x2ac1a3eabc20>
atomic_radii : [3.77945  0.661404 2.645617 2.740103 1.984212 1.606267 1.322808 1.228322 1.133836 0.944863 2.834589 3.401507 2.834589 2.362158 2.078699 1.889726 1.889726
 1.889726 3.401507 4.157397 3.401507 3.023562 2.645617 2.55113  2.645617 2.645617 2.645617 2.55113  2.55113  2.55113  2.55113  2.456644 2.362158 2.173185
 2.173185 2.173185 3.59048  4.440856 3.779452 3.401507 2.929075 2.740103 2.740103 2.55113  2.456644 2.55113  2.645617 3.023562 2.929075 2.929075 2.740103
 2.740103 2.645617 2.645617 3.968425 4.913288 4.062911 3.684966 3.495993 3.495993 3.495993 3.495993 3.495993 3.495993 3.401507 3.307021 3.307021 3.307021
 3.307021 3.307021 3.307021 3.307021 2.929075 2.740103 2.55113  2.55113  2.456644 2.55113  2.55113  2.55113  2.834589 3.59048  3.401507 3.023562 3.59048
 2.740103 3.968425 3.401507 4.062911 3.684966 3.401507 3.401507 3.307021 3.307021 3.307021 3.307021 3.307021 3.307021 3.307021 3.307021 3.307021 3.307021
 3.307021 3.307021 3.307021 3.307021 3.307021 3.307021 3.307021 3.307021 3.307021 3.307021 3.307021 3.307021 3.307021 3.307021 3.307021 3.307021 3.307021
 3.307021 3.307021 3.307021 3.307021 3.307021 3.307021 3.307021 3.307021 3.307021 3.307021 3.307021 3.307021]
Set gradient conv threshold to 3.16228e-05
Nelec from initial guess = 25.981608134483714
atom C rad-grids = 75, ang-grids = [ 50  50  50  50  50  50  50  50  50  50  50  50  50  50  50  50  50  50  50  50  50  50  50  86  86  86  86  86  86  86  86  86  86 266 266 266 266 266 266
 266 302 302 302 302 302 302 302 302 302 302 302 302 302 302 302 302 302 302 302 302 266 266 266 266 266 266 266 266 266 266 266 266 266 266 266]
atom H rad-grids = 50, ang-grids = [ 50  50  50  50  50  50  50  50  50  50  50  50  50  50  86  86  86  86 266 266 266 266 302 302 302 302 302 302 302 302 302 302 302 302 302 266 266 266 266
 266 266 266 266 266 266 266 266 266 266 266]
atom O rad-grids = 75, ang-grids = [ 50  50  50  50  50  50  50  50  50  50  50  50  50  50  50  50  50  50  50  50  50  50  86  86  86  86  86  86  86  86  86 266 266 266 266 266 266 266 302
 302 302 302 302 302 302 302 302 302 302 302 302 302 302 302 302 302 302 266 266 266 266 266 266 266 266 266 266 266 266 266 266 266 266 266 266]
tot grids = 102210
Drop grids 17422
    CPU time for setting up grids      0.23 sec, wall time      0.06 sec
nelec by numeric integration = 25.98162134034544
    CPU time for vxc      0.56 sec, wall time      0.14 sec
E1 = -368.8228626999922  Ecoul = 153.4904999450522  Exc = -21.38715445282251
init E= -155.024894959965
cond(S) = 675.4532091937085
    CPU time for initialize scf      1.17 sec, wall time      0.29 sec
  HOMO = -0.354554813087355  LUMO = 0.0275981645668539
  mo_energy =
[-19.368327 -10.295749 -10.286643  -1.183135  -0.895476  -0.720571  -0.604536  -0.532773  -0.493433  -0.448074  -0.437351  -0.396463  -0.354555   0.027598
   0.067648   0.112473   0.117162   0.122201   0.132876   0.152241   0.154216   0.472274   0.48745    0.48805    0.500704   0.591739   0.605568   0.73592
   0.80866    0.817616   0.832367   0.837529   0.882363   0.914372   0.942607   0.962649   1.09901    1.320095   1.341058   1.386348   1.62093    1.640399
   1.66271    1.838784   1.841926   1.954719   2.089483   2.131242   2.239783   2.27054    2.302344   2.410901   2.511949   2.723549]
nelec by numeric integration = 26.000007255020897
    CPU time for vxc      0.57 sec, wall time      0.14 sec
E1 = -374.56764867393497  Ecoul = 160.03721038529068  Exc = -22.0029273423972
cycle= 1 E= -154.838743383244  delta_E= 0.186  |g|= 0.679  |ddm|= 2.42
    CPU time for cycle= 1      0.61 sec, wall time      0.15 sec
diis-norm(errvec)=1.13385
diis-c [-1.285622  1.      ]
  HOMO = -0.103667691355187  LUMO = 0.113789488623981
  mo_energy =
[-18.692768 -10.168574  -9.976588  -0.857989  -0.676281  -0.561406  -0.425429  -0.410529  -0.326412  -0.312832  -0.298029  -0.176186  -0.103668   0.113789
   0.15854    0.189474   0.190315   0.218274   0.235389   0.272421   0.292159   0.565914   0.594661   0.620221   0.636421   0.717315   0.730622   0.897555
   0.902759   0.948616   0.973782   0.990681   1.014278   1.10218    1.152443   1.160378   1.281083   1.47995    1.520959   1.574938   1.82941    1.872526
   1.886746   2.012242   2.021718   2.141708   2.2819     2.321904   2.403675   2.457491   2.490036   2.62605    2.694189   2.943452]
nelec by numeric integration = 26.00000960975986
    CPU time for vxc      0.56 sec, wall time      0.14 sec
E1 = -367.6656383343951  Ecoul = 152.46202192178814  Exc = -21.237651201005143
cycle= 2 E= -154.746645365815  delta_E= 0.0921  |g|= 0.976  |ddm|= 1.46
    CPU time for cycle= 2      0.59 sec, wall time      0.15 sec
diis-norm(errvec)=1.61456
diis-c [-0.038199  0.589317  0.410683]
  HOMO = -0.25974996552274  LUMO = 0.0824585098432273
  mo_energy =
[-19.136797 -10.191071 -10.128057  -1.009203  -0.733073  -0.603124  -0.505472  -0.45471   -0.384072  -0.373143  -0.358607  -0.311602  -0.25975    0.082459
   0.130176   0.176907   0.177425   0.189632   0.210584   0.220253   0.241901   0.540648   0.561664   0.570709   0.584672   0.676241   0.687513   0.822672
   0.886611   0.908156   0.928032   0.937688   0.976308   1.020709   1.038931   1.051052   1.189799   1.412825   1.453683   1.497554   1.740496   1.751442
   1.780686   1.955354   1.958499   2.063513   2.208697   2.248235   2.355331   2.38152    2.418406   2.523019   2.631161   2.841805]
nelec by numeric integration = 26.000007443143865
    CPU time for vxc      0.55 sec, wall time      0.14 sec
E1 = -371.59721352232805  Ecoul = 156.63590250703163  Exc = -21.66418400218336
cycle= 3 E= -154.930872769682  delta_E= -0.184  |g|= 0.0732  |ddm|= 0.928
    CPU time for cycle= 3      0.59 sec, wall time      0.15 sec
diis-norm(errvec)=0.130782
diis-c [-0.004607  0.200693  0.157791  0.641516]
  HOMO = -0.255794785835801  LUMO = 0.0841317135344851
  mo_energy =
[-19.11853  -10.218665 -10.167392  -1.001618  -0.746512  -0.612742  -0.506176  -0.464342  -0.393087  -0.383285  -0.3685    -0.315932  -0.255795   0.084132
   0.1259     0.170349   0.172077   0.182824   0.204281   0.217085   0.231503   0.531128   0.55213    0.563199   0.575764   0.663253   0.68039    0.827341
   0.877353   0.900916   0.917174   0.927904   0.968958   1.023393   1.03593    1.047048   1.189698   1.408569   1.44411    1.489716   1.741291   1.75762
   1.77155    1.942613   1.942892   2.05799    2.200267   2.236483   2.340739   2.373077   2.409717   2.522391   2.617283   2.838862]
nelec by numeric integration = 26.00000764000373
    CPU time for vxc      0.55 sec, wall time      0.14 sec
E1 = -371.7744954524892  Ecoul = 156.8218725564909  Exc = -21.673875578948287
cycle= 4 E= -154.931876227149  delta_E= -0.001  |g|= 0.0284  |ddm|= 0.0758
    CPU time for cycle= 4      0.59 sec, wall time      0.15 sec
diis-norm(errvec)=0.0521546
diis-c [-0.000227  0.0294    0.030157  0.305801  0.634642]
  HOMO = -0.255810446611964  LUMO = 0.0849015821255625
  mo_energy =
[-19.121637 -10.211041 -10.153267  -1.000653  -0.741505  -0.6097    -0.504423  -0.461257  -0.389569  -0.37926   -0.365003  -0.31431   -0.25581    0.084902
   0.127482   0.17249    0.173614   0.185377   0.206421   0.219158   0.235236   0.534372   0.555359   0.566158   0.579378   0.667791   0.683031   0.828019
   0.88009    0.9035     0.920892   0.931627   0.971069   1.023765   1.037823   1.048655   1.190982   1.410816   1.448259   1.493049   1.742492   1.758401
   1.776041   1.947515   1.948364   2.060901   2.203848   2.241373   2.345666   2.37742    2.412975   2.524467   2.622295   2.841208]
nelec by numeric integration = 26.00000758542725
    CPU time for vxc      0.55 sec, wall time      0.14 sec
E1 = -371.6799724453599  Ecoul = 156.72092030210436  Exc = -21.667644984852483
cycle= 5 E= -154.932074880311  delta_E= -0.000199  |g|= 0.00271  |ddm|= 0.0249
    CPU time for cycle= 5      0.58 sec, wall time      0.15 sec
diis-norm(errvec)=0.00521473
diis-c [-0.000002 -0.00406  -0.00071   0.035601  0.133811  0.835358]
  HOMO = -0.25581498909663  LUMO = 0.0847995405470675
  mo_energy =
[-19.12115  -10.211073 -10.153823  -1.000838  -0.741611  -0.609691  -0.504511  -0.46135   -0.389613  -0.379357  -0.365143  -0.314275  -0.255815   0.0848
   0.127472   0.172435   0.173645   0.185357   0.206384   0.219187   0.235146   0.53428    0.555271   0.566072   0.579255   0.667654   0.682909   0.828008
   0.880059   0.903544   0.920823   0.931506   0.971179   1.023778   1.037923   1.048639   1.190936   1.410753   1.44808    1.492996   1.742415   1.758377
   1.775884   1.947334   1.948209   2.060787   2.203721   2.241232   2.345524   2.377245   2.41294    2.524411   2.622183   2.841198]
nelec by numeric integration = 26.000007587216064
    CPU time for vxc      0.55 sec, wall time      0.14 sec
E1 = -371.68117546336293  Ecoul = 156.72186763170487  Exc = -21.667390769377043
cycle= 6 E= -154.932076353238  delta_E= -1.47e-06  |g|= 0.00023  |ddm|= 0.00208
    CPU time for cycle= 6      0.59 sec, wall time      0.15 sec
diis-norm(errvec)=0.000510727
diis-c [-0.       -0.001234 -0.000435  0.004807  0.022864  0.185997  0.788002]
  HOMO = -0.255817491926485  LUMO = 0.0847898607371269
  mo_energy =
[-19.121142 -10.211059 -10.153778  -1.00084   -0.741615  -0.609679  -0.504511  -0.461334  -0.389609  -0.379376  -0.365117  -0.314272  -0.255817   0.08479
   0.127476   0.172446   0.173646   0.185349   0.206391   0.21919    0.235154   0.534287   0.555278   0.566074   0.579262   0.667661   0.682916   0.827994
   0.880074   0.903531   0.920838   0.931527   0.971182   1.023774   1.03792    1.048636   1.190932   1.410765   1.448082   1.493004   1.742412   1.758373
   1.775887   1.947343   1.948219   2.060796   2.203734   2.241228   2.34554    2.377249   2.412943   2.524408   2.622187   2.841195]
nelec by numeric integration = 26.000007586212334
    CPU time for vxc      0.56 sec, wall time      0.14 sec
E1 = -371.6807998457028  Ecoul = 156.72146863275668  Exc = -21.66736740182975
cycle= 7 E= -154.932076366978  delta_E= -1.37e-08  |g|= 3.62e-05  |ddm|= 0.000274
    CPU time for cycle= 7      0.60 sec, wall time      0.15 sec
diis-norm(errvec)=7.08723e-05
diis-c [-0.       -0.000094 -0.000044 -0.000233  0.00018   0.006739  0.120017  0.873435]
  HOMO = -0.255818215362193  LUMO = 0.0847898648350704
  mo_energy =
[-19.121131 -10.211066 -10.153774  -1.00084   -0.741615  -0.60968   -0.504513  -0.461335  -0.389611  -0.379375  -0.36512   -0.314274  -0.255818   0.08479
   0.127475   0.172445   0.173646   0.185349   0.20639    0.219188   0.235152   0.534285   0.555277   0.566071   0.57926    0.66766    0.682915   0.827992
   0.880074   0.903532   0.920836   0.931525   0.97118    1.023773   1.037919   1.048635   1.190931   1.410762   1.44808    1.493      1.742411   1.758369
   1.775884   1.947342   1.948217   2.060794   2.203732   2.241227   2.345538   2.377247   2.41294    2.524404   2.622186   2.841192]
nelec by numeric integration = 26.000007586252107
    CPU time for vxc      0.58 sec, wall time      0.14 sec
E1 = -371.68077823085076  Ecoul = 156.72144132095627  Exc = -21.667361705200005
cycle= 8 E= -154.932076367297  delta_E= -3.19e-10  |g|= 8.09e-06  |ddm|= 5.24e-05
    CPU time for cycle= 8      0.61 sec, wall time      0.15 sec
  HOMO = -0.255817432161271  LUMO = 0.0847896813755558
  mo_energy =
[-19.121129 -10.211061 -10.15378   -1.000839  -0.741615  -0.609681  -0.504512  -0.461335  -0.389611  -0.379375  -0.365121  -0.314274  -0.255817   0.08479
   0.127474   0.172445   0.173645   0.185348   0.20639    0.219189   0.235152   0.534285   0.555277   0.566072   0.57926    0.66766    0.682915   0.827992
   0.880074   0.903531   0.920836   0.931524   0.97118    1.023773   1.037919   1.048635   1.190932   1.410762   1.448081   1.493      1.742412   1.75837
   1.775884   1.947341   1.948217   2.060794   2.203732   2.241227   2.345538   2.377247   2.412941   2.524405   2.622185   2.841193]
nelec by numeric integration = 26.000007586282976
    CPU time for vxc      0.55 sec, wall time      0.14 sec
E1 = -371.68076418397095  Ecoul = 156.72142678930823  Exc = -21.66736122043278
Extra cycle  E= -154.932076367298  delta_E= -1.02e-12  |g|= 8.04e-06  |ddm|= 1.27e-05
    CPU time for scf_cycle      6.49 sec, wall time      1.62 sec
    CPU time for SCF      6.50 sec, wall time      1.63 sec
converged SCF energy = -154.932076367298
atom C rad-grids = 75, ang-grids = [ 50  50  50  50  50  50  50  50  50  50  50  50  50  50  50  50  50  50  50  50  50  50  50  86  86  86  86  86  86  86  86  86  86 266 266 266 266 266 266
 266 302 302 302 302 302 302 302 302 302 302 302 302 302 302 302 302 302 302 302 302 266 266 266 266 266 266 266 266 266 266 266 266 266 266 266]
atom H rad-grids = 50, ang-grids = [ 50  50  50  50  50  50  50  50  50  50  50  50  50  50  86  86  86  86 266 266 266 266 302 302 302 302 302 302 302 302 302 302 302 302 302 266 266 266 266
 266 266 266 266 266 266 266 266 266 266 266]
atom O rad-grids = 75, ang-grids = [ 50  50  50  50  50  50  50  50  50  50  50  50  50  50  50  50  50  50  50  50  50  50  86  86  86  86  86  86  86  86  86 266 266 266 266 266 266 266 302
 302 302 302 302 302 302 302 302 302 302 302 302 302 302 302 302 302 302 266 266 266 266 266 266 266 266 266 266 266 266 266 266 266 266 266 266]
tot grids = 102210
