#INFO: **** input file is /share/home/srwang/dftpart/test/more/eda.py ****
from dftpart.eda import mayer
from pyscf import lib

with lib.with_omp_threads(4):
    for mol in ['c2h6', 'c2h4', 'c2h5oh']:
        test1 = mayer.MayerEDA()
        test1.gjf = mol+'.gjf' # provide geom, charge, multiplicity
        test1.method = ['b3lyp','6-31gs'] 
        test1.output = mol
        test1.verbose = 9
        #test1.build()
        #test1.showinter=True
        #test1.lso = 'c8b/c8b.lso'
        totE, conv, RR2 = test1.kernel()
            

#INFO: ******************** input file end ********************


System: uname_result(system='Linux', node='xn01', release='3.10.0-1127.el7.x86_64', version='#1 SMP Tue Feb 18 16:39:12 EST 2020', machine='x86_64', processor='x86_64')  Threads 4
Python 3.7.4 (default, Aug 13 2019, 20:35:49) 
[GCC 7.3.0]
numpy 1.17.2  scipy 1.4.1
Date: Thu Jul 15 20:29:04 2021
PySCF version 1.7.6a1
PySCF path  /share/home/srwang/pyscf/pyscf
GIT ORIG_HEAD 80f71dfe77ac5f9caae26788acf76446987635bd
GIT HEAD      ref: refs/heads/master
GIT master branch  80f71dfe77ac5f9caae26788acf76446987635bd

[ENV] PYSCF_EXT_PATH /share/home/srwang/pyscf_ext/fciqmc:
[CONFIG] DEBUG = False
[CONFIG] MAX_MEMORY = 4000
[CONFIG] TMPDIR = .
[CONFIG] UNIT = angstrom
[CONFIG] VERBOSE = 3
[CONFIG] conf_file = /share/home/srwang/.pyscf_conf.py
[CONFIG] mcscf_analyze_with_meta_lowdin = False
[INPUT] verbose = 9
[INPUT] max_memory = 4000 
[INPUT] num. atoms = 8
[INPUT] num. electrons = 18
[INPUT] charge = 0
[INPUT] spin (= nelec alpha-beta = 2S) = 0
[INPUT] symmetry False subgroup None
[INPUT] Mole.unit = angstrom
[INPUT]  1 C     -3.752664970000  -0.117270790000   0.000000000000 AA   -7.091509030549  -0.221609675511   0.000000000000 Bohr
[INPUT]  2 H     -3.396010540000  -1.126080790000   0.000000000000 AA   -6.417529836736  -2.127984287234   0.000000000000 Bohr
[INPUT]  3 H     -3.395992130000   0.387127400000  -0.873651500000 AA   -6.417495046878   0.731564761315  -1.650962063315 Bohr
[INPUT]  4 H     -4.822664970000  -0.117257600000   0.000000000000 AA   -9.113515983834  -0.221584750024   0.000000000000 Bohr
[INPUT]  5 C     -3.239322750000   0.608685490000   1.257404970000 AA   -6.121432826573   1.150248872097   2.376151020967 Bohr
[INPUT]  6 H     -2.169324560000   0.606978420000   1.258383320000 AA   -4.099429293693   1.147022977321   2.377999834521 Bohr
[INPUT]  7 H     -3.594379310000   1.618058500000   1.256427580000 AA   -6.792392483703   3.057687418525   2.374304021550 Bohr
[INPUT]  8 H     -3.597591710000   0.105417490000   2.131055170000 AA   -6.798463039906   0.199210184839   4.027110627638 Bohr
[INPUT] ---------------- BASIS SET ---------------- 
[INPUT] l, kappa, [nprim/nctr], expnt,             c_1 c_2 ...
[INPUT] H
[INPUT] 0    0    [3    /1   ]  18.731137         0.0334946
                                2.8253937         0.23472695
                                0.6401217         0.81375733
[INPUT] 0    0    [1    /1   ]  0.1612778            1
[INPUT] C
[INPUT] 0    0    [6    /1   ]  3047.5249         0.0018347
                                457.36951         0.0140373
                                103.94869         0.0688426
                                29.210155         0.2321844
                                9.286663          0.4679413
                                3.163927          0.362312
[INPUT] 0    0    [3    /1   ]  7.8682724         -0.1193324
                                1.8812885         -0.1608542
                                0.5442493         1.1434564
[INPUT] 0    0    [1    /1   ]  0.1687144            1
[INPUT] 1    0    [3    /1   ]  7.8682724         0.0689991
                                1.8812885         0.316424
                                0.5442493         0.7443083
[INPUT] 1    0    [1    /1   ]  0.1687144            1
[INPUT] 2    0    [1    /1   ]  0.8                  1

nuclear repulsion = 42.6703219900585
number of shells = 24
number of NR pGTOs = 78
number of NR cGTOs = 40
basis = 6-31gs
ecp = {}
bas 0, expnt(s) = [3047.5249    457.36951   103.94869    29.210155    9.286663    3.163927]
bas 1, expnt(s) = [7.868272 1.881288 0.544249]
bas 2, expnt(s) = [0.168714]
bas 3, expnt(s) = [7.868272 1.881288 0.544249]
bas 4, expnt(s) = [0.168714]
bas 5, expnt(s) = [0.8]
bas 6, expnt(s) = [18.731137  2.825394  0.640122]
bas 7, expnt(s) = [0.161278]
bas 8, expnt(s) = [18.731137  2.825394  0.640122]
bas 9, expnt(s) = [0.161278]
bas 10, expnt(s) = [18.731137  2.825394  0.640122]
bas 11, expnt(s) = [0.161278]
bas 12, expnt(s) = [3047.5249    457.36951   103.94869    29.210155    9.286663    3.163927]
bas 13, expnt(s) = [7.868272 1.881288 0.544249]
bas 14, expnt(s) = [0.168714]
bas 15, expnt(s) = [7.868272 1.881288 0.544249]
bas 16, expnt(s) = [0.168714]
bas 17, expnt(s) = [0.8]
bas 18, expnt(s) = [18.731137  2.825394  0.640122]
bas 19, expnt(s) = [0.161278]
bas 20, expnt(s) = [18.731137  2.825394  0.640122]
bas 21, expnt(s) = [0.161278]
bas 22, expnt(s) = [18.731137  2.825394  0.640122]
bas 23, expnt(s) = [0.161278]
CPU time:         0.48
arg.atm = [[ 6 20  1 23  0  0]
 [ 1 24  1 27  0  0]
 [ 1 28  1 31  0  0]
 [ 1 32  1 35  0  0]
 [ 6 36  1 39  0  0]
 [ 1 40  1 43  0  0]
 [ 1 44  1 47  0  0]
 [ 1 48  1 51  0  0]]
arg.bas = [[ 0  0  6  1  0 60 66  0]
 [ 0  0  3  1  0 72 75  0]
 [ 0  0  1  1  0 78 79  0]
 [ 0  1  3  1  0 80 83  0]
 [ 0  1  1  1  0 86 87  0]
 [ 0  2  1  1  0 88 89  0]
 [ 1  0  3  1  0 52 55  0]
 [ 1  0  1  1  0 58 59  0]
 [ 2  0  3  1  0 52 55  0]
 [ 2  0  1  1  0 58 59  0]
 [ 3  0  3  1  0 52 55  0]
 [ 3  0  1  1  0 58 59  0]
 [ 4  0  6  1  0 60 66  0]
 [ 4  0  3  1  0 72 75  0]
 [ 4  0  1  1  0 78 79  0]
 [ 4  1  3  1  0 80 83  0]
 [ 4  1  1  1  0 86 87  0]
 [ 4  2  1  1  0 88 89  0]
 [ 5  0  3  1  0 52 55  0]
 [ 5  0  1  1  0 58 59  0]
 [ 6  0  3  1  0 52 55  0]
 [ 6  0  1  1  0 58 59  0]
 [ 7  0  3  1  0 52 55  0]
 [ 7  0  1  1  0 58 59  0]]
arg.env = [   0.          0.          0.          0.          0.          0.          0.          0.          0.          0.          0.          0.          0.
    0.          0.          0.          0.          0.          0.          0.         -7.091509   -0.22161     0.          0.         -6.41753    -2.127984
    0.          0.         -6.417495    0.731565   -1.650962    0.         -9.113516   -0.221585    0.          0.         -6.121433    1.150249    2.376151
    0.         -4.099429    1.147023    2.378       0.         -6.792392    3.057687    2.374304    0.         -6.798463    0.19921     4.027111    0.
   18.731137    2.825394    0.640122    0.761926    1.292371    1.471319    0.161278    0.642978 3047.5249    457.36951   103.94869    29.210155    9.286663
    3.163927    1.901256    3.507511    5.662218    7.370526    6.289284    2.171539    7.868272    1.881288    0.544249   -1.41639    -0.652813    1.830556
    0.168714    0.665088    7.868272    1.881288    0.544249    2.652632    2.033869    1.015043    0.168714    0.315446    0.8         1.765781]
ecpbas  = []


******** <class 'pyscf.dft.rks.RKS'> ********
method = RKS-RHF
initial guess = minao
damping factor = 0
level_shift factor = 0
DIIS = <class 'pyscf.scf.diis.CDIIS'>
diis_start_cycle = 1
diis_space = 8
SCF conv_tol = 1e-09
SCF conv_tol_grad = None
SCF max_cycles = 50
direct_scf = True
direct_scf_tol = 1e-13
chkfile to save SCF result = /share/home/srwang/dftpart/test/more/tmpi1_t3rtf
max_memory 4000 MB (current use 79 MB)
XC functionals = b3lyp
small_rho_cutoff = 1e-07
radial grids: 
    Treutler-Ahlrichs [JCP 102, 346 (1995); DOI:10.1063/1.469408] (M4) radial grids
    
becke partition: Becke, JCP 88, 2547 (1988); DOI:10.1063/1.454033
pruning grids: <function nwchem_prune at 0x2ac1a3eab7a0>
grids dens level: 3
symmetrized grids: False
atomic radii adjust function: <function treutler_atomic_radii_adjust at 0x2ac1a3eabc20>
atomic_radii : [3.77945  0.661404 2.645617 2.740103 1.984212 1.606267 1.322808 1.228322 1.133836 0.944863 2.834589 3.401507 2.834589 2.362158 2.078699 1.889726 1.889726
 1.889726 3.401507 4.157397 3.401507 3.023562 2.645617 2.55113  2.645617 2.645617 2.645617 2.55113  2.55113  2.55113  2.55113  2.456644 2.362158 2.173185
 2.173185 2.173185 3.59048  4.440856 3.779452 3.401507 2.929075 2.740103 2.740103 2.55113  2.456644 2.55113  2.645617 3.023562 2.929075 2.929075 2.740103
 2.740103 2.645617 2.645617 3.968425 4.913288 4.062911 3.684966 3.495993 3.495993 3.495993 3.495993 3.495993 3.495993 3.401507 3.307021 3.307021 3.307021
 3.307021 3.307021 3.307021 3.307021 2.929075 2.740103 2.55113  2.55113  2.456644 2.55113  2.55113  2.55113  2.834589 3.59048  3.401507 3.023562 3.59048
 2.740103 3.968425 3.401507 4.062911 3.684966 3.401507 3.401507 3.307021 3.307021 3.307021 3.307021 3.307021 3.307021 3.307021 3.307021 3.307021 3.307021
 3.307021 3.307021 3.307021 3.307021 3.307021 3.307021 3.307021 3.307021 3.307021 3.307021 3.307021 3.307021 3.307021 3.307021 3.307021 3.307021 3.307021
 3.307021 3.307021 3.307021 3.307021 3.307021 3.307021 3.307021 3.307021 3.307021 3.307021 3.307021 3.307021]
Set gradient conv threshold to 3.16228e-05
Nelec from initial guess = 17.990251372335486
atom C rad-grids = 75, ang-grids = [ 50  50  50  50  50  50  50  50  50  50  50  50  50  50  50  50  50  50  50  50  50  50  50  86  86  86  86  86  86  86  86  86  86 266 266 266 266 266 266
 266 302 302 302 302 302 302 302 302 302 302 302 302 302 302 302 302 302 302 302 302 266 266 266 266 266 266 266 266 266 266 266 266 266 266 266]
atom H rad-grids = 50, ang-grids = [ 50  50  50  50  50  50  50  50  50  50  50  50  50  50  86  86  86  86 266 266 266 266 302 302 302 302 302 302 302 302 302 302 302 302 302 266 266 266 266
 266 266 266 266 266 266 266 266 266 266 266]
tot grids = 87948
Drop grids 14907
    CPU time for setting up grids      0.16 sec, wall time      0.04 sec
nelec by numeric integration = 17.990254886077896
    CPU time for vxc      0.42 sec, wall time      0.10 sec
E1 = -188.19720414721573  Ecoul = 78.77082972616242  Exc = -12.912853507931985
init E= -79.6689059389268
cond(S) = 558.9488653545079
    CPU time for initialize scf      0.74 sec, wall time      0.20 sec
  HOMO = -0.403080170643242  LUMO = 0.0543135640167276
  mo_energy =
[-10.295502 -10.294843  -0.923199  -0.735503  -0.507251  -0.50725   -0.426481  -0.403081  -0.40308    0.054314   0.106958   0.11788    0.11788    0.137686
   0.137687   0.150231   0.445596   0.477887   0.477898   0.551777   0.551779   0.569344   0.819617   0.819619   0.831632   0.856707   0.856708   0.923084
   1.020516   1.38633    1.401031   1.401031   1.826513   1.901283   1.901284   2.202651   2.202652   2.211064   2.211065   2.475005]
nelec by numeric integration = 18.000002890072373
    CPU time for vxc      0.42 sec, wall time      0.10 sec
E1 = -191.7327638514684  Ecoul = 82.60010555425677  Exc = -13.260565180935139
cycle= 1 E= -79.7229014880883  delta_E= -0.054  |g|= 0.369  |ddm|= 2.14
    CPU time for cycle= 1      0.44 sec, wall time      0.11 sec
diis-norm(errvec)=0.651262
diis-c [-0.424142  1.      ]
  HOMO = -0.259827025906172  LUMO = 0.13836008930402
  mo_energy =
[-9.965161 -9.965027 -0.667691 -0.546753 -0.372228 -0.372227 -0.286621 -0.286621 -0.259827  0.13836   0.198515  0.215145  0.215146  0.228676  0.228677
  0.293782  0.568363  0.593468  0.593476  0.675706  0.675708  0.761046  0.970742  0.970743  0.979078  1.004891  1.004892  1.07152   1.150725  1.493241
  1.610614  1.610614  2.041444  2.103138  2.103139  2.399442  2.399443  2.417024  2.417025  2.699518]
nelec by numeric integration = 18.00000239916443
    CPU time for vxc      0.41 sec, wall time      0.10 sec
E1 = -188.27887529361942  Ecoul = 78.81461307504019  Exc = -12.919141150812264
cycle= 2 E= -79.713081379333  delta_E= 0.00982  |g|= 0.421  |ddm|= 0.728
    CPU time for cycle= 2      0.44 sec, wall time      0.11 sec
diis-norm(errvec)=0.746269
diis-c [-0.006436  0.534447  0.465553]
  HOMO = -0.342018995378624  LUMO = 0.110701196987987
  mo_energy =
[-10.149746 -10.149619  -0.748847  -0.610674  -0.433749  -0.433748  -0.348598  -0.342019  -0.342019   0.110701   0.170091   0.179727   0.179728   0.195955
   0.195956   0.240708   0.515306   0.547147   0.547156   0.623891   0.623893   0.671408   0.90752    0.907521   0.930919   0.948246   0.948247   1.019008
   1.094922   1.454565   1.519833   1.519833   1.947061   2.017447   2.017448   2.318488   2.318488   2.331853   2.331854   2.600963]
nelec by numeric integration = 18.00000259874774
    CPU time for vxc      0.41 sec, wall time      0.10 sec
E1 = -190.13852163473422  Ecoul = 80.80032845842061  Exc = -13.0924882690311
cycle= 3 E= -79.7603594552862  delta_E= -0.0473  |g|= 0.0102  |ddm|= 0.373
    CPU time for cycle= 3      0.44 sec, wall time      0.11 sec
diis-norm(errvec)=0.0238025
diis-c [-0.000263  0.091429  0.084745  0.823826]
  HOMO = -0.343204602171524  LUMO = 0.110164339917268
  mo_energy =
[-10.151901 -10.151772  -0.748643  -0.612458  -0.434416  -0.434415  -0.348642  -0.343205  -0.343205   0.110164   0.169657   0.179644   0.179645   0.195709
   0.195711   0.23986    0.514837   0.547041   0.54705    0.623287   0.623289   0.671212   0.907224   0.907226   0.92956    0.947655   0.947655   1.017704
   1.094912   1.45424    1.519427   1.519428   1.946947   2.017178   2.017179   2.317961   2.317961   2.331161   2.331162   2.600597]
nelec by numeric integration = 18.000002599484585
    CPU time for vxc      0.41 sec, wall time      0.10 sec
E1 = -190.1427080915114  Ecoul = 80.80610535235613  Exc = -13.094101280143947
cycle= 4 E= -79.7603820292407  delta_E= -2.26e-05  |g|= 0.002  |ddm|= 0.00983
    CPU time for cycle= 4      0.44 sec, wall time      0.11 sec
diis-norm(errvec)=0.00382757
diis-c [-0.       -0.008855 -0.004305  0.087961  0.9252  ]
  HOMO = -0.343019158849058  LUMO = 0.110270358648525
  mo_energy =
[-10.151136 -10.151005  -0.748451  -0.612097  -0.434265  -0.434264  -0.348471  -0.343019  -0.343019   0.11027    0.169791   0.179719   0.17972    0.195786
   0.195788   0.240147   0.515041   0.547142   0.547151   0.623464   0.623466   0.671499   0.907415   0.907416   0.929886   0.947877   0.947877   1.01802
   1.095038   1.454353   1.51971    1.519711   1.947241   2.017398   2.017399   2.318195   2.318196   2.33148    2.33148    2.60095 ]
nelec by numeric integration = 18.000002597285302
    CPU time for vxc      0.41 sec, wall time      0.10 sec
E1 = -190.1360694963021  Ecoul = 80.79868202552397  Exc = -13.093317659019375
cycle= 5 E= -79.760383139739  delta_E= -1.11e-06  |g|= 3.31e-05  |ddm|= 0.00248
    CPU time for cycle= 5      0.44 sec, wall time      0.11 sec
diis-norm(errvec)=6.93777e-05
diis-c [-0.       -0.000133 -0.000059 -0.002026  0.003125  0.999093]
  HOMO = -0.343022959114122  LUMO = 0.110266535625246
  mo_energy =
[-10.151124 -10.150994  -0.748454  -0.612102  -0.434268  -0.434267  -0.348478  -0.343023  -0.343023   0.110267   0.169787   0.179716   0.179717   0.195783
   0.195784   0.24014    0.515031   0.547137   0.547146   0.62346    0.623462   0.671494   0.907413   0.907414   0.92988    0.947874   0.947875   1.018016
   1.095033   1.454347   1.519702   1.519703   1.947235   2.017392   2.017393   2.318191   2.318191   2.331473   2.331473   2.600943]
nelec by numeric integration = 18.00000259727691
    CPU time for vxc      0.41 sec, wall time      0.10 sec
E1 = -190.13598705691004  Ecoul = 80.79859413441426  Exc = -13.093312207584306
cycle= 6 E= -79.7603831400216  delta_E= -2.83e-10  |g|= 1.09e-06  |ddm|= 2.35e-05
    CPU time for cycle= 6      0.43 sec, wall time      0.11 sec
  HOMO = -0.343022304374345  LUMO = 0.110266903370258
  mo_energy =
[-10.151124 -10.150994  -0.748453  -0.612102  -0.434267  -0.434266  -0.348477  -0.343023  -0.343022   0.110267   0.169787   0.179716   0.179717   0.195783
   0.195784   0.240141   0.515031   0.547137   0.547146   0.62346    0.623462   0.671494   0.907414   0.907415   0.929881   0.947875   0.947875   1.018016
   1.095033   1.454347   1.519703   1.519704   1.947235   2.017393   2.017394   2.318192   2.318192   2.331474   2.331474   2.600943]
nelec by numeric integration = 18.000002597276886
    CPU time for vxc      0.41 sec, wall time      0.10 sec
E1 = -190.13598177947978  Ecoul = 80.79858830195154  Exc = -13.093311652552114
Extra cycle  E= -79.7603831400219  delta_E= -2.7e-13  |g|= 6.75e-07  |ddm|= 1.43e-06
    CPU time for scf_cycle      3.80 sec, wall time      0.96 sec
    CPU time for SCF      3.80 sec, wall time      0.96 sec
converged SCF energy = -79.7603831400219
atom C rad-grids = 75, ang-grids = [ 50  50  50  50  50  50  50  50  50  50  50  50  50  50  50  50  50  50  50  50  50  50  50  86  86  86  86  86  86  86  86  86  86 266 266 266 266 266 266
 266 302 302 302 302 302 302 302 302 302 302 302 302 302 302 302 302 302 302 302 302 266 266 266 266 266 266 266 266 266 266 266 266 266 266 266]
atom H rad-grids = 50, ang-grids = [ 50  50  50  50  50  50  50  50  50  50  50  50  50  50  86  86  86  86 266 266 266 266 302 302 302 302 302 302 302 302 302 302 302 302 302 266 266 266 266
 266 266 266 266 266 266 266 266 266 266 266]
tot grids = 87948
