#INFO: **** input file is /home/liwei01/wsr/dftpart/test_2body/w32/gfea_c8.py ****
from dftpart import gfea3
from pyscf import lib

par = 8
with lib.with_omp_threads(par):
    fr0 = gfea3.GFEA()
    fr0.inputstyle = 'frg'
    fr0.method = ['hf', '6-31gss','charge']
    fr0.gjfname = 'w32'
    fr0.output = 'w32'
    fr0.verbose = 9
    fr0.showinter = True
    #fr0.do_deriv = True
    fr0.kernel()

#INFO: ******************** input file end ********************


System: uname_result(system='Linux', node='master', release='3.10.0-693.el7.x86_64', version='#1 SMP Tue Aug 22 21:09:27 UTC 2017', machine='x86_64', processor='x86_64')  Threads 8
Python 3.7.6 (default, Jan  8 2020, 19:59:22) 
[GCC 7.3.0]
numpy 1.18.1  scipy 1.4.1
Date: Tue Jun 16 20:56:22 2020
PySCF version 1.6.1
PySCF path  /home/liwei01/zcheng/pyscf/pyscf
GIT HEAD      ref: refs/heads/master
GIT master branch  3adc7fd25839fe674469a52b764c3661e32d7318

[CONFIG] DEBUG = False
[CONFIG] MAX_MEMORY = 4000
[CONFIG] TMPDIR = .
[CONFIG] UNIT = angstrom
[CONFIG] VERBOSE = 3
[CONFIG] conf_file = None
[INPUT] verbose = 9
[INPUT] max_memory = 4000 
[INPUT] num. atoms = 21
[INPUT] num. electrons = 70
[INPUT] charge = 0
[INPUT] spin (= nelec alpha-beta = 2S) = 0
[INPUT] symmetry False subgroup None
[INPUT] Mole.unit = angstrom
[INPUT]  1 O      8.392325000000 -11.812941000000 -11.200483000000 AA   15.859195798340 -22.323223215646 -21.165845332847 Bohr
[INPUT]  2 O      8.693246000000 -14.069272000000  -9.547113000000 AA   16.427854073471 -26.587070852012 -18.041428850275 Bohr
[INPUT]  3 O      5.570392000000 -12.760041000000 -10.733807000000 AA   10.526515286468 -24.112982828221 -20.283955503939 Bohr
[INPUT]  4 O      6.966193000000  -9.247795000000 -10.274305000000 AA   13.164196900862 -17.475799806122 -19.415622570249 Bohr
[INPUT]  5 O      6.942642000000 -11.829381000000  -8.371044000000 AA   13.119691960903 -22.354290313134 -15.818980536684 Bohr
[INPUT]  6 O      8.801253000000 -12.425877000000  -6.497294000000 AA   16.631957723007 -23.481504387532 -12.278106210780 Bohr
[INPUT]  7 O      4.210768000000 -13.330605000000  -7.554598000000 AA    7.957198294083 -25.191192524758 -14.276121201187 Bohr
[INPUT]  8 H      8.175276000000 -12.537815000000 -10.614239000000 AA   15.449032632730 -23.693036550464 -20.058004730677 Bohr
[INPUT]  9 H      9.252154000000 -11.514100000000 -10.904475000000 AA   17.484037122299 -21.758495570855 -20.606471282167 Bohr
[INPUT] 10 H      8.220090000000 -13.732742000000  -8.786125000000 AA   15.533718819276 -25.951121319312 -16.603369946194 Bohr
[INPUT] 11 H      8.552802000000 -15.015659000000  -9.517782000000 AA   16.162453377632 -28.375483089860 -17.986001293315 Bohr
[INPUT] 12 H      4.642708000000 -12.827827000000 -10.507888000000 AA    8.773446596327 -24.241079803301 -19.857030467604 Bohr
[INPUT] 13 H      5.983752000000 -12.405170000000  -9.946767000000 AA   11.307652477318 -23.442373828671 -18.796665454862 Bohr
[INPUT] 14 H      6.975152000000  -9.845016000000 -11.022289000000 AA   13.181126957212 -18.604383931961 -20.829107475806 Bohr
[INPUT] 15 H      7.684375000000  -8.638472000000 -10.445098000000 AA   14.521364188455 -16.324346214724 -19.738374564242 Bohr
[INPUT] 16 H      7.495574000000 -12.091052000000  -7.634819000000 AA   14.164582006411 -22.848776837875 -14.427716920626 Bohr
[INPUT] 17 H      7.307461000000 -10.992840000000  -8.659728000000 AA   13.809099955940 -20.773456931164 -16.364514233228 Bohr
[INPUT] 18 H      9.055634000000 -11.748983000000  -5.870127000000 AA   17.112668144300 -22.202360112171 -11.092932346415 Bohr
[INPUT] 19 H      8.939496000000 -13.249901000000  -6.030278000000 AA   16.893199131645 -25.038684067601 -11.395573874990 Bohr
[INPUT] 20 H      4.963781000000 -12.745268000000  -7.473460000000 AA    9.380186632320 -24.085065904183 -14.122792602892 Bohr
[INPUT] 21 H      4.583488000000 -14.161788000000  -7.848620000000 AA    8.661537015230 -26.761900754152 -14.831742255784 Bohr
[INPUT] ---------------- BASIS SET ---------------- 
[INPUT] l, kappa, [nprim/nctr], expnt,             c_1 c_2 ...
[INPUT] H
[INPUT] 0    0    [3    /1   ]  18.731137         0.0334946
                                2.8253937         0.23472695
                                0.6401217         0.81375733
[INPUT] 0    0    [1    /1   ]  0.1612778            1
[INPUT] 1    0    [1    /1   ]  1.1                  1
[INPUT] O
[INPUT] 0    0    [6    /1   ]  5484.6717         0.0018311
                                825.23495         0.0139501
                                188.04696         0.0684451
                                52.9645           0.2327143
                                16.89757          0.470193
                                5.7996353         0.3585209
[INPUT] 0    0    [3    /1   ]  15.539616         -0.1107775
                                3.5999336         -0.1480263
                                1.0137618         1.130767
[INPUT] 0    0    [1    /1   ]  0.2700058            1
[INPUT] 1    0    [3    /1   ]  15.539616         0.0708743
                                3.5999336         0.3397528
                                1.0137618         0.7271586
[INPUT] 1    0    [1    /1   ]  0.2700058            1
[INPUT] 2    0    [1    /1   ]  0.8                  1

nuclear repulsion = 363.588506969394
number of shells = 84
number of NR pGTOs = 287
number of NR cGTOs = 168
basis = 6-31gss
ecp = {}
bas 0, expnt(s) = [5484.6717     825.23495    188.04696     52.9645      16.89757
    5.7996353]
bas 1, expnt(s) = [15.539616   3.5999336  1.0137618]
bas 2, expnt(s) = [0.2700058]
bas 3, expnt(s) = [15.539616   3.5999336  1.0137618]
bas 4, expnt(s) = [0.2700058]
bas 5, expnt(s) = [0.8]
bas 6, expnt(s) = [5484.6717     825.23495    188.04696     52.9645      16.89757
    5.7996353]
bas 7, expnt(s) = [15.539616   3.5999336  1.0137618]
bas 8, expnt(s) = [0.2700058]
bas 9, expnt(s) = [15.539616   3.5999336  1.0137618]
bas 10, expnt(s) = [0.2700058]
bas 11, expnt(s) = [0.8]
bas 12, expnt(s) = [5484.6717     825.23495    188.04696     52.9645      16.89757
    5.7996353]
bas 13, expnt(s) = [15.539616   3.5999336  1.0137618]
bas 14, expnt(s) = [0.2700058]
bas 15, expnt(s) = [15.539616   3.5999336  1.0137618]
bas 16, expnt(s) = [0.2700058]
bas 17, expnt(s) = [0.8]
bas 18, expnt(s) = [5484.6717     825.23495    188.04696     52.9645      16.89757
    5.7996353]
bas 19, expnt(s) = [15.539616   3.5999336  1.0137618]
bas 20, expnt(s) = [0.2700058]
bas 21, expnt(s) = [15.539616   3.5999336  1.0137618]
bas 22, expnt(s) = [0.2700058]
bas 23, expnt(s) = [0.8]
bas 24, expnt(s) = [5484.6717     825.23495    188.04696     52.9645      16.89757
    5.7996353]
bas 25, expnt(s) = [15.539616   3.5999336  1.0137618]
bas 26, expnt(s) = [0.2700058]
bas 27, expnt(s) = [15.539616   3.5999336  1.0137618]
bas 28, expnt(s) = [0.2700058]
bas 29, expnt(s) = [0.8]
bas 30, expnt(s) = [5484.6717     825.23495    188.04696     52.9645      16.89757
    5.7996353]
bas 31, expnt(s) = [15.539616   3.5999336  1.0137618]
bas 32, expnt(s) = [0.2700058]
bas 33, expnt(s) = [15.539616   3.5999336  1.0137618]
bas 34, expnt(s) = [0.2700058]
bas 35, expnt(s) = [0.8]
bas 36, expnt(s) = [5484.6717     825.23495    188.04696     52.9645      16.89757
    5.7996353]
bas 37, expnt(s) = [15.539616   3.5999336  1.0137618]
bas 38, expnt(s) = [0.2700058]
bas 39, expnt(s) = [15.539616   3.5999336  1.0137618]
bas 40, expnt(s) = [0.2700058]
bas 41, expnt(s) = [0.8]
bas 42, expnt(s) = [18.731137   2.8253937  0.6401217]
bas 43, expnt(s) = [0.1612778]
bas 44, expnt(s) = [1.1]
bas 45, expnt(s) = [18.731137   2.8253937  0.6401217]
bas 46, expnt(s) = [0.1612778]
bas 47, expnt(s) = [1.1]
bas 48, expnt(s) = [18.731137   2.8253937  0.6401217]
bas 49, expnt(s) = [0.1612778]
bas 50, expnt(s) = [1.1]
bas 51, expnt(s) = [18.731137   2.8253937  0.6401217]
bas 52, expnt(s) = [0.1612778]
bas 53, expnt(s) = [1.1]
bas 54, expnt(s) = [18.731137   2.8253937  0.6401217]
bas 55, expnt(s) = [0.1612778]
bas 56, expnt(s) = [1.1]
bas 57, expnt(s) = [18.731137   2.8253937  0.6401217]
bas 58, expnt(s) = [0.1612778]
bas 59, expnt(s) = [1.1]
bas 60, expnt(s) = [18.731137   2.8253937  0.6401217]
bas 61, expnt(s) = [0.1612778]
bas 62, expnt(s) = [1.1]
bas 63, expnt(s) = [18.731137   2.8253937  0.6401217]
bas 64, expnt(s) = [0.1612778]
bas 65, expnt(s) = [1.1]
bas 66, expnt(s) = [18.731137   2.8253937  0.6401217]
bas 67, expnt(s) = [0.1612778]
bas 68, expnt(s) = [1.1]
bas 69, expnt(s) = [18.731137   2.8253937  0.6401217]
bas 70, expnt(s) = [0.1612778]
bas 71, expnt(s) = [1.1]
bas 72, expnt(s) = [18.731137   2.8253937  0.6401217]
bas 73, expnt(s) = [0.1612778]
bas 74, expnt(s) = [1.1]
bas 75, expnt(s) = [18.731137   2.8253937  0.6401217]
bas 76, expnt(s) = [0.1612778]
bas 77, expnt(s) = [1.1]
bas 78, expnt(s) = [18.731137   2.8253937  0.6401217]
bas 79, expnt(s) = [0.1612778]
bas 80, expnt(s) = [1.1]
bas 81, expnt(s) = [18.731137   2.8253937  0.6401217]
bas 82, expnt(s) = [0.1612778]
bas 83, expnt(s) = [1.1]
CPU time:       498.65
arg.atm = [[  8  20   1  23   0   0]
 [  8  24   1  27   0   0]
 [  8  28   1  31   0   0]
 [  8  32   1  35   0   0]
 [  8  36   1  39   0   0]
 [  8  40   1  43   0   0]
 [  8  44   1  47   0   0]
 [  1  48   1  51   0   0]
 [  1  52   1  55   0   0]
 [  1  56   1  59   0   0]
 [  1  60   1  63   0   0]
 [  1  64   1  67   0   0]
 [  1  68   1  71   0   0]
 [  1  72   1  75   0   0]
 [  1  76   1  79   0   0]
 [  1  80   1  83   0   0]
 [  1  84   1  87   0   0]
 [  1  88   1  91   0   0]
 [  1  92   1  95   0   0]
 [  1  96   1  99   0   0]
 [  1 100   1 103   0   0]]
arg.bas = [[  0   0   6   1   0 114 120   0]
 [  0   0   3   1   0 126 129   0]
 [  0   0   1   1   0 132 133   0]
 [  0   1   3   1   0 134 137   0]
 [  0   1   1   1   0 140 141   0]
 [  0   2   1   1   0 142 143   0]
 [  1   0   6   1   0 114 120   0]
 [  1   0   3   1   0 126 129   0]
 [  1   0   1   1   0 132 133   0]
 [  1   1   3   1   0 134 137   0]
 [  1   1   1   1   0 140 141   0]
 [  1   2   1   1   0 142 143   0]
 [  2   0   6   1   0 114 120   0]
 [  2   0   3   1   0 126 129   0]
 [  2   0   1   1   0 132 133   0]
 [  2   1   3   1   0 134 137   0]
 [  2   1   1   1   0 140 141   0]
 [  2   2   1   1   0 142 143   0]
 [  3   0   6   1   0 114 120   0]
 [  3   0   3   1   0 126 129   0]
 [  3   0   1   1   0 132 133   0]
 [  3   1   3   1   0 134 137   0]
 [  3   1   1   1   0 140 141   0]
 [  3   2   1   1   0 142 143   0]
 [  4   0   6   1   0 114 120   0]
 [  4   0   3   1   0 126 129   0]
 [  4   0   1   1   0 132 133   0]
 [  4   1   3   1   0 134 137   0]
 [  4   1   1   1   0 140 141   0]
 [  4   2   1   1   0 142 143   0]
 [  5   0   6   1   0 114 120   0]
 [  5   0   3   1   0 126 129   0]
 [  5   0   1   1   0 132 133   0]
 [  5   1   3   1   0 134 137   0]
 [  5   1   1   1   0 140 141   0]
 [  5   2   1   1   0 142 143   0]
 [  6   0   6   1   0 114 120   0]
 [  6   0   3   1   0 126 129   0]
 [  6   0   1   1   0 132 133   0]
 [  6   1   3   1   0 134 137   0]
 [  6   1   1   1   0 140 141   0]
 [  6   2   1   1   0 142 143   0]
 [  7   0   3   1   0 104 107   0]
 [  7   0   1   1   0 110 111   0]
 [  7   1   1   1   0 112 113   0]
 [  8   0   3   1   0 104 107   0]
 [  8   0   1   1   0 110 111   0]
 [  8   1   1   1   0 112 113   0]
 [  9   0   3   1   0 104 107   0]
 [  9   0   1   1   0 110 111   0]
 [  9   1   1   1   0 112 113   0]
 [ 10   0   3   1   0 104 107   0]
 [ 10   0   1   1   0 110 111   0]
 [ 10   1   1   1   0 112 113   0]
 [ 11   0   3   1   0 104 107   0]
 [ 11   0   1   1   0 110 111   0]
 [ 11   1   1   1   0 112 113   0]
 [ 12   0   3   1   0 104 107   0]
 [ 12   0   1   1   0 110 111   0]
 [ 12   1   1   1   0 112 113   0]
 [ 13   0   3   1   0 104 107   0]
 [ 13   0   1   1   0 110 111   0]
 [ 13   1   1   1   0 112 113   0]
 [ 14   0   3   1   0 104 107   0]
 [ 14   0   1   1   0 110 111   0]
 [ 14   1   1   1   0 112 113   0]
 [ 15   0   3   1   0 104 107   0]
 [ 15   0   1   1   0 110 111   0]
 [ 15   1   1   1   0 112 113   0]
 [ 16   0   3   1   0 104 107   0]
 [ 16   0   1   1   0 110 111   0]
 [ 16   1   1   1   0 112 113   0]
 [ 17   0   3   1   0 104 107   0]
 [ 17   0   1   1   0 110 111   0]
 [ 17   1   1   1   0 112 113   0]
 [ 18   0   3   1   0 104 107   0]
 [ 18   0   1   1   0 110 111   0]
 [ 18   1   1   1   0 112 113   0]
 [ 19   0   3   1   0 104 107   0]
 [ 19   0   1   1   0 110 111   0]
 [ 19   1   1   1   0 112 113   0]
 [ 20   0   3   1   0 104 107   0]
 [ 20   0   1   1   0 110 111   0]
 [ 20   1   1   1   0 112 113   0]]
arg.env = [ 1.37036000e+02  0.00000000e+00  0.00000000e+00  0.00000000e+00
  0.00000000e+00  0.00000000e+00  0.00000000e+00  0.00000000e+00
  0.00000000e+00  0.00000000e+00  0.00000000e+00  0.00000000e+00
  0.00000000e+00  0.00000000e+00  0.00000000e+00  0.00000000e+00
  0.00000000e+00  0.00000000e+00  0.00000000e+00  0.00000000e+00
  1.58591958e+01 -2.23232232e+01 -2.11658453e+01  0.00000000e+00
  1.64278541e+01 -2.65870709e+01 -1.80414289e+01  0.00000000e+00
  1.05265153e+01 -2.41129828e+01 -2.02839555e+01  0.00000000e+00
  1.31641969e+01 -1.74757998e+01 -1.94156226e+01  0.00000000e+00
  1.31196920e+01 -2.23542903e+01 -1.58189805e+01  0.00000000e+00
  1.66319577e+01 -2.34815044e+01 -1.22781062e+01  0.00000000e+00
  7.95719829e+00 -2.51911925e+01 -1.42761212e+01  0.00000000e+00
  1.54490326e+01 -2.36930366e+01 -2.00580047e+01  0.00000000e+00
  1.74840371e+01 -2.17584956e+01 -2.06064713e+01  0.00000000e+00
  1.55337188e+01 -2.59511213e+01 -1.66033699e+01  0.00000000e+00
  1.61624534e+01 -2.83754831e+01 -1.79860013e+01  0.00000000e+00
  8.77344660e+00 -2.42410798e+01 -1.98570305e+01  0.00000000e+00
  1.13076525e+01 -2.34423738e+01 -1.87966655e+01  0.00000000e+00
  1.31811270e+01 -1.86043839e+01 -2.08291075e+01  0.00000000e+00
  1.45213642e+01 -1.63243462e+01 -1.97383746e+01  0.00000000e+00
  1.41645820e+01 -2.28487768e+01 -1.44277169e+01  0.00000000e+00
  1.38091000e+01 -2.07734569e+01 -1.63645142e+01  0.00000000e+00
  1.71126681e+01 -2.22023601e+01 -1.10929323e+01  0.00000000e+00
  1.68931991e+01 -2.50386841e+01 -1.13955739e+01  0.00000000e+00
  9.38018663e+00 -2.40850659e+01 -1.41227926e+01  0.00000000e+00
  8.66153702e+00 -2.67619008e+01 -1.48317423e+01  0.00000000e+00
  1.87311370e+01  2.82539370e+00  6.40121700e-01  7.61926220e-01
  1.29237100e+00  1.47131900e+00  1.61277800e-01  6.42977783e-01
  1.10000000e+00  3.28643653e+00  5.48467170e+03  8.25234950e+02
  1.88046960e+02  5.29645000e+01  1.68975700e+01  5.79963530e+00
  2.94842455e+00  5.42657124e+00  8.78126489e+00  1.15432129e+01
  9.90055015e+00  3.38516599e+00  1.55396160e+01  3.59993360e+00
  1.01376180e+00 -2.19051792e+00 -9.77405528e-01  2.88629094e+00
  2.70005800e-01  9.46334873e-01  1.55396160e+01  3.59993360e+00
  1.01376180e+00  6.37930734e+00  4.91490975e+00  2.15791055e+00
  2.70005800e-01  5.67807022e-01  8.00000000e-01  1.76578110e+00]
ecpbas  = []


******** <class 'pyscf.qmmm.itrf.mm_charge.<locals>.QMMM'> ********
method = QMMM-RHF
initial guess = minao
damping factor = 0
level shift factor = 0
DIIS = <class 'pyscf.scf.diis.CDIIS'>
DIIS start cycle = 1
DIIS space = 8
SCF tol = 1e-09
SCF gradient tol = None
max. SCF cycles = 50
direct_scf = True
direct_scf_tol = 1e-13
chkfile to save SCF result = /home/liwei01/wsr/dftpart/test_2body/w32/tmp1p2z9nox
max_memory 4000 MB (current use 303 MB)
** Add background charges for <class 'pyscf.scf.hf.RHF'> **
Charge      Location
-1.035697    [ 20.23144001 -20.50137794 -19.07019386]
0.520608    [ 21.7723038  -21.39222885 -18.74761761]
0.515624    [ 19.97024207 -19.49608333 -17.58928542]
-1.024266    [ 13.70105109 -18.63199472 -24.76194313]
0.515186    [ 13.45609723 -19.31578456 -26.41855264]
0.515422    [ 13.87339411 -20.08163576 -23.69387937]
-1.002885    [ 18.40539199 -27.51482622 -24.72543362]
0.521542    [ 17.83274639 -26.30664305 -23.50711585]
0.49877    [ 20.13069872 -27.06649815 -25.03241585]
-1.054902    [ 19.05772167 -18.14703431 -25.87868434]
0.517977    [ 18.59105569 -18.66655214 -27.54728983]
0.522623    [ 17.51229609 -18.19498233 -24.93991564]
-0.997115    [ 17.90283445 -15.11249509 -20.63210731]
0.530073    [ 18.89257472 -16.62132612 -20.50652934]
0.49195    [ 18.18557149 -14.25298717 -19.06582671]
-1.032188    [ 15.97118286 -20.09833149 -29.6421136 ]
0.47982    [ 15.3540909  -19.66610766 -31.28659296]
0.534069    [ 17.50300052 -21.00734455 -29.95701189]
-0.992133    [  7.63287216 -21.21078113 -24.19682809]
0.480184    [  8.55071592 -22.76668147 -24.10379498]
0.504586    [  8.37549106 -20.32880248 -25.59058803]
-1.012936    [ 10.55365553 -29.46492154 -21.67488842]
0.504954    [  8.84108934 -29.00412127 -22.03084479]
0.525721    [ 11.34418277 -27.91794449 -21.17105153]
-0.979947    [ 19.94097588 -17.12125506 -14.67509908]
0.500341    [ 18.95312155 -17.86288753 -13.35371942]
0.493696    [ 19.00620207 -15.6543646  -15.17143564]
-0.982261    [ 16.04742575 -26.75780005 -29.6895325 ]
0.479882    [ 16.71262824 -28.42851069 -29.88488293]
0.495008    [ 16.8532352  -26.12000803 -28.20097066]
-0.983713    [ 20.17321188 -22.53529584 -29.89394228]
0.505479    [ 21.06170253 -23.16751127 -28.4507471 ]
0.512532    [ 20.35114661 -23.83370776 -31.14069287]
-1.011239    [ 14.66303696 -31.18986921 -25.03135193]
0.492592    [ 13.80996545 -30.6346091  -23.53606456]
0.497341    [ 16.13314373 -30.14067248 -25.13086491]
-0.999332    [ 25.43111026 -22.24828235 -18.47023794]
0.512801    [ 26.28398524 -20.77981964 -19.09325419]
0.507583    [ 26.7410892  -23.47726762 -18.25698991]
-1.016163    [ 10.56617686 -29.35403808 -16.44102735]
0.483053    [ 11.92280935 -30.36927076 -15.8079521 ]
0.523726    [ 10.34862781 -29.90290525 -18.15080431]
-0.976012    [ 10.09067452 -21.18806662 -29.24260093]
0.486289    [ 11.11173701 -19.76402949 -29.69146191]
0.496485    [ 10.37375928 -22.38512875 -30.56881072]
-0.977833    [ 24.5589393  -27.80514674 -21.18389789]
0.50587    [ 23.21796885 -28.65180829 -20.31390388]
0.463809    [ 25.76766104 -27.42438582 -19.8931866 ]
-0.989717    [  8.77070649 -15.37911655 -23.94499373]
0.487556    [  8.68859978 -13.74216775 -23.17975481]
0.496916    [ 10.53805395 -15.75730555 -24.01835668]
-0.992057    [ 16.93410036 -32.15697813 -17.52810554]
0.50918    [ 16.39069828 -32.53931319 -15.84570882]
0.510293    [ 15.6895513  -32.92540692 -18.59231236]
-0.998393    [ 24.35861321 -18.31258187 -25.98586582]
0.466984    [ 25.48944989 -18.60606579 -24.60492389]
0.51604    [ 22.70911474 -18.4111103  -25.25008395]
-1.010464    [  9.27281806 -14.9477601  -17.25327322]
0.476424    [  7.6789399  -15.16789619 -18.07972415]
0.517552    [ 10.24747455 -16.38576609 -17.75736144]
-0.991473    [  5.5836248  -24.00414405 -18.66237963]
0.501887    [  5.79022289 -25.52045085 -17.69798247]
0.510487    [  5.17491673 -22.73885336 -17.43603619]
-1.001943    [ 16.13613705 -11.83176802 -24.46883904]
0.509813    [ 16.78082846 -12.94299123 -23.1954641 ]
0.477312    [ 17.5304658  -11.57071369 -25.59117007]
-1.019724    [ 21.67798379 -29.0173418  -14.20699124]
0.475311    [ 20.53074618 -29.01816194 -15.60548117]
0.514632    [ 22.50198564 -27.40961194 -14.29731259]
-0.9959    [ 24.21450458 -24.60133719 -13.9203349 ]
0.499354    [ 23.58737251 -23.46499007 -12.66043371]
0.511038    [ 23.91476757 -23.75039163 -15.48812918]
-1.001922    [ 21.40011279 -32.14724982 -20.33868764]
0.487648    [ 22.14106118 -33.75675602 -19.97480576]
0.509505    [ 19.73399418 -32.24696878 -19.64152988]
Set gradient conv threshold to 3.16228e-05
Nelec from initial guess = 69.92822904842619
cond(S) = 197.4222093855565
E1 = -1451.22196550007  E_coul = 554.4684367758126
init E= -531.177180852545
    CPU time for initialize scf      6.12 sec, wall time      0.77 sec
  HOMO = -0.4938574159511  LUMO = 0.0206830774148857
  mo_energy =
[-2.08525882e+01 -2.08502268e+01 -2.08457494e+01 -2.08420292e+01
 -2.08293359e+01 -2.08245871e+01 -2.08226285e+01 -1.71611776e+00
 -1.68294197e+00 -1.66362871e+00 -1.65209761e+00 -1.63816705e+00
 -1.63521233e+00 -1.62884485e+00 -8.29565453e-01 -8.24797031e-01
 -8.00851982e-01 -7.83075847e-01 -7.77749529e-01 -7.67518597e-01
 -7.66066467e-01 -6.72507703e-01 -6.69434824e-01 -6.37661088e-01
 -6.21786623e-01 -6.13573273e-01 -6.10710844e-01 -5.86548023e-01
 -5.36908862e-01 -5.31741438e-01 -5.24788445e-01 -5.16850370e-01
 -5.07056783e-01 -4.98662286e-01 -4.93857416e-01  2.06830774e-02
  8.29174403e-02  1.10938347e-01  1.25972637e-01  1.67864655e-01
  1.86835260e-01  1.90664875e-01  2.04612290e-01  2.25131566e-01
  2.44525238e-01  2.59509540e-01  2.79105332e-01  2.97982472e-01
  3.35394345e-01  8.04926932e-01  8.61233530e-01  8.75001082e-01
  8.97351804e-01  9.15494746e-01  9.26276360e-01  9.34398685e-01
  9.41782678e-01  9.48055004e-01  9.57186297e-01  9.66007366e-01
  9.82150108e-01  9.84623656e-01  9.91371614e-01  1.01098804e+00
  1.01646594e+00  1.02637436e+00  1.03780916e+00  1.05654014e+00
  1.07198279e+00  1.08174894e+00  1.10107414e+00  1.12184730e+00
  1.14898278e+00  1.16112497e+00  1.17938247e+00  1.18768259e+00
  1.19502856e+00  1.21111615e+00  1.22166432e+00  1.24084373e+00
  1.26480839e+00  1.28067270e+00  1.30206056e+00  1.34179069e+00
  1.45269242e+00  1.49287721e+00  1.52345348e+00  1.55898980e+00
  1.58290076e+00  1.62147410e+00  1.64843977e+00  1.66895683e+00
  1.67113507e+00  1.68570877e+00  1.68672461e+00  1.69373680e+00
  1.69729539e+00  1.70144966e+00  1.70740367e+00  1.71117644e+00
  1.71921508e+00  1.72881466e+00  1.74282206e+00  1.76648390e+00
  1.78203839e+00  1.79835558e+00  1.80140918e+00  1.82798089e+00
  1.83933093e+00  1.87902762e+00  1.92765519e+00  1.98333292e+00
  2.44351185e+00  2.44615169e+00  2.46762226e+00  2.46842229e+00
  2.48329436e+00  2.48859384e+00  2.49852110e+00  2.53070143e+00
  2.54291903e+00  2.55705986e+00  2.55840084e+00  2.56852715e+00
  2.59342237e+00  2.62094158e+00  2.68064793e+00  2.69215387e+00
  2.71246049e+00  2.72420180e+00  2.72727628e+00  2.77619114e+00
  2.81170835e+00  2.85600628e+00  2.86623592e+00  2.89059436e+00
  2.89174062e+00  2.89490548e+00  2.89577699e+00  2.90059904e+00
  2.90844885e+00  2.91182251e+00  2.93332363e+00  2.94199859e+00
  2.94474364e+00  2.95024384e+00  2.96038846e+00  3.28196202e+00
  3.28419276e+00  3.30697839e+00  3.31271394e+00  3.31804829e+00
  3.34002571e+00  3.36456460e+00  3.65779015e+00  3.68384642e+00
  3.69095836e+00  3.71415613e+00  3.71789212e+00  3.73376122e+00
  3.75607034e+00  3.80916697e+00  3.83205453e+00  3.84633105e+00
  3.86396562e+00  3.89160009e+00  3.89865506e+00  3.93375702e+00]
E1 = -1469.2972430892335  E_coul = 571.6510963937303
cycle= 1 E= -532.069798823791  delta_E= -0.893  |g|= 1.13  |ddm|= 3.12
    CPU time for cycle= 1      0.92 sec, wall time      0.11 sec
diis-norm(errvec)=2.0105
diis-c [-4.04210768  1.        ]
  HOMO = -0.379332064795497  LUMO = 0.10791742085798
  mo_energy =
[-20.49334489 -20.40200786 -20.39889934 -20.31714666 -20.31199061
 -20.29497633 -20.26340986  -1.41491373  -1.34006562  -1.32811963
  -1.26971543  -1.26442375  -1.25281412  -1.22779139  -0.79142812
  -0.73149629  -0.7130207   -0.65310916  -0.64316065  -0.64067218
  -0.63481238  -0.6138205   -0.56396153  -0.56160135  -0.53834228
  -0.49980842  -0.495469    -0.48963937  -0.47379107  -0.46637749
  -0.45145343  -0.42179624  -0.41777645  -0.39632104  -0.37933206
   0.10791742   0.18640043   0.20997682   0.2286237    0.25600851
   0.30099235   0.31994972   0.32258626   0.34908371   0.37101502
   0.38624667   0.43991549   0.45781306   0.49209034   0.88447615
   0.96091763   0.98068715   0.9914103    0.99997861   1.02796726
   1.03795591   1.05195466   1.08198001   1.09286743   1.10477073
   1.13604078   1.14470828   1.15308686   1.16393916   1.18215197
   1.19866414   1.20888008   1.21190685   1.24075951   1.26506608
   1.26898258   1.28451511   1.29690787   1.31482378   1.33149417
   1.35884097   1.37047211   1.38329407   1.39088345   1.39758444
   1.45379615   1.46081152   1.48120534   1.51437732   1.59193871
   1.65027975   1.68770369   1.70161495   1.70809337   1.72406711
   1.75216149   1.76998702   1.79160138   1.81078499   1.8358064
   1.840289     1.84710267   1.85805058   1.86886032   1.87607532
   1.88323492   1.8898127    1.89670996   1.91537957   1.95165664
   1.96903574   1.98820215   2.00641419   2.02033344   2.0254847
   2.10074298   2.17501445   2.43640282   2.50282048   2.50770899
   2.56173071   2.57731644   2.58976057   2.59794362   2.62542305
   2.63035993   2.64411566   2.64863274   2.69065632   2.70569244
   2.71589484   2.78021507   2.80378064   2.84795611   2.85243027
   2.86548391   2.86635262   2.87737031   2.93323299   2.94282015
   2.96254766   2.97492346   2.99322443   3.00353508   3.00836962
   3.01117564   3.02452308   3.03833456   3.04367879   3.05076547
   3.06121943   3.07570277   3.27343557   3.35328749   3.39743316
   3.41345955   3.43543386   3.4523959    3.46725908   3.65429463
   3.75153794   3.79736728   3.79957206   3.83456497   3.84828218
   3.85259887   3.87945053   3.96667883   3.98380903   4.01266905
   4.05100089   4.07495141   4.08661348]
E1 = -1458.7147044493452  E_coul = 560.8806508511889
cycle= 2 E= -532.257705726444  delta_E= -0.188  |g|= 0.541  |ddm|= 0.896
    CPU time for cycle= 2      0.92 sec, wall time      0.11 sec
diis-norm(errvec)=0.90962
diis-c [-0.19796566  0.28807831  0.71192169]
  HOMO = -0.478975733331953  LUMO = 0.10991298967945
  mo_energy =
[-20.69181368 -20.63848159 -20.61088421 -20.58589828 -20.583038
 -20.57908417 -20.55593522  -1.46271867  -1.40683923  -1.38804682
  -1.34877512  -1.34712091  -1.34255358  -1.32078597  -0.82402656
  -0.77796653  -0.76328163  -0.7137341   -0.71142147  -0.70651366
  -0.69032077  -0.68400062  -0.63722075  -0.6221553   -0.60304788
  -0.58604566  -0.57874629  -0.57537499  -0.5542061   -0.54971864
  -0.53855354  -0.51065038  -0.50518491  -0.49126447  -0.47897573
   0.10991299   0.17866909   0.21085807   0.21874038   0.24363666
   0.28828871   0.30389769   0.31074587   0.3310998    0.35410038
   0.36471842   0.41566688   0.42559378   0.4607377    0.8792713
   0.92967107   0.96125534   0.96920497   0.98610361   1.00605923
   1.01431453   1.03241641   1.0513673    1.06219322   1.07099804
   1.08747613   1.09855516   1.09922728   1.12126861   1.12738723
   1.14151709   1.14460267   1.1591808    1.17545391   1.20231484
   1.22200885   1.22281828   1.24173552   1.25813254   1.2842088
   1.3040454    1.30955993   1.32246301   1.33122908   1.33947469
   1.39469879   1.40539365   1.43087795   1.44079087   1.54481727
   1.60183211   1.63811091   1.66361274   1.67569166   1.68684965
   1.71543929   1.73522086   1.75272955   1.76963794   1.79380965
   1.80108541   1.80171849   1.8127491    1.82357678   1.82645084
   1.83133753   1.83854437   1.84316958   1.86859062   1.9092421
   1.91907926   1.9375213    1.9426095    1.96022929   1.97326176
   2.04897494   2.11387367   2.45145153   2.4793184    2.51300987
   2.53479472   2.57237203   2.58540157   2.58980791   2.59251902
   2.59844688   2.60918547   2.61567005   2.65135844   2.6674008
   2.69832475   2.73001636   2.76932302   2.80758966   2.82165446
   2.83355461   2.85174971   2.86074231   2.89822938   2.92650232
   2.93317757   2.94555643   2.97248319   2.97801302   2.98235152
   2.99738235   3.00280602   3.01043269   3.01366719   3.02026738
   3.02907078   3.04008717   3.27165146   3.33659603   3.37652739
   3.3880053    3.41271038   3.42159906   3.43304361   3.64808339
   3.73060058   3.76425145   3.77180476   3.80828574   3.81190345
   3.82700918   3.84007235   3.92639237   3.93443069   3.96257693
   4.00613567   4.0193612    4.02665712]
E1 = -1463.3320334678453  E_coul = 565.4469902164578
cycle= 3 E= -532.308695379675  delta_E= -0.051  |g|= 0.0784  |ddm|= 0.351
    CPU time for cycle= 3      0.88 sec, wall time      0.11 sec
diis-norm(errvec)=0.14316
diis-c [-0.00975308 -0.02531291  0.06173535  0.96357755]
  HOMO = -0.469879914486342  LUMO = 0.117395357841779
  mo_energy =
[-20.66159406 -20.60618161 -20.58973971 -20.54935387 -20.54825944
 -20.54714321 -20.5231104   -1.44752849  -1.39324853  -1.37815128
  -1.33481521  -1.33421035  -1.3293847   -1.30925522  -0.80942539
  -0.76741127  -0.752073    -0.70332015  -0.69937485  -0.69435081
  -0.68055785  -0.67362194  -0.62742659  -0.61199685  -0.59345179
  -0.57664266  -0.56898146  -0.5655698   -0.545053    -0.54147575
  -0.53098508  -0.50079272  -0.49360146  -0.48123762  -0.46987991
   0.11739536   0.18495456   0.21793721   0.2255066    0.24896805
   0.29399829   0.30922311   0.3176438    0.33603125   0.35979309
   0.37023819   0.42136029   0.43223318   0.46602156   0.88982521
   0.9349878    0.96948641   0.97747902   0.99880932   1.01399092
   1.02205021   1.04257244   1.05949743   1.07148021   1.07958041
   1.09654091   1.10705107   1.10851434   1.12955231   1.13700363
   1.14962862   1.15251564   1.1685571    1.18443748   1.21012498
   1.23026243   1.23215311   1.24997267   1.26692694   1.29273898
   1.31337915   1.31882959   1.33124956   1.34067463   1.34757078
   1.4031733    1.41305261   1.43937014   1.4482823    1.55443633
   1.61176019   1.64838965   1.67319197   1.68534083   1.7004183
   1.72574232   1.74670433   1.76296485   1.77975674   1.80323835
   1.81152261   1.81282399   1.82341788   1.83283066   1.83572629
   1.84071075   1.84788929   1.85250135   1.87799128   1.9186466
   1.92902027   1.94600242   1.95074142   1.96851958   1.98275173
   2.05616597   2.12082579   2.46447379   2.49255892   2.52376375
   2.54561232   2.5823038    2.59527868   2.59937135   2.60261362
   2.60921862   2.61794786   2.62312151   2.66003598   2.67613855
   2.71281944   2.73867097   2.78125959   2.81978147   2.83309562
   2.84332098   2.86388157   2.87320706   2.90709849   2.93646833
   2.9438206    2.95451531   2.98061106   2.9875649    2.99195042
   3.00779635   3.01186303   3.01835272   3.02174502   3.02820738
   3.03626757   3.04719148   3.28448911   3.34682271   3.38614326
   3.39749631   3.4200017    3.42926779   3.44038789   3.66454444
   3.74485841   3.777555     3.7859786    3.81981656   3.82337633
   3.84029163   3.85155075   3.93835303   3.94590207   3.97448193
   4.01575463   4.02856877   4.03574533]
E1 = -1462.8223240760592  E_coul = 564.935907224206
cycle= 4 E= -532.310068980141  delta_E= -0.00137  |g|= 0.0126  |ddm|= 0.0501
    CPU time for cycle= 4      0.91 sec, wall time      0.11 sec
diis-norm(errvec)=0.0262308
diis-c [-2.16292209e-04 -9.06971823e-03 -3.74128565e-02 -1.43008042e-01
  1.18949062e+00]
  HOMO = -0.471075126463918  LUMO = 0.117738099113253
  mo_energy =
[-20.66261993 -20.60841631 -20.58716213 -20.5529141  -20.55184034
 -20.54890124 -20.52520057  -1.44763659  -1.39405713  -1.37725334
  -1.33576889  -1.33563271  -1.33054716  -1.31021552  -0.80873486
  -0.76684782  -0.75190461  -0.70355645  -0.69994454  -0.69489122
  -0.68048511  -0.67377155  -0.62790125  -0.61198148  -0.5937366
  -0.57734323  -0.56981764  -0.566474    -0.54608431  -0.54222491
  -0.53072371  -0.50207902  -0.49544992  -0.48271626  -0.47107513
   0.1177381    0.18500135   0.21832665   0.22588468   0.24865221
   0.29395224   0.30900999   0.3179142    0.3357087    0.35998073
   0.37032202   0.42162983   0.43277954   0.46626965   0.89026036
   0.93494237   0.96947719   0.97766744   0.99919468   1.01371049
   1.02179806   1.04237389   1.05910762   1.07136015   1.07941008
   1.09617561   1.10650421   1.10819823   1.12921817   1.13613019
   1.14925572   1.15192064   1.16826101   1.18388166   1.20940257
   1.2299935    1.23197095   1.24983338   1.26681459   1.29219198
   1.31311096   1.31840935   1.33087394   1.34051449   1.34773271
   1.40277268   1.41342373   1.43919208   1.44802918   1.55434869
   1.61138526   1.64780446   1.67304226   1.68537013   1.7008476
   1.72573772   1.74689924   1.76293072   1.77965531   1.80313478
   1.81152224   1.81217532   1.8230114    1.83271397   1.83530405
   1.84039123   1.84752658   1.85215897   1.87788383   1.91871758
   1.92865252   1.94590287   1.95033254   1.96839523   1.98253393
   2.05614061   2.12078139   2.46544912   2.49304542   2.5240337
   2.54550653   2.58252237   2.59537135   2.5993789    2.60229415
   2.6086495    2.61785663   2.62300831   2.66015631   2.67663522
   2.71354964   2.73849688   2.7812978    2.81935448   2.83287488
   2.84338534   2.86477258   2.87413381   2.9074053    2.93712524
   2.94410861   2.95481384   2.98126505   2.9874106    2.99176911
   3.00750954   3.01179832   3.01840181   3.02191694   3.0284028
   3.03614206   3.04736      3.28546331   3.34706559   3.38618604
   3.39747931   3.42009457   3.42974082   3.44060352   3.66534319
   3.74486453   3.77726694   3.78554305   3.81971171   3.82425829
   3.84080189   3.85156826   3.93849074   3.9459219    3.97431628
   4.01607291   4.02906097   4.03606953]
E1 = -1462.8422463897243  E_coul = 564.9557609038745
cycle= 5 E= -532.310137614137  delta_E= -6.86e-05  |g|= 0.00289  |ddm|= 0.0161
    CPU time for cycle= 5      0.91 sec, wall time      0.11 sec
diis-norm(errvec)=0.00529813
diis-c [-2.07888244e-05  6.87292439e-04  1.86465002e-04 -2.38201391e-02
 -7.22275372e-03  1.03016914e+00]
  HOMO = -0.471320522748782  LUMO = 0.117732611664122
  mo_energy =
[-20.66241542 -20.60804258 -20.58998352 -20.55188466 -20.55051921
 -20.54917902 -20.52531394  -1.44759673  -1.39406162  -1.37822046
  -1.3357678   -1.33543262  -1.33031152  -1.3103739   -0.80851829
  -0.76719087  -0.75201831  -0.70363279  -0.69972425  -0.69449794
  -0.68073427  -0.67386773  -0.62793861  -0.61235627  -0.5941393
  -0.57728466  -0.5697734   -0.56641148  -0.54629369  -0.54253177
  -0.53168962  -0.50215747  -0.49530469  -0.48275002  -0.47132052
   0.11773261   0.18491781   0.21832508   0.22589552   0.24861392
   0.29383399   0.30894872   0.31786001   0.33560029   0.35993867
   0.37032668   0.42146251   0.43254589   0.46601058   0.89025855
   0.93473253   0.96929018   0.97747679   0.99917425   1.01368468
   1.02178108   1.04230023   1.05895093   1.07116656   1.07924295
   1.09606236   1.10639087   1.10817713   1.12910226   1.13617777
   1.14905096   1.15176122   1.16822375   1.18390593   1.20921785
   1.2298706    1.23187085   1.24968494   1.26676556   1.29209094
   1.31310418   1.31844148   1.33086545   1.34040548   1.34737735
   1.40263499   1.41291306   1.4389979    1.44784697   1.55421069
   1.61127677   1.64782072   1.67295112   1.68519081   1.70085319
   1.72559268   1.74681545   1.76281753   1.7794915    1.80297271
   1.81135792   1.81224158   1.82307533   1.83249588   1.83518951
   1.84031849   1.84744124   1.85209346   1.87768273   1.9184818
   1.92860598   1.94567293   1.95015935   1.96817555   1.98253201
   2.05577253   2.12048768   2.46541867   2.49305877   2.52394877
   2.54543341   2.58240601   2.59526279   2.59933928   2.60234995
   2.60869558   2.61772056   2.62281349   2.65987356   2.676176
   2.71357555   2.73826633   2.78124354   2.8194371    2.83299804
   2.84321673   2.86463121   2.87414999   2.90710073   2.9368048
   2.94400536   2.95463112   2.98090999   2.98745984   2.9917723
   3.00752339   3.01171035   3.0183167    3.02170043   3.02815515
   3.03594595   3.04715271   3.28547814   3.34700548   3.38613411
   3.39754757   3.41987471   3.42944669   3.44037404   3.66536907
   3.74485082   3.77736998   3.78561801   3.8195476    3.82383754
   3.84073685   3.85143005   3.93846305   3.94594431   3.97437807
   4.01582402   4.028731     4.03573775]
E1 = -1462.840148462862  E_coul = 564.9536600579479
cycle= 6 E= -532.310140533202  delta_E= -2.92e-06  |g|= 0.0013  |ddm|= 0.00348
    CPU time for cycle= 6      0.93 sec, wall time      0.12 sec
diis-norm(errvec)=0.00237439
diis-c [-1.55457673e-06  1.27220699e-03  4.75674509e-03  8.60524930e-03
 -1.34459674e-01  2.53062291e-01  8.66763182e-01]
  HOMO = -0.471346464988342  LUMO = 0.117745775503673
  mo_energy =
[-20.66239615 -20.60810906 -20.58878226 -20.55217967 -20.55093474
 -20.54900842 -20.52522612  -1.44759876  -1.39408677  -1.37786365
  -1.33578385  -1.33553426  -1.33041896  -1.31035945  -0.80846114
  -0.76702972  -0.75192671  -0.7035841   -0.69974443  -0.69457317
  -0.68063212  -0.67383335  -0.62797909  -0.61226049  -0.59406686
  -0.57737524  -0.56986383  -0.56650796  -0.54634374  -0.54253212
  -0.53142358  -0.50224138  -0.49545529  -0.48286515  -0.47134646
   0.11774578   0.18491852   0.21834544   0.22591095   0.24859526
   0.29384271   0.30892926   0.31788231   0.33559052   0.35994918
   0.37031351   0.42147634   0.43260033   0.46605811   0.89025959
   0.93471504   0.96929846   0.97750119   0.99918041   1.01364506
   1.02173753   1.04228755   1.05893148   1.07118372   1.07925099
   1.0960337    1.1063543    1.1081431    1.12908111   1.13608689
   1.14905791   1.15172683   1.16820521   1.18385637   1.20920317
   1.22986542   1.23186352   1.24969009   1.26675646   1.2920741
   1.31307648   1.31840537   1.3308348    1.34042479   1.34747737
   1.40262916   1.4130582    1.43903895   1.44785947   1.55424644
   1.61128823   1.64779573   1.6729608    1.68522773   1.700848
   1.72560787   1.74682523   1.76280661   1.77950985   1.80297849
   1.81137139   1.81217853   1.82300044   1.83252003   1.83516488
   1.8402911    1.84742029   1.85206124   1.87770966   1.91854209
   1.92859173   1.94570613   1.95015357   1.96819989   1.98250082
   2.05585812   2.12052435   2.46543874   2.49304818   2.52394066
   2.54540324   2.58240643   2.59526185   2.59930434   2.60227288
   2.60862567   2.61769942   2.6228095    2.6599053    2.67628578
   2.71357284   2.73827184   2.78121473   2.81936668   2.83290854
   2.84320945   2.864691     2.87415922   2.90715144   2.93688906
   2.94399392   2.95465278   2.98098972   2.98740017   2.99172714
   3.00748955   3.0116937    3.01827855   3.02172522   3.02818915
   3.0359474    3.04714275   3.28548966   3.34698516   3.38611387
   3.39748006   3.41988178   3.42949529   3.44037947   3.66537867
   3.7448276    3.77729703   3.78556446   3.81955025   3.82395901
   3.84074315   3.85143393   3.93843771   3.9458978    3.97431711
   4.01585515   4.02879144   4.0357944 ]
E1 = -1462.8374966980123  E_coul = 564.9510078061285
cycle= 7 E= -532.310141020171  delta_E= -4.87e-07  |g|= 0.000234  |ddm|= 0.00131
    CPU time for cycle= 7      0.91 sec, wall time      0.11 sec
diis-norm(errvec)=0.000439142
diis-c [-6.19748094e-08 -1.21743755e-04 -1.90721593e-04  1.78088012e-04
  9.66508550e-03 -8.88434951e-02 -7.24634909e-02  1.15177628e+00]
  HOMO = -0.471351043329728  LUMO = 0.117758172991747
  mo_energy =
[-20.66232664 -20.60807105 -20.58887074 -20.55214151 -20.55087805
 -20.54900037 -20.52519257  -1.44757069  -1.39407751  -1.37788938
  -1.33577902  -1.33553042  -1.33040505  -1.31035583  -0.80841599
  -0.76702402  -0.75191249  -0.703572    -0.69973161  -0.69454466
  -0.68062729  -0.67381984  -0.62797285  -0.61226299  -0.59407411
  -0.57737493  -0.5698681   -0.56651284  -0.54634982  -0.54254187
  -0.53146324  -0.50224817  -0.49546338  -0.48287191  -0.47135104
   0.11775817   0.18492309   0.21835749   0.22592403   0.24859205
   0.29384231   0.30892825   0.31789023   0.33558377   0.35995473
   0.37032086   0.42148532   0.43260423   0.46606155   0.89028083
   0.93472374   0.96930521   0.97750624   0.99920194   1.01364933
   1.02174351   1.04229621   1.05893544   1.07118389   1.07925155
   1.09603682   1.10635217   1.1081554    1.12908343   1.13608491
   1.14905527   1.1517298    1.16821363   1.183862     1.20920226
   1.2298647    1.2318719    1.2496967    1.26676795   1.29207662
   1.3130884    1.31841638   1.33084294   1.34043428   1.34747802
   1.40263311   1.41305574   1.43904122   1.44786659   1.55425586
   1.61129515   1.64779946   1.67296663   1.68523274   1.70087127
   1.72561522   1.74683964   1.76281395   1.77951388   1.80298021
   1.81137528   1.81217859   1.82301051   1.83251814   1.83516656
   1.84029581   1.84742082   1.85206696   1.87771235   1.91853899
   1.92859119   1.94570548   1.95015533   1.96820152   1.98250803
   2.05585256   2.12052882   2.46546252   2.49307284   2.52395048
   2.54541223   2.58241143   2.59526351   2.59931272   2.60228246
   2.6086265    2.61770477   2.62280634   2.6599057    2.6762812
   2.71360127   2.73827082   2.78122539   2.81936893   2.8329222
   2.84321588   2.86470368   2.87418538   2.90715359   2.93689157
   2.94400204   2.95466034   2.98099521   2.98740377   2.99172707
   3.00748603   3.01169226   3.0182908    3.021723     3.02818548
   3.03594575   3.0471551    3.28551549   3.34699517   3.38611498
   3.39749079   3.41988203   3.42949744   3.44038579   3.66540982
   3.74483897   3.77730909   3.78556703   3.81955241   3.82396297
   3.84076147   3.85143997   3.9384493    3.94590731   3.97432323
   4.015861     4.02879565   4.03579476]
E1 = -1462.837002895656  E_coul = 564.9505139789262
cycle= 8 E= -532.310141045017  delta_E= -2.48e-08  |g|= 3.9e-05  |ddm|= 0.000362
    CPU time for cycle= 8      0.91 sec, wall time      0.11 sec
diis-norm(errvec)=7.27541e-05
diis-c [-2.40193806e-09 -5.12180777e-05 -1.77852960e-04 -4.23716158e-04
  5.50867759e-03 -1.05644438e-02 -3.69215291e-02  9.11345503e-03
  1.03351663e+00]
  HOMO = -0.471355206847355  LUMO = 0.117758593684207
  mo_energy =
[-20.66234251 -20.60806816 -20.58885322 -20.55212756 -20.55086458
 -20.54899014 -20.5252009   -1.44757436  -1.39407673  -1.37788491
  -1.33577646  -1.33552538  -1.33040124  -1.31035953  -0.80841649
  -0.76702054  -0.75190954  -0.70356942  -0.69972647  -0.69453926
  -0.68062648  -0.67382117  -0.6279726   -0.61226375  -0.59407511
  -0.57737298  -0.56986562  -0.56651016  -0.54635178  -0.54254416
  -0.53146155  -0.50224628  -0.49545902  -0.48287021  -0.47135521
   0.11775859   0.18492288   0.21835808   0.22592458   0.24859317
   0.29384282   0.30892871   0.3178916    0.33558396   0.35995642
   0.37032212   0.42148472   0.43260566   0.46606116   0.89028139
   0.93472224   0.96930492   0.97750751   0.99920146   1.01365091
   1.02174499   1.04229608   1.05893474   1.07118532   1.07925244
   1.0960368    1.10635241   1.1081542    1.1290841    1.13608711
   1.14905625   1.15172984   1.1682151    1.18386383   1.20920086
   1.22986696   1.23187179   1.24969719   1.26676842   1.2920771
   1.31308962   1.3184188    1.33084491   1.34043579   1.34748018
   1.40263404   1.4130577    1.43904307   1.44786556   1.55425622
   1.61129607   1.64780212   1.67296806   1.68523397   1.70087013
   1.72561564   1.74683944   1.76281421   1.77951467   1.80298081
   1.81137619   1.81218145   1.82301236   1.8325198    1.83516575
   1.84029668   1.84742153   1.85206765   1.87771281   1.91854133
   1.92859385   1.94570607   1.9501534    1.96820261   1.98251029
   2.05585263   2.12052814   2.465464     2.49307165   2.52395136
   2.54541287   2.58241285   2.59526537   2.59931424   2.60228489
   2.60862966   2.61770554   2.62280556   2.65990632   2.67628265
   2.71360071   2.73826962   2.78122637   2.81937268   2.83292523
   2.84321657   2.86470561   2.87418576   2.90715316   2.93689284
   2.94400215   2.95466152   2.98099566   2.98740631   2.99172973
   3.00748834   3.01169389   3.01829112   3.02172372   3.02818636
   3.03594401   3.04715433   3.28551643   3.3469963    3.38611785
   3.39749341   3.41988113   3.42949878   3.44038604   3.66540921
   3.7448403    3.77731191   3.78557004   3.81955378   3.82396495
   3.84076056   3.85143909   3.93845101   3.94591048   3.97432704
   4.01586254   4.02879728   4.035794  ]
E1 = -1462.83695693055  E_coul = 564.950468013223
cycle= 9 E= -532.310141045615  delta_E= -5.97e-10  |g|= 1.27e-05  |ddm|= 5.38e-05
    CPU time for cycle= 9      0.90 sec, wall time      0.11 sec
  HOMO = -0.471352425756473  LUMO = 0.117759335702106
  mo_energy =
[-20.66233035 -20.60806741 -20.58885626 -20.55213368 -20.55087127
 -20.54899327 -20.52519382  -1.44757005  -1.39407613  -1.37788545
  -1.33577734  -1.33552698  -1.33040276  -1.31035695  -0.80841316
  -0.76701985  -0.751909    -0.7035694   -0.69972749  -0.69454045
  -0.68062513  -0.67381856  -0.62797222  -0.61226124  -0.59407259
  -0.57737414  -0.56986698  -0.56651161  -0.54635054  -0.54254289
  -0.53146219  -0.50224727  -0.4954603   -0.48287129  -0.47135243
   0.11775934   0.18492317   0.21835846   0.22592498   0.24859297
   0.29384296   0.30892865   0.31789179   0.33558407   0.35995623
   0.37032192   0.42148508   0.43260615   0.46606193   0.89028256
   0.93472277   0.96930551   0.9775076    0.99920274   1.01365054
   1.0217446    1.04229699   1.05893511   1.07118525   1.07925265
   1.09603701   1.10635226   1.10815589   1.12908418   1.13608589
   1.14905601   1.15172985   1.16821548   1.18386394   1.20920193
   1.22986626   1.23187306   1.24969784   1.26676921   1.29207753
   1.31308976   1.31841839   1.33084457   1.34043604   1.34747991
   1.40263415   1.41305782   1.43904313   1.44786634   1.55425737
   1.61129623   1.64780161   1.67296829   1.68523421   1.70087261
   1.72561635   1.74684112   1.76281484   1.77951513   1.80298122
   1.81137648   1.81218069   1.82301161   1.83251961   1.83516639
   1.84029666   1.84742175   1.85206764   1.87771336   1.91854134
   1.9285935    1.94570641   1.95015452   1.96820244   1.9825099
   2.05585325   2.12052849   2.46546472   2.49307443   2.52395153
   2.54541333   2.58241297   2.59526518   2.5993141    2.60228409
   2.6086287    2.61770546   2.62280604   2.65990642   2.67628274
   2.71360312   2.73827074   2.78122671   2.81937157   2.83292434
   2.84321662   2.86470644   2.87418742   2.90715412   2.93689361
   2.94400222   2.95466189   2.98099601   2.98740575   2.99172905
   3.00748775   3.01169378   3.01829106   3.02172421   3.02818698
   3.0359449    3.04715455   3.28551794   3.34699656   3.38611731
   3.39749284   3.41988196   3.42949903   3.44038624   3.66541129
   3.74484041   3.77731107   3.78556913   3.81955355   3.8239654
   3.8407626    3.85144043   3.93845124   3.94590985   3.97432591
   4.01586248   4.02879719   4.03579517]
E1 = -1462.836964109099  E_coul = 564.9504751917262
Extra cycle  E= -532.31014104566  delta_E= -4.57e-11  |g|= 6.66e-06  |ddm|= 1.5e-05
    CPU time for scf_cycle     15.21 sec, wall time      1.90 sec
    CPU time for SCF     15.28 sec, wall time      1.91 sec
converged SCF energy = -532.31014104566
