#INFO: **** input file is /home/liwei01/wsr/dftpart/test_2body/w32/gfea_c8.py ****
from dftpart import gfea3
from pyscf import lib

par = 8
with lib.with_omp_threads(par):
    fr0 = gfea3.GFEA()
    fr0.inputstyle = 'frg'
    fr0.method = ['hf', '6-31gss','charge']
    fr0.gjfname = 'w32'
    fr0.output = 'w32'
    fr0.verbose = 9
    fr0.showinter = True
    #fr0.do_deriv = True
    fr0.kernel()

#INFO: ******************** input file end ********************


System: uname_result(system='Linux', node='master', release='3.10.0-693.el7.x86_64', version='#1 SMP Tue Aug 22 21:09:27 UTC 2017', machine='x86_64', processor='x86_64')  Threads 8
Python 3.7.6 (default, Jan  8 2020, 19:59:22) 
[GCC 7.3.0]
numpy 1.18.1  scipy 1.4.1
Date: Tue Jun 16 20:58:19 2020
PySCF version 1.6.1
PySCF path  /home/liwei01/zcheng/pyscf/pyscf
GIT HEAD      ref: refs/heads/master
GIT master branch  3adc7fd25839fe674469a52b764c3661e32d7318

[CONFIG] DEBUG = False
[CONFIG] MAX_MEMORY = 4000
[CONFIG] TMPDIR = .
[CONFIG] UNIT = angstrom
[CONFIG] VERBOSE = 3
[CONFIG] conf_file = None
[INPUT] verbose = 9
[INPUT] max_memory = 4000 
[INPUT] num. atoms = 15
[INPUT] num. electrons = 50
[INPUT] charge = 0
[INPUT] spin (= nelec alpha-beta = 2S) = 0
[INPUT] symmetry False subgroup None
[INPUT] Mole.unit = angstrom
[INPUT]  1 O      7.250284000000  -9.859627000000 -13.103456000000 AA   13.701051085316 -18.631994720367 -24.761943125289 Bohr
[INPUT]  2 O      6.966193000000  -9.247795000000 -10.274305000000 AA   13.164196900862 -17.475799806122 -19.415622570249 Bohr
[INPUT]  3 O      4.039142000000 -11.224262000000 -12.804410000000 AA    7.632872158228 -21.210781130363 -24.196828086642 Bohr
[INPUT]  4 O      4.641258000000  -8.138278000000 -12.671145000000 AA    8.770706493447 -15.379116545573 -23.944993734652 Bohr
[INPUT]  5 O      4.906964000000  -7.910014000000  -9.130039000000 AA    9.272818063100 -14.947760101475 -17.253273216598 Bohr
[INPUT]  6 H      7.120660000000 -10.221473000000 -13.980096000000 AA   13.456097226145 -19.315784559636 -26.418552635128 Bohr
[INPUT]  7 H      7.341484000000 -10.626744000000 -12.538261000000 AA   13.873394107876 -20.081635755865 -23.693879368315 Bohr
[INPUT]  8 H      6.975152000000  -9.845016000000 -11.022289000000 AA   13.181126957212 -18.604383931961 -20.829107475806 Bohr
[INPUT]  9 H      7.684375000000  -8.638472000000 -10.445098000000 AA   14.521364188455 -16.324346214724 -19.738374564242 Bohr
[INPUT] 10 H      4.524844000000 -12.047609000000 -12.755179000000 AA    8.550715916381 -22.766681465845 -24.103794979804 Bohr
[INPUT] 11 H      4.432119000000 -10.757539000000 -13.541956000000 AA    8.375491061481 -20.328802484328 -25.590588030911 Bohr
[INPUT] 12 H      4.597809000000  -7.272042000000 -12.266198000000 AA    8.688599783060 -13.742167746334 -23.179754809688 Bohr
[INPUT] 13 H      5.576498000000  -8.338407000000 -12.709967000000 AA   10.538053954185 -15.757305545156 -24.018356682260 Bohr
[INPUT] 14 H      4.063520000000  -8.026505000000  -9.567378000000 AA    7.678939901693 -15.167896187452 -18.079724150189 Bohr
[INPUT] 15 H      5.422730000000  -8.670974000000  -9.396791000000 AA   10.247474547463 -16.385766093224 -17.757361439778 Bohr
[INPUT] ---------------- BASIS SET ---------------- 
[INPUT] l, kappa, [nprim/nctr], expnt,             c_1 c_2 ...
[INPUT] H
[INPUT] 0    0    [3    /1   ]  18.731137         0.0334946
                                2.8253937         0.23472695
                                0.6401217         0.81375733
[INPUT] 0    0    [1    /1   ]  0.1612778            1
[INPUT] 1    0    [1    /1   ]  1.1                  1
[INPUT] O
[INPUT] 0    0    [6    /1   ]  5484.6717         0.0018311
                                825.23495         0.0139501
                                188.04696         0.0684451
                                52.9645           0.2327143
                                16.89757          0.470193
                                5.7996353         0.3585209
[INPUT] 0    0    [3    /1   ]  15.539616         -0.1107775
                                3.5999336         -0.1480263
                                1.0137618         1.130767
[INPUT] 0    0    [1    /1   ]  0.2700058            1
[INPUT] 1    0    [3    /1   ]  15.539616         0.0708743
                                3.5999336         0.3397528
                                1.0137618         0.7271586
[INPUT] 1    0    [1    /1   ]  0.2700058            1
[INPUT] 2    0    [1    /1   ]  0.8                  1

nuclear repulsion = 196.209270481667
number of shells = 60
number of NR pGTOs = 205
number of NR cGTOs = 120
basis = 6-31gss
ecp = {}
bas 0, expnt(s) = [5484.6717     825.23495    188.04696     52.9645      16.89757
    5.7996353]
bas 1, expnt(s) = [15.539616   3.5999336  1.0137618]
bas 2, expnt(s) = [0.2700058]
bas 3, expnt(s) = [15.539616   3.5999336  1.0137618]
bas 4, expnt(s) = [0.2700058]
bas 5, expnt(s) = [0.8]
bas 6, expnt(s) = [5484.6717     825.23495    188.04696     52.9645      16.89757
    5.7996353]
bas 7, expnt(s) = [15.539616   3.5999336  1.0137618]
bas 8, expnt(s) = [0.2700058]
bas 9, expnt(s) = [15.539616   3.5999336  1.0137618]
bas 10, expnt(s) = [0.2700058]
bas 11, expnt(s) = [0.8]
bas 12, expnt(s) = [5484.6717     825.23495    188.04696     52.9645      16.89757
    5.7996353]
bas 13, expnt(s) = [15.539616   3.5999336  1.0137618]
bas 14, expnt(s) = [0.2700058]
bas 15, expnt(s) = [15.539616   3.5999336  1.0137618]
bas 16, expnt(s) = [0.2700058]
bas 17, expnt(s) = [0.8]
bas 18, expnt(s) = [5484.6717     825.23495    188.04696     52.9645      16.89757
    5.7996353]
bas 19, expnt(s) = [15.539616   3.5999336  1.0137618]
bas 20, expnt(s) = [0.2700058]
bas 21, expnt(s) = [15.539616   3.5999336  1.0137618]
bas 22, expnt(s) = [0.2700058]
bas 23, expnt(s) = [0.8]
bas 24, expnt(s) = [5484.6717     825.23495    188.04696     52.9645      16.89757
    5.7996353]
bas 25, expnt(s) = [15.539616   3.5999336  1.0137618]
bas 26, expnt(s) = [0.2700058]
bas 27, expnt(s) = [15.539616   3.5999336  1.0137618]
bas 28, expnt(s) = [0.2700058]
bas 29, expnt(s) = [0.8]
bas 30, expnt(s) = [18.731137   2.8253937  0.6401217]
bas 31, expnt(s) = [0.1612778]
bas 32, expnt(s) = [1.1]
bas 33, expnt(s) = [18.731137   2.8253937  0.6401217]
bas 34, expnt(s) = [0.1612778]
bas 35, expnt(s) = [1.1]
bas 36, expnt(s) = [18.731137   2.8253937  0.6401217]
bas 37, expnt(s) = [0.1612778]
bas 38, expnt(s) = [1.1]
bas 39, expnt(s) = [18.731137   2.8253937  0.6401217]
bas 40, expnt(s) = [0.1612778]
bas 41, expnt(s) = [1.1]
bas 42, expnt(s) = [18.731137   2.8253937  0.6401217]
bas 43, expnt(s) = [0.1612778]
bas 44, expnt(s) = [1.1]
bas 45, expnt(s) = [18.731137   2.8253937  0.6401217]
bas 46, expnt(s) = [0.1612778]
bas 47, expnt(s) = [1.1]
bas 48, expnt(s) = [18.731137   2.8253937  0.6401217]
bas 49, expnt(s) = [0.1612778]
bas 50, expnt(s) = [1.1]
bas 51, expnt(s) = [18.731137   2.8253937  0.6401217]
bas 52, expnt(s) = [0.1612778]
bas 53, expnt(s) = [1.1]
bas 54, expnt(s) = [18.731137   2.8253937  0.6401217]
bas 55, expnt(s) = [0.1612778]
bas 56, expnt(s) = [1.1]
bas 57, expnt(s) = [18.731137   2.8253937  0.6401217]
bas 58, expnt(s) = [0.1612778]
bas 59, expnt(s) = [1.1]
CPU time:       805.31
arg.atm = [[ 8 20  1 23  0  0]
 [ 8 24  1 27  0  0]
 [ 8 28  1 31  0  0]
 [ 8 32  1 35  0  0]
 [ 8 36  1 39  0  0]
 [ 1 40  1 43  0  0]
 [ 1 44  1 47  0  0]
 [ 1 48  1 51  0  0]
 [ 1 52  1 55  0  0]
 [ 1 56  1 59  0  0]
 [ 1 60  1 63  0  0]
 [ 1 64  1 67  0  0]
 [ 1 68  1 71  0  0]
 [ 1 72  1 75  0  0]
 [ 1 76  1 79  0  0]]
arg.bas = [[  0   0   6   1   0  90  96   0]
 [  0   0   3   1   0 102 105   0]
 [  0   0   1   1   0 108 109   0]
 [  0   1   3   1   0 110 113   0]
 [  0   1   1   1   0 116 117   0]
 [  0   2   1   1   0 118 119   0]
 [  1   0   6   1   0  90  96   0]
 [  1   0   3   1   0 102 105   0]
 [  1   0   1   1   0 108 109   0]
 [  1   1   3   1   0 110 113   0]
 [  1   1   1   1   0 116 117   0]
 [  1   2   1   1   0 118 119   0]
 [  2   0   6   1   0  90  96   0]
 [  2   0   3   1   0 102 105   0]
 [  2   0   1   1   0 108 109   0]
 [  2   1   3   1   0 110 113   0]
 [  2   1   1   1   0 116 117   0]
 [  2   2   1   1   0 118 119   0]
 [  3   0   6   1   0  90  96   0]
 [  3   0   3   1   0 102 105   0]
 [  3   0   1   1   0 108 109   0]
 [  3   1   3   1   0 110 113   0]
 [  3   1   1   1   0 116 117   0]
 [  3   2   1   1   0 118 119   0]
 [  4   0   6   1   0  90  96   0]
 [  4   0   3   1   0 102 105   0]
 [  4   0   1   1   0 108 109   0]
 [  4   1   3   1   0 110 113   0]
 [  4   1   1   1   0 116 117   0]
 [  4   2   1   1   0 118 119   0]
 [  5   0   3   1   0  80  83   0]
 [  5   0   1   1   0  86  87   0]
 [  5   1   1   1   0  88  89   0]
 [  6   0   3   1   0  80  83   0]
 [  6   0   1   1   0  86  87   0]
 [  6   1   1   1   0  88  89   0]
 [  7   0   3   1   0  80  83   0]
 [  7   0   1   1   0  86  87   0]
 [  7   1   1   1   0  88  89   0]
 [  8   0   3   1   0  80  83   0]
 [  8   0   1   1   0  86  87   0]
 [  8   1   1   1   0  88  89   0]
 [  9   0   3   1   0  80  83   0]
 [  9   0   1   1   0  86  87   0]
 [  9   1   1   1   0  88  89   0]
 [ 10   0   3   1   0  80  83   0]
 [ 10   0   1   1   0  86  87   0]
 [ 10   1   1   1   0  88  89   0]
 [ 11   0   3   1   0  80  83   0]
 [ 11   0   1   1   0  86  87   0]
 [ 11   1   1   1   0  88  89   0]
 [ 12   0   3   1   0  80  83   0]
 [ 12   0   1   1   0  86  87   0]
 [ 12   1   1   1   0  88  89   0]
 [ 13   0   3   1   0  80  83   0]
 [ 13   0   1   1   0  86  87   0]
 [ 13   1   1   1   0  88  89   0]
 [ 14   0   3   1   0  80  83   0]
 [ 14   0   1   1   0  86  87   0]
 [ 14   1   1   1   0  88  89   0]]
arg.env = [ 1.37036000e+02  0.00000000e+00  0.00000000e+00  0.00000000e+00
  0.00000000e+00  0.00000000e+00  0.00000000e+00  0.00000000e+00
  0.00000000e+00  0.00000000e+00  0.00000000e+00  0.00000000e+00
  0.00000000e+00  0.00000000e+00  0.00000000e+00  0.00000000e+00
  0.00000000e+00  0.00000000e+00  0.00000000e+00  0.00000000e+00
  1.37010511e+01 -1.86319947e+01 -2.47619431e+01  0.00000000e+00
  1.31641969e+01 -1.74757998e+01 -1.94156226e+01  0.00000000e+00
  7.63287216e+00 -2.12107811e+01 -2.41968281e+01  0.00000000e+00
  8.77070649e+00 -1.53791165e+01 -2.39449937e+01  0.00000000e+00
  9.27281806e+00 -1.49477601e+01 -1.72532732e+01  0.00000000e+00
  1.34560972e+01 -1.93157846e+01 -2.64185526e+01  0.00000000e+00
  1.38733941e+01 -2.00816358e+01 -2.36938794e+01  0.00000000e+00
  1.31811270e+01 -1.86043839e+01 -2.08291075e+01  0.00000000e+00
  1.45213642e+01 -1.63243462e+01 -1.97383746e+01  0.00000000e+00
  8.55071592e+00 -2.27666815e+01 -2.41037950e+01  0.00000000e+00
  8.37549106e+00 -2.03288025e+01 -2.55905880e+01  0.00000000e+00
  8.68859978e+00 -1.37421677e+01 -2.31797548e+01  0.00000000e+00
  1.05380540e+01 -1.57573055e+01 -2.40183567e+01  0.00000000e+00
  7.67893990e+00 -1.51678962e+01 -1.80797242e+01  0.00000000e+00
  1.02474745e+01 -1.63857661e+01 -1.77573614e+01  0.00000000e+00
  1.87311370e+01  2.82539370e+00  6.40121700e-01  7.61926220e-01
  1.29237100e+00  1.47131900e+00  1.61277800e-01  6.42977783e-01
  1.10000000e+00  3.28643653e+00  5.48467170e+03  8.25234950e+02
  1.88046960e+02  5.29645000e+01  1.68975700e+01  5.79963530e+00
  2.94842455e+00  5.42657124e+00  8.78126489e+00  1.15432129e+01
  9.90055015e+00  3.38516599e+00  1.55396160e+01  3.59993360e+00
  1.01376180e+00 -2.19051792e+00 -9.77405528e-01  2.88629094e+00
  2.70005800e-01  9.46334873e-01  1.55396160e+01  3.59993360e+00
  1.01376180e+00  6.37930734e+00  4.91490975e+00  2.15791055e+00
  2.70005800e-01  5.67807022e-01  8.00000000e-01  1.76578110e+00]
ecpbas  = []


******** <class 'pyscf.qmmm.itrf.mm_charge.<locals>.QMMM'> ********
method = QMMM-RHF
initial guess = minao
damping factor = 0
level shift factor = 0
DIIS = <class 'pyscf.scf.diis.CDIIS'>
DIIS start cycle = 1
DIIS space = 8
SCF tol = 1e-09
SCF gradient tol = None
max. SCF cycles = 50
direct_scf = True
direct_scf_tol = 1e-13
chkfile to save SCF result = /home/liwei01/wsr/dftpart/test_2body/w32/tmpoq7cbh_w
max_memory 4000 MB (current use 332 MB)
** Add background charges for <class 'pyscf.scf.hf.RHF'> **
Charge      Location
-1.056075    [ 15.8591958  -22.32322322 -21.16584533]
0.523264    [ 15.44903263 -23.69303655 -20.05800473]
0.517699    [ 17.48403712 -21.75849557 -20.60647128]
-1.035697    [ 20.23144001 -20.50137794 -19.07019386]
0.520608    [ 21.7723038  -21.39222885 -18.74761761]
0.515624    [ 19.97024207 -19.49608333 -17.58928542]
-1.009926    [ 16.42785407 -26.58707085 -18.04142885]
0.499922    [ 15.53371882 -25.95112132 -16.60336995]
0.507893    [ 16.16245338 -28.37548309 -17.98600129]
-1.050024    [ 10.52651529 -24.11298283 -20.2839555 ]
0.521386    [  8.7734466  -24.2410798  -19.85703047]
0.506414    [ 11.30765248 -23.44237383 -18.79666545]
-1.052762    [ 13.11969196 -22.35429031 -15.81898054]
0.521035    [ 14.16458201 -22.84877684 -14.42771692]
0.525545    [ 13.80909996 -20.77345693 -16.36451423]
-1.002885    [ 18.40539199 -27.51482622 -24.72543362]
0.521542    [ 17.83274639 -26.30664305 -23.50711585]
0.49877    [ 20.13069872 -27.06649815 -25.03241585]
-1.054902    [ 19.05772167 -18.14703431 -25.87868434]
0.517977    [ 18.59105569 -18.66655214 -27.54728983]
0.522623    [ 17.51229609 -18.19498233 -24.93991564]
-0.997115    [ 17.90283445 -15.11249509 -20.63210731]
0.530073    [ 18.89257472 -16.62132612 -20.50652934]
0.49195    [ 18.18557149 -14.25298717 -19.06582671]
-1.032188    [ 15.97118286 -20.09833149 -29.6421136 ]
0.47982    [ 15.3540909  -19.66610766 -31.28659296]
0.534069    [ 17.50300052 -21.00734455 -29.95701189]
-1.012936    [ 10.55365553 -29.46492154 -21.67488842]
0.504954    [  8.84108934 -29.00412127 -22.03084479]
0.525721    [ 11.34418277 -27.91794449 -21.17105153]
-0.985176    [ 16.63195772 -23.48150439 -12.27810621]
0.500614    [ 17.11266814 -22.20236011 -11.09293235]
0.508291    [ 16.89319913 -25.03868407 -11.39557387]
-0.979947    [ 19.94097588 -17.12125506 -14.67509908]
0.500341    [ 18.95312155 -17.86288753 -13.35371942]
0.493696    [ 19.00620207 -15.6543646  -15.17143564]
-0.982261    [ 16.04742575 -26.75780005 -29.6895325 ]
0.479882    [ 16.71262824 -28.42851069 -29.88488293]
0.495008    [ 16.8532352  -26.12000803 -28.20097066]
-0.983713    [ 20.17321188 -22.53529584 -29.89394228]
0.505479    [ 21.06170253 -23.16751127 -28.4507471 ]
0.512532    [ 20.35114661 -23.83370776 -31.14069287]
-1.011239    [ 14.66303696 -31.18986921 -25.03135193]
0.492592    [ 13.80996545 -30.6346091  -23.53606456]
0.497341    [ 16.13314373 -30.14067248 -25.13086491]
-0.999332    [ 25.43111026 -22.24828235 -18.47023794]
0.512801    [ 26.28398524 -20.77981964 -19.09325419]
0.507583    [ 26.7410892  -23.47726762 -18.25698991]
-1.016163    [ 10.56617686 -29.35403808 -16.44102735]
0.483053    [ 11.92280935 -30.36927076 -15.8079521 ]
0.523726    [ 10.34862781 -29.90290525 -18.15080431]
-0.976012    [ 10.09067452 -21.18806662 -29.24260093]
0.486289    [ 11.11173701 -19.76402949 -29.69146191]
0.496485    [ 10.37375928 -22.38512875 -30.56881072]
-0.977833    [ 24.5589393  -27.80514674 -21.18389789]
0.50587    [ 23.21796885 -28.65180829 -20.31390388]
0.463809    [ 25.76766104 -27.42438582 -19.8931866 ]
-0.992057    [ 16.93410036 -32.15697813 -17.52810554]
0.50918    [ 16.39069828 -32.53931319 -15.84570882]
0.510293    [ 15.6895513  -32.92540692 -18.59231236]
-0.998393    [ 24.35861321 -18.31258187 -25.98586582]
0.466984    [ 25.48944989 -18.60606579 -24.60492389]
0.51604    [ 22.70911474 -18.4111103  -25.25008395]
-0.991473    [  5.5836248  -24.00414405 -18.66237963]
0.501887    [  5.79022289 -25.52045085 -17.69798247]
0.510487    [  5.17491673 -22.73885336 -17.43603619]
-1.029267    [  7.95719829 -25.19119252 -14.2761212 ]
0.497876    [  9.38018663 -24.0850659  -14.1227926 ]
0.519667    [  8.66153702 -26.76190075 -14.83174226]
-1.001943    [ 16.13613705 -11.83176802 -24.46883904]
0.509813    [ 16.78082846 -12.94299123 -23.1954641 ]
0.477312    [ 17.5304658  -11.57071369 -25.59117007]
-1.019724    [ 21.67798379 -29.0173418  -14.20699124]
0.475311    [ 20.53074618 -29.01816194 -15.60548117]
0.514632    [ 22.50198564 -27.40961194 -14.29731259]
-0.9959    [ 24.21450458 -24.60133719 -13.9203349 ]
0.499354    [ 23.58737251 -23.46499007 -12.66043371]
0.511038    [ 23.91476757 -23.75039163 -15.48812918]
-1.001922    [ 21.40011279 -32.14724982 -20.33868764]
0.487648    [ 22.14106118 -33.75675602 -19.97480576]
0.509505    [ 19.73399418 -32.24696878 -19.64152988]
Set gradient conv threshold to 3.16228e-05
Nelec from initial guess = 49.94492789084398
cond(S) = 142.58715097504245
E1 = -905.4283632554694  E_coul = 332.6596195189412
init E= -379.363742048092
    CPU time for initialize scf      2.36 sec, wall time      0.31 sec
  HOMO = -0.383119041500834  LUMO = 0.112892376913288
  mo_energy =
[-20.80356859 -20.78243359 -20.75157021 -20.71650918 -20.71160613
  -1.63936117  -1.59547157  -1.57221552  -1.53279025  -1.52186699
  -0.76750209  -0.73776701  -0.70685498  -0.66430348  -0.65645306
  -0.60266126  -0.55803515  -0.54036354  -0.50719693  -0.49644148
  -0.48439846  -0.45444597  -0.42706035  -0.40287567  -0.38311904
   0.11289238   0.17359959   0.19307247   0.23166009   0.26988096
   0.29725731   0.31002591   0.32846458   0.36715827   0.43290691
   0.93045794   0.93973018   0.96030408   0.96875382   0.99585819
   1.0028178    1.0426038    1.04758835   1.06580245   1.07081338
   1.0922116    1.10500081   1.11836364   1.13141498   1.16630791
   1.18008624   1.20334865   1.21623011   1.22801531   1.25461137
   1.28302923   1.29133036   1.31022792   1.33431101   1.38093395
   1.5347507    1.55471474   1.61248053   1.65091485   1.69230611
   1.73220713   1.74152317   1.75509127   1.77319253   1.78717212
   1.79264755   1.8098076    1.81497543   1.82269885   1.82693501
   1.86889963   1.8939529    1.91649935   1.92785236   1.972882
   2.51026115   2.52479722   2.54063502   2.57378916   2.5865903
   2.59265226   2.62208374   2.62817932   2.66721952   2.68530624
   2.73334398   2.76056029   2.78754215   2.83914568   2.86047674
   2.92935071   2.95043219   2.95989433   2.9814379    2.9923965
   3.00921618   3.01298925   3.02129236   3.04207371   3.05569749
   3.33643509   3.37731844   3.38208211   3.42366405   3.44687018
   3.71032987   3.76151399   3.77190544   3.80255228   3.82189999
   3.85962383   3.92017468   3.94411763   3.95120743   4.00032404]
E1 = -917.9147476187951  E_coul = 344.49789553381044
cycle= 1 E= -380.011850396548  delta_E= -0.648  |g|= 0.983  |ddm|= 2.63
    CPU time for cycle= 1      0.30 sec, wall time      0.04 sec
diis-norm(errvec)=1.78896
diis-c [-3.20038131  1.        ]
  HOMO = -0.313548079937326  LUMO = 0.228901131911686
  mo_energy =
[-20.33790493 -20.33536427 -20.24710019 -20.23466326 -20.21076067
  -1.28122779  -1.26883965  -1.19909318  -1.19684867  -1.17125673
  -0.6721831   -0.63550103  -0.59400529  -0.58440861  -0.55285762
  -0.50382009  -0.48574901  -0.43507813  -0.42358884  -0.41446838
  -0.40871275  -0.38804593  -0.34737225  -0.34023451  -0.31354808
   0.22890113   0.28418401   0.29790589   0.34222516   0.34606543
   0.35871469   0.43674287   0.44600382   0.45324589   0.49229208
   1.00481784   1.05810957   1.09115065   1.09563498   1.10881547
   1.11880824   1.13352541   1.16099021   1.17762963   1.18258148
   1.25036213   1.25655983   1.27904622   1.30617094   1.31266137
   1.34470371   1.36591944   1.37705744   1.38672139   1.40323675
   1.43440308   1.46578092   1.4785658    1.49126142   1.51519155
   1.65486822   1.70543928   1.75321275   1.79155686   1.8357865
   1.84621972   1.86205736   1.88139887   1.90493849   1.91591255
   1.93304057   1.94823368   1.96268065   1.97171787   1.98126997
   2.00351434   2.04525559   2.06195033   2.07167592   2.12113355
   2.56246966   2.58491778   2.63712766   2.65300389   2.66044395
   2.66507321   2.67838657   2.72813245   2.7360661    2.75934688
   2.82893205   2.89980732   2.91946497   2.93552573   2.95800859
   3.00020661   3.01616981   3.01992788   3.03504423   3.06130201
   3.06909873   3.08434329   3.09331107   3.10777082   3.16800741
   3.41523951   3.42919275   3.47938794   3.48867982   3.494091
   3.79894812   3.81413954   3.86419749   3.87508713   3.88420217
   3.99446735   4.03817753   4.07270377   4.08437995   4.1007225 ]
E1 = -910.1156055078311  E_coul = 336.5554556130611
cycle= 2 E= -380.155148206333  delta_E= -0.143  |g|= 0.481  |ddm|= 0.787
    CPU time for cycle= 2      0.31 sec, wall time      0.04 sec
diis-norm(errvec)=0.804798
diis-c [-0.14311262  0.28889271  0.71110729]
  HOMO = -0.406969697207427  LUMO = 0.224302779649237
  mo_energy =
[-20.57369535 -20.56265516 -20.52368709 -20.51699645 -20.49442041
  -1.34470255  -1.32750342  -1.28948522  -1.27957474  -1.25354842
  -0.71582838  -0.68146376  -0.66541372  -0.64547547  -0.61551966
  -0.57287249  -0.55485954  -0.52006322  -0.50670199  -0.49407561
  -0.48607234  -0.47843804  -0.44354628  -0.43235114  -0.4069697
   0.22430278   0.27493947   0.28870951   0.32950277   0.34296539
   0.35522329   0.41820007   0.43001156   0.43928632   0.4757327
   0.98697168   1.03383637   1.05781036   1.0802369    1.09384593
   1.09733559   1.10881312   1.12122372   1.13744667   1.1436826
   1.19575617   1.20679888   1.21701503   1.23311226   1.24874432
   1.28735592   1.3113772    1.31625418   1.3279572    1.34237021
   1.3714001    1.40469087   1.42217421   1.43270113   1.45060435
   1.61443714   1.6572386    1.70088993   1.74528224   1.78634003
   1.81268422   1.83601109   1.84397891   1.86147817   1.87273823
   1.88635388   1.89540181   1.90914835   1.92143511   1.94231349
   1.94828366   1.99067618   2.01684175   2.02389574   2.05741639
   2.56624107   2.57562219   2.6178469    2.64287029   2.64858292
   2.66202054   2.67104665   2.68269797   2.6853113    2.70649787
   2.79979712   2.86514248   2.88389207   2.88804944   2.91655909
   2.99176888   3.00061932   3.01578477   3.02662334   3.03457963
   3.04639098   3.06245112   3.07219407   3.08704767   3.1272266
   3.4036017    3.42308756   3.44988279   3.45658899   3.47145009
   3.7885779    3.79501663   3.82268872   3.84321715   3.8551437
   3.95834207   3.99409326   4.0223705    4.03028238   4.04993566]
E1 = -913.5948362664482  E_coul = 339.9945861509637
cycle= 3 E= -380.195248427048  delta_E= -0.0401  |g|= 0.0696  |ddm|= 0.314
    CPU time for cycle= 3      0.30 sec, wall time      0.04 sec
diis-norm(errvec)=0.129893
diis-c [-0.0078046  -0.02176289  0.07124682  0.95051607]
  HOMO = -0.394407468214724  LUMO = 0.231218007649636
  mo_energy =
[-20.54322403 -20.52821591 -20.49283563 -20.48212199 -20.45410503
  -1.33108324  -1.3111378   -1.2784263   -1.26605993  -1.23752608
  -0.70237819  -0.66742995  -0.65571038  -0.6334171   -0.60139086
  -0.56293332  -0.54298113  -0.51174928  -0.49692605  -0.48426691
  -0.47346787  -0.46634996  -0.43494454  -0.42195069  -0.39440747
   0.23121801   0.28077164   0.29477228   0.33509776   0.35059981
   0.36361025   0.42472784   0.43636267   0.44649672   0.48358998
   0.99466442   1.04227741   1.06524041   1.08919092   1.10339768
   1.10817056   1.12025021   1.13097769   1.14721873   1.15489691
   1.20603869   1.21607646   1.22573142   1.24186329   1.25776111
   1.29718226   1.32174834   1.32402603   1.33804805   1.35178377
   1.38121473   1.41515383   1.43117917   1.44247885   1.45940412
   1.62626595   1.66779976   1.71309487   1.75583248   1.79603372
   1.82426456   1.84968769   1.85500093   1.87209633   1.88331906
   1.89571324   1.90624978   1.91972352   1.93314062   1.95404443
   1.95683292   2.00068398   2.02867338   2.03593964   2.06564319
   2.57886645   2.58783997   2.62904987   2.6537021    2.65864153
   2.67282332   2.68309352   2.69352787   2.69740654   2.71503403
   2.81286132   2.87601808   2.89751282   2.89886696   2.92993719
   3.00375349   3.01141066   3.02833524   3.03882076   3.0429843
   3.05625705   3.07181753   3.08375699   3.09835977   3.13330231
   3.41464848   3.43586959   3.45707078   3.46590103   3.48290373
   3.80395338   3.81099428   3.83396769   3.85724198   3.8702726
   3.97133711   4.00598882   4.03530491   4.04270258   4.06178335]
E1 = -913.1983417189101  E_coul = 339.5970021130736
cycle= 4 E= -380.1963379174  delta_E= -0.00109  |g|= 0.0114  |ddm|= 0.0434
    CPU time for cycle= 4      0.29 sec, wall time      0.04 sec
diis-norm(errvec)=0.0235176
diis-c [-1.48504957e-04 -1.00949632e-02 -4.05537744e-02 -1.58592006e-01
  1.20924074e+00]
  HOMO = -0.396693247078569  LUMO = 0.231219038863034
  mo_energy =
[-20.54323416 -20.52965365 -20.4930273  -20.48478863 -20.45800969
  -1.33114174  -1.31151025  -1.27884952  -1.26731785  -1.23925546
  -0.7018927   -0.66710576  -0.65554971  -0.63385328  -0.60214189
  -0.56289506  -0.5431046   -0.51200455  -0.49779027  -0.48486925
  -0.47446841  -0.4674927   -0.43592556  -0.42376109  -0.39669325
   0.23121904   0.28068398   0.29491685   0.33500007   0.35048955
   0.36404611   0.42485584   0.4366448    0.44668521   0.48377393
   0.9948982    1.04199718   1.06506281   1.08913086   1.10316502
   1.10833995   1.11998716   1.13085704   1.14705805   1.15455939
   1.20522888   1.21537055   1.2255148    1.24100125   1.25725081
   1.29708505   1.3215137    1.32325192   1.33746573   1.35169811
   1.38092458   1.41482445   1.43125064   1.44215351   1.45911797
   1.62594545   1.66767951   1.71206577   1.7556014    1.79581786
   1.82455726   1.84983826   1.85509618   1.87208485   1.88298385
   1.89541602   1.90572103   1.91916933   1.93239278   1.95408754
   1.95675969   2.00001831   2.02775458   2.03583671   2.06565598
   2.57937825   2.58822045   2.62924577   2.65400275   2.6586553
   2.67310369   2.68302925   2.69319889   2.6967006    2.71505897
   2.81340591   2.87614815   2.89799496   2.89879783   2.92951832
   3.00432008   3.01201112   3.02895725   3.03909017   3.04309128
   3.05626752   3.07160553   3.08350907   3.09810101   3.1335375
   3.41528591   3.43647033   3.45735754   3.46593268   3.48276257
   3.80445216   3.81150775   3.8341688    3.85702397   3.86985171
   3.97201033   4.00642888   4.03522097   4.04274331   4.06197212]
E1 = -913.2119426617186  E_coul = 339.61054680755933
cycle= 5 E= -380.196394165723  delta_E= -5.62e-05  |g|= 0.00218  |ddm|= 0.0141
    CPU time for cycle= 5      0.30 sec, wall time      0.04 sec
diis-norm(errvec)=0.0040455
diis-c [-1.16029235e-05  1.36551210e-03  3.08439831e-03 -8.24734003e-03
 -9.84855658e-02  1.10228300e+00]
  HOMO = -0.396404491691632  LUMO = 0.23113414781866
  mo_energy =
[-20.54430602 -20.52941252 -20.49426668 -20.48414873 -20.4565043
  -1.33152563  -1.31149962  -1.27935672  -1.26719079  -1.23881849
  -0.70199308  -0.6670903   -0.65584818  -0.63363246  -0.60165451
  -0.56326974  -0.54317769  -0.51251406  -0.49777467  -0.48535426
  -0.47440169  -0.46728754  -0.43652906  -0.42380066  -0.39640449
   0.23113415   0.28063535   0.29484001   0.33493303   0.35055351
   0.36407165   0.42481244   0.43658398   0.44670774   0.483686
   0.99467215   1.04194939   1.06483262   1.08894319   1.10309549
   1.10827096   1.119805     1.13069626   1.1467975    1.15450098
   1.20518403   1.21539587   1.22533107   1.24091533   1.25715329
   1.29705937   1.32130694   1.32310294   1.33752384   1.35149267
   1.38093265   1.41495013   1.43100215   1.44213622   1.45908333
   1.62592007   1.66741047   1.71231142   1.75546413   1.79565833
   1.82425784   1.8498055    1.85488822   1.87189722   1.88289399
   1.89523387   1.90570349   1.91920526   1.9326       1.95393099
   1.95641038   2.00006374   2.02800312   2.03584205   2.06523611
   2.57919565   2.58810894   2.62911393   2.65383576   2.65857715
   2.67293345   2.6830669    2.69317702   2.6968861    2.71472636
   2.81316794   2.87594174   2.89787843   2.89868086   2.92968323
   3.00419329   3.01182283   3.02885801   3.03906377   3.04290214
   3.05625636   3.07157622   3.08365937   3.09818027   3.13314159
   3.41510156   3.43641886   3.45706188   3.4658908    3.48287996
   3.80426629   3.81141781   3.83385107   3.85707161   3.87000515
   3.97177062   4.00620974   4.03530354   4.04273265   4.06186794]
E1 = -913.2092077248844  E_coul = 339.60780999396854
cycle= 6 E= -380.196396042479  delta_E= -1.88e-06  |g|= 0.00095  |ddm|= 0.00283
    CPU time for cycle= 6      0.30 sec, wall time      0.04 sec
diis-norm(errvec)=0.00167779
diis-c [-9.48801077e-07  1.22338438e-03  4.40668345e-03  9.64473269e-03
 -1.22799040e-01  2.69727574e-01  8.37796666e-01]
  HOMO = -0.396671488156768  LUMO = 0.231128907805873
  mo_energy =
[-20.54375201 -20.52943013 -20.4936838  -20.48439783 -20.45711436
  -1.33137937  -1.31149989  -1.2791911   -1.26729661  -1.23903921
  -0.70188216  -0.66701043  -0.65570328  -0.63368106  -0.60178742
  -0.56316052  -0.54318017  -0.51238626  -0.49787199  -0.48524743
  -0.47450952  -0.46745609  -0.43641194  -0.42393763  -0.39667149
   0.23112891   0.2806368    0.29484749   0.33493059   0.35052318
   0.36408799   0.42481145   0.43658873   0.44669058   0.48371394
   0.99470919   1.04189937   1.06485473   1.08895123   1.10306718
   1.10826193   1.11982946   1.1307067    1.14683551   1.15447785
   1.20511204   1.21530838   1.22534252   1.24085511   1.25712123
   1.29704197   1.32134734   1.32307575   1.33745035   1.3515475
   1.38088395   1.41487568   1.4310624    1.44210943   1.45905739
   1.62591663   1.66749343   1.71218441   1.75549026   1.79567416
   1.82433229   1.84979269   1.85492504   1.87192108   1.88286506
   1.89524071   1.90565206   1.91912873   1.93245452   1.95396624
   1.95650289   1.99997759   2.02784686   2.03581733   2.06534156
   2.57923574   2.58811446   2.62911343   2.65385154   2.65854764
   2.67295027   2.68301834   2.69311525   2.69674185   2.71478936
   2.81322538   2.87595932   2.89789326   2.89865442   2.92955792
   3.00421506   3.01185613   3.0288674    3.03905442   3.04294169
   3.05620997   3.07152204   3.08355893   3.09809789   3.13319485
   3.41513734   3.4364165    3.45710548   3.46584329   3.48278388
   3.80431512   3.81143026   3.83392143   3.85700377   3.86990075
   3.9718313    4.00624996   4.03521256   4.04268276   4.0618572 ]
E1 = -913.2080984278167  E_coul = 339.6067004530473
cycle= 7 E= -380.196396286333  delta_E= -2.44e-07  |g|= 0.000186  |ddm|= 0.000878
    CPU time for cycle= 7      0.30 sec, wall time      0.04 sec
diis-norm(errvec)=0.000346687
diis-c [-2.89538613e-08 -2.00575298e-04 -5.10919891e-04 -1.06262828e-03
  1.83800563e-02 -1.11152654e-01 -6.35934881e-02  1.15814021e+00]
  HOMO = -0.396660748466158  LUMO = 0.231126711748852
  mo_energy =
[-20.54379299 -20.52939785 -20.49372744 -20.48434708 -20.45701724
  -1.33139331  -1.31149148  -1.27921236  -1.26728689  -1.23901484
  -0.7018757   -0.66699572  -0.65570817  -0.63366076  -0.6017561
  -0.56317648  -0.54318067  -0.51241495  -0.49787243  -0.48527102
  -0.47450587  -0.46744531  -0.43644751  -0.4239442   -0.39666075
   0.23112671   0.28063552   0.29485105   0.33492886   0.35052868
   0.36409724   0.4248182    0.43659379   0.44670243   0.48371422
   0.9947094    1.04190579   1.06485001   1.0889525    1.10307067
   1.10827255   1.11982422   1.13070746   1.1468275    1.15447869
   1.2051122    1.21531393   1.22534109   1.2408539    1.2571215
   1.29705131   1.32134411   1.32307241   1.33745908   1.35154401
   1.38089368   1.41489435   1.4310641    1.44211663   1.45906311
   1.6259236    1.66748886   1.71220191   1.75549059   1.79567283
   1.82432524   1.84980073   1.85492351   1.87191856   1.88286541
   1.89523613   1.90565502   1.91913458   1.93246973   1.95396457
   1.95648647   1.99998366   2.0278629    2.03582372   2.06532819
   2.57923747   2.58811801   2.62911692   2.653854     2.65855141
   2.67295198   2.68302419   2.69312077   2.69675695   2.71477857
   2.813225     2.87595902   2.89789979   2.898658     2.92957428
   3.00421785   3.01185941   3.02887642   3.039057     3.04292961
   3.05621487   3.07152498   3.0835686    3.09810828   3.13319273
   3.41513875   3.43642563   3.45710081   3.46584911   3.48279678
   3.80431778   3.81144145   3.83391466   3.85701388   3.86991517
   3.97183285   4.00625121   4.03522715   4.04269224   4.06186082]
E1 = -913.2077449387716  E_coul = 339.6063469493504
cycle= 8 E= -380.196396300985  delta_E= -1.47e-08  |g|= 2.46e-05  |ddm|= 0.00026
    CPU time for cycle= 8      0.30 sec, wall time      0.04 sec
diis-norm(errvec)=4.67702e-05
diis-c [-1.00814650e-09 -3.91905876e-05 -1.37374098e-04 -3.55944000e-04
  3.97580606e-03 -7.84563133e-03 -2.70086005e-02 -2.41795127e-02
  1.05559045e+00]
  HOMO = -0.396660641906479  LUMO = 0.231127207833057
  mo_energy =
[-20.5437832  -20.52939413 -20.49372074 -20.48434464 -20.45701665
  -1.33138922  -1.31148999  -1.27921043  -1.26728618  -1.23901384
  -0.70187118  -0.66699198  -0.65570491  -0.63365831  -0.60175364
  -0.56317405  -0.54317925  -0.51241333  -0.49787264  -0.48526793
  -0.47450541  -0.4674454   -0.43644629  -0.4239444   -0.39666064
   0.23112721   0.28063615   0.29485119   0.33492981   0.3505292
   0.36409875   0.42481886   0.43659469   0.44670253   0.48371642
   0.9947111    1.04190587   1.06485113   1.0889532    1.10307152
   1.10827218   1.1198258    1.13070808   1.14682861   1.15447946
   1.20511188   1.21531403   1.22534145   1.24085423   1.25712223
   1.29705273   1.32134646   1.32307274   1.33746046   1.35154644
   1.38089446   1.41489545   1.4310659    1.44211836   1.4590648
   1.62592446   1.66749072   1.71220241   1.7554919    1.79567387
   1.82432774   1.84980131   1.85492474   1.87191988   1.88286624
   1.89523687   1.90565589   1.91913518   1.9324702    1.95396685
   1.95648872   1.99998384   2.02786335   2.03582459   2.06532956
   2.57923936   2.58812012   2.62911796   2.65385511   2.65855212
   2.67295322   2.68302516   2.69312121   2.69675754   2.71478008
   2.81322782   2.8759602    2.8979014    2.89865892   2.9295751
   3.00421995   3.01186068   3.02887662   3.0390593    3.04293247
   3.05621587   3.07152512   3.08357003   3.09810815   3.13319175
   3.41514149   3.43642702   3.45710188   3.46584971   3.48279764
   3.80432022   3.81144223   3.83391637   3.85701476   3.86991593
   3.97183527   4.00625272   4.03522788   4.04269382   4.06186285]
E1 = -913.2077034973483  E_coul = 339.6063055076203
cycle= 9 E= -380.196396301291  delta_E= -3.07e-10  |g|= 6.97e-06  |ddm|= 3.75e-05
    CPU time for cycle= 9      0.32 sec, wall time      0.04 sec
  HOMO = -0.396660127817831  LUMO = 0.231126933928239
  mo_energy =
[-20.54378541 -20.5293953  -20.49372153 -20.48434535 -20.45701682
  -1.3313898   -1.3114904   -1.27921039  -1.26728619  -1.23901362
  -0.7018717   -0.66699245  -0.6557049   -0.63365832  -0.60175358
  -0.56317465  -0.54317975  -0.51241358  -0.49787293  -0.48526801
  -0.47450558  -0.4674456   -0.43644606  -0.42394419  -0.39666013
   0.23112693   0.28063593   0.29485103   0.33492969   0.35052897
   0.36409837   0.42481884   0.43659462   0.44670245   0.48371604
   0.99471078   1.04190576   1.06485102   1.08895298   1.10307128
   1.10827186   1.11982543   1.13070776   1.14682819   1.15447905
   1.20511164   1.21531388   1.22534129   1.24085431   1.25712203
   1.29705252   1.32134616   1.32307273   1.33746031   1.35154624
   1.38089427   1.41489533   1.43106576   1.44211808   1.45906459
   1.62592419   1.6674905    1.71220244   1.75549173   1.79567381
   1.82432729   1.84980092   1.85492449   1.87191969   1.88286611
   1.89523688   1.90565587   1.91913512   1.93247023   1.95396642
   1.95648863   1.99998382   2.02786343   2.03582427   2.06532951
   2.57923887   2.58811965   2.62911771   2.65385486   2.65855195
   2.67295292   2.68302499   2.6931211    2.69675753   2.71478004
   2.81322725   2.87596007   2.89790093   2.89865884   2.92957501
   3.00421946   3.01186036   3.02887618   3.03905881   3.04293226
   3.05621564   3.07152505   3.08356985   3.09810811   3.13319204
   3.41514098   3.43642655   3.45710193   3.46584959   3.48279753
   3.80431962   3.8114417    3.83391623   3.85701453   3.86991577
   3.9718348    4.00625249   4.0352277    4.04269363   4.06186255]
E1 = -913.2077187694766  E_coul = 339.6063207797189
Extra cycle  E= -380.196396301321  delta_E= -2.97e-11  |g|= 3.28e-06  |ddm|= 1.14e-05
    CPU time for scf_cycle      5.38 sec, wall time      0.68 sec
    CPU time for SCF      5.41 sec, wall time      0.71 sec
converged SCF energy = -380.196396301321
