#INFO: **** input file is /home/liwei01/wsr/dftpart/test_2body/w32/gfea_c8.py ****
from dftpart import gfea3
from pyscf import lib

par = 8
with lib.with_omp_threads(par):
    fr0 = gfea3.GFEA()
    fr0.inputstyle = 'frg'
    fr0.method = ['hf', '6-31gss','charge']
    fr0.gjfname = 'w32'
    fr0.output = 'w32'
    fr0.verbose = 9
    fr0.showinter = True
    #fr0.do_deriv = True
    fr0.kernel()

#INFO: ******************** input file end ********************


System: uname_result(system='Linux', node='master', release='3.10.0-693.el7.x86_64', version='#1 SMP Tue Aug 22 21:09:27 UTC 2017', machine='x86_64', processor='x86_64')  Threads 8
Python 3.7.6 (default, Jan  8 2020, 19:59:22) 
[GCC 7.3.0]
numpy 1.18.1  scipy 1.4.1
Date: Tue Jun 16 20:57:47 2020
PySCF version 1.6.1
PySCF path  /home/liwei01/zcheng/pyscf/pyscf
GIT HEAD      ref: refs/heads/master
GIT master branch  3adc7fd25839fe674469a52b764c3661e32d7318

[CONFIG] DEBUG = False
[CONFIG] MAX_MEMORY = 4000
[CONFIG] TMPDIR = .
[CONFIG] UNIT = angstrom
[CONFIG] VERBOSE = 3
[CONFIG] conf_file = None
[INPUT] verbose = 9
[INPUT] max_memory = 4000 
[INPUT] num. atoms = 12
[INPUT] num. electrons = 40
[INPUT] charge = 0
[INPUT] spin (= nelec alpha-beta = 2S) = 0
[INPUT] symmetry False subgroup None
[INPUT] Mole.unit = angstrom
[INPUT]  1 O      8.693246000000 -14.069272000000  -9.547113000000 AA   16.427854073471 -26.587070852012 -18.041428850275 Bohr
[INPUT]  2 O      6.942642000000 -11.829381000000  -8.371044000000 AA   13.119691960903 -22.354290313134 -15.818980536684 Bohr
[INPUT]  3 O      8.801253000000 -12.425877000000  -6.497294000000 AA   16.631957723007 -23.481504387532 -12.278106210780 Bohr
[INPUT]  4 O     10.552310000000  -9.060178000000  -7.765728000000 AA   19.940975881509 -17.121255059810 -14.675099077866 Bohr
[INPUT]  5 H      8.220090000000 -13.732742000000  -8.786125000000 AA   15.533718819276 -25.951121319312 -16.603369946194 Bohr
[INPUT]  6 H      8.552802000000 -15.015659000000  -9.517782000000 AA   16.162453377632 -28.375483089860 -17.986001293315 Bohr
[INPUT]  7 H      7.495574000000 -12.091052000000  -7.634819000000 AA   14.164582006411 -22.848776837875 -14.427716920626 Bohr
[INPUT]  8 H      7.307461000000 -10.992840000000  -8.659728000000 AA   13.809099955940 -20.773456931164 -16.364514233228 Bohr
[INPUT]  9 H      9.055634000000 -11.748983000000  -5.870127000000 AA   17.112668144300 -22.202360112171 -11.092932346415 Bohr
[INPUT] 10 H      8.939496000000 -13.249901000000  -6.030278000000 AA   16.893199131645 -25.038684067601 -11.395573874990 Bohr
[INPUT] 11 H     10.029560000000  -9.452633000000  -7.066484000000 AA   18.953121549893 -17.862887526026 -13.353719423621 Bohr
[INPUT] 12 H     10.057649000000  -8.283933000000  -8.028378000000 AA   19.006202067006 -15.654364604247 -15.171435644483 Bohr
[INPUT] ---------------- BASIS SET ---------------- 
[INPUT] l, kappa, [nprim/nctr], expnt,             c_1 c_2 ...
[INPUT] H
[INPUT] 0    0    [3    /1   ]  18.731137         0.0334946
                                2.8253937         0.23472695
                                0.6401217         0.81375733
[INPUT] 0    0    [1    /1   ]  0.1612778            1
[INPUT] 1    0    [1    /1   ]  1.1                  1
[INPUT] O
[INPUT] 0    0    [6    /1   ]  5484.6717         0.0018311
                                825.23495         0.0139501
                                188.04696         0.0684451
                                52.9645           0.2327143
                                16.89757          0.470193
                                5.7996353         0.3585209
[INPUT] 0    0    [3    /1   ]  15.539616         -0.1107775
                                3.5999336         -0.1480263
                                1.0137618         1.130767
[INPUT] 0    0    [1    /1   ]  0.2700058            1
[INPUT] 1    0    [3    /1   ]  15.539616         0.0708743
                                3.5999336         0.3397528
                                1.0137618         0.7271586
[INPUT] 1    0    [1    /1   ]  0.2700058            1
[INPUT] 2    0    [1    /1   ]  0.8                  1

nuclear repulsion = 123.266132221411
number of shells = 48
number of NR pGTOs = 164
number of NR cGTOs = 96
basis = 6-31gss
ecp = {}
bas 0, expnt(s) = [5484.6717     825.23495    188.04696     52.9645      16.89757
    5.7996353]
bas 1, expnt(s) = [15.539616   3.5999336  1.0137618]
bas 2, expnt(s) = [0.2700058]
bas 3, expnt(s) = [15.539616   3.5999336  1.0137618]
bas 4, expnt(s) = [0.2700058]
bas 5, expnt(s) = [0.8]
bas 6, expnt(s) = [5484.6717     825.23495    188.04696     52.9645      16.89757
    5.7996353]
bas 7, expnt(s) = [15.539616   3.5999336  1.0137618]
bas 8, expnt(s) = [0.2700058]
bas 9, expnt(s) = [15.539616   3.5999336  1.0137618]
bas 10, expnt(s) = [0.2700058]
bas 11, expnt(s) = [0.8]
bas 12, expnt(s) = [5484.6717     825.23495    188.04696     52.9645      16.89757
    5.7996353]
bas 13, expnt(s) = [15.539616   3.5999336  1.0137618]
bas 14, expnt(s) = [0.2700058]
bas 15, expnt(s) = [15.539616   3.5999336  1.0137618]
bas 16, expnt(s) = [0.2700058]
bas 17, expnt(s) = [0.8]
bas 18, expnt(s) = [5484.6717     825.23495    188.04696     52.9645      16.89757
    5.7996353]
bas 19, expnt(s) = [15.539616   3.5999336  1.0137618]
bas 20, expnt(s) = [0.2700058]
bas 21, expnt(s) = [15.539616   3.5999336  1.0137618]
bas 22, expnt(s) = [0.2700058]
bas 23, expnt(s) = [0.8]
bas 24, expnt(s) = [18.731137   2.8253937  0.6401217]
bas 25, expnt(s) = [0.1612778]
bas 26, expnt(s) = [1.1]
bas 27, expnt(s) = [18.731137   2.8253937  0.6401217]
bas 28, expnt(s) = [0.1612778]
bas 29, expnt(s) = [1.1]
bas 30, expnt(s) = [18.731137   2.8253937  0.6401217]
bas 31, expnt(s) = [0.1612778]
bas 32, expnt(s) = [1.1]
bas 33, expnt(s) = [18.731137   2.8253937  0.6401217]
bas 34, expnt(s) = [0.1612778]
bas 35, expnt(s) = [1.1]
bas 36, expnt(s) = [18.731137   2.8253937  0.6401217]
bas 37, expnt(s) = [0.1612778]
bas 38, expnt(s) = [1.1]
bas 39, expnt(s) = [18.731137   2.8253937  0.6401217]
bas 40, expnt(s) = [0.1612778]
bas 41, expnt(s) = [1.1]
bas 42, expnt(s) = [18.731137   2.8253937  0.6401217]
bas 43, expnt(s) = [0.1612778]
bas 44, expnt(s) = [1.1]
bas 45, expnt(s) = [18.731137   2.8253937  0.6401217]
bas 46, expnt(s) = [0.1612778]
bas 47, expnt(s) = [1.1]
CPU time:       708.62
arg.atm = [[ 8 20  1 23  0  0]
 [ 8 24  1 27  0  0]
 [ 8 28  1 31  0  0]
 [ 8 32  1 35  0  0]
 [ 1 36  1 39  0  0]
 [ 1 40  1 43  0  0]
 [ 1 44  1 47  0  0]
 [ 1 48  1 51  0  0]
 [ 1 52  1 55  0  0]
 [ 1 56  1 59  0  0]
 [ 1 60  1 63  0  0]
 [ 1 64  1 67  0  0]]
arg.bas = [[  0   0   6   1   0  78  84   0]
 [  0   0   3   1   0  90  93   0]
 [  0   0   1   1   0  96  97   0]
 [  0   1   3   1   0  98 101   0]
 [  0   1   1   1   0 104 105   0]
 [  0   2   1   1   0 106 107   0]
 [  1   0   6   1   0  78  84   0]
 [  1   0   3   1   0  90  93   0]
 [  1   0   1   1   0  96  97   0]
 [  1   1   3   1   0  98 101   0]
 [  1   1   1   1   0 104 105   0]
 [  1   2   1   1   0 106 107   0]
 [  2   0   6   1   0  78  84   0]
 [  2   0   3   1   0  90  93   0]
 [  2   0   1   1   0  96  97   0]
 [  2   1   3   1   0  98 101   0]
 [  2   1   1   1   0 104 105   0]
 [  2   2   1   1   0 106 107   0]
 [  3   0   6   1   0  78  84   0]
 [  3   0   3   1   0  90  93   0]
 [  3   0   1   1   0  96  97   0]
 [  3   1   3   1   0  98 101   0]
 [  3   1   1   1   0 104 105   0]
 [  3   2   1   1   0 106 107   0]
 [  4   0   3   1   0  68  71   0]
 [  4   0   1   1   0  74  75   0]
 [  4   1   1   1   0  76  77   0]
 [  5   0   3   1   0  68  71   0]
 [  5   0   1   1   0  74  75   0]
 [  5   1   1   1   0  76  77   0]
 [  6   0   3   1   0  68  71   0]
 [  6   0   1   1   0  74  75   0]
 [  6   1   1   1   0  76  77   0]
 [  7   0   3   1   0  68  71   0]
 [  7   0   1   1   0  74  75   0]
 [  7   1   1   1   0  76  77   0]
 [  8   0   3   1   0  68  71   0]
 [  8   0   1   1   0  74  75   0]
 [  8   1   1   1   0  76  77   0]
 [  9   0   3   1   0  68  71   0]
 [  9   0   1   1   0  74  75   0]
 [  9   1   1   1   0  76  77   0]
 [ 10   0   3   1   0  68  71   0]
 [ 10   0   1   1   0  74  75   0]
 [ 10   1   1   1   0  76  77   0]
 [ 11   0   3   1   0  68  71   0]
 [ 11   0   1   1   0  74  75   0]
 [ 11   1   1   1   0  76  77   0]]
arg.env = [ 1.37036000e+02  0.00000000e+00  0.00000000e+00  0.00000000e+00
  0.00000000e+00  0.00000000e+00  0.00000000e+00  0.00000000e+00
  0.00000000e+00  0.00000000e+00  0.00000000e+00  0.00000000e+00
  0.00000000e+00  0.00000000e+00  0.00000000e+00  0.00000000e+00
  0.00000000e+00  0.00000000e+00  0.00000000e+00  0.00000000e+00
  1.64278541e+01 -2.65870709e+01 -1.80414289e+01  0.00000000e+00
  1.31196920e+01 -2.23542903e+01 -1.58189805e+01  0.00000000e+00
  1.66319577e+01 -2.34815044e+01 -1.22781062e+01  0.00000000e+00
  1.99409759e+01 -1.71212551e+01 -1.46750991e+01  0.00000000e+00
  1.55337188e+01 -2.59511213e+01 -1.66033699e+01  0.00000000e+00
  1.61624534e+01 -2.83754831e+01 -1.79860013e+01  0.00000000e+00
  1.41645820e+01 -2.28487768e+01 -1.44277169e+01  0.00000000e+00
  1.38091000e+01 -2.07734569e+01 -1.63645142e+01  0.00000000e+00
  1.71126681e+01 -2.22023601e+01 -1.10929323e+01  0.00000000e+00
  1.68931991e+01 -2.50386841e+01 -1.13955739e+01  0.00000000e+00
  1.89531215e+01 -1.78628875e+01 -1.33537194e+01  0.00000000e+00
  1.90062021e+01 -1.56543646e+01 -1.51714356e+01  0.00000000e+00
  1.87311370e+01  2.82539370e+00  6.40121700e-01  7.61926220e-01
  1.29237100e+00  1.47131900e+00  1.61277800e-01  6.42977783e-01
  1.10000000e+00  3.28643653e+00  5.48467170e+03  8.25234950e+02
  1.88046960e+02  5.29645000e+01  1.68975700e+01  5.79963530e+00
  2.94842455e+00  5.42657124e+00  8.78126489e+00  1.15432129e+01
  9.90055015e+00  3.38516599e+00  1.55396160e+01  3.59993360e+00
  1.01376180e+00 -2.19051792e+00 -9.77405528e-01  2.88629094e+00
  2.70005800e-01  9.46334873e-01  1.55396160e+01  3.59993360e+00
  1.01376180e+00  6.37930734e+00  4.91490975e+00  2.15791055e+00
  2.70005800e-01  5.67807022e-01  8.00000000e-01  1.76578110e+00]
ecpbas  = []


******** <class 'pyscf.qmmm.itrf.mm_charge.<locals>.QMMM'> ********
method = QMMM-RHF
initial guess = minao
damping factor = 0
level shift factor = 0
DIIS = <class 'pyscf.scf.diis.CDIIS'>
DIIS start cycle = 1
DIIS space = 8
SCF tol = 1e-09
SCF gradient tol = None
max. SCF cycles = 50
direct_scf = True
direct_scf_tol = 1e-13
chkfile to save SCF result = /home/liwei01/wsr/dftpart/test_2body/w32/tmp3pd232e_
max_memory 4000 MB (current use 328 MB)
** Add background charges for <class 'pyscf.scf.hf.RHF'> **
Charge      Location
-1.056075    [ 15.8591958  -22.32322322 -21.16584533]
0.523264    [ 15.44903263 -23.69303655 -20.05800473]
0.517699    [ 17.48403712 -21.75849557 -20.60647128]
-1.035697    [ 20.23144001 -20.50137794 -19.07019386]
0.520608    [ 21.7723038  -21.39222885 -18.74761761]
0.515624    [ 19.97024207 -19.49608333 -17.58928542]
-1.024266    [ 13.70105109 -18.63199472 -24.76194313]
0.515186    [ 13.45609723 -19.31578456 -26.41855264]
0.515422    [ 13.87339411 -20.08163576 -23.69387937]
-1.050024    [ 10.52651529 -24.11298283 -20.2839555 ]
0.521386    [  8.7734466  -24.2410798  -19.85703047]
0.506414    [ 11.30765248 -23.44237383 -18.79666545]
-1.032359    [ 13.1641969  -17.47579981 -19.41562257]
0.514165    [ 13.18112696 -18.60438393 -20.82910748]
0.518479    [ 14.52136419 -16.32434621 -19.73837456]
-1.002885    [ 18.40539199 -27.51482622 -24.72543362]
0.521542    [ 17.83274639 -26.30664305 -23.50711585]
0.49877    [ 20.13069872 -27.06649815 -25.03241585]
-1.054902    [ 19.05772167 -18.14703431 -25.87868434]
0.517977    [ 18.59105569 -18.66655214 -27.54728983]
0.522623    [ 17.51229609 -18.19498233 -24.93991564]
-0.997115    [ 17.90283445 -15.11249509 -20.63210731]
0.530073    [ 18.89257472 -16.62132612 -20.50652934]
0.49195    [ 18.18557149 -14.25298717 -19.06582671]
-1.032188    [ 15.97118286 -20.09833149 -29.6421136 ]
0.47982    [ 15.3540909  -19.66610766 -31.28659296]
0.534069    [ 17.50300052 -21.00734455 -29.95701189]
-0.992133    [  7.63287216 -21.21078113 -24.19682809]
0.480184    [  8.55071592 -22.76668147 -24.10379498]
0.504586    [  8.37549106 -20.32880248 -25.59058803]
-1.012936    [ 10.55365553 -29.46492154 -21.67488842]
0.504954    [  8.84108934 -29.00412127 -22.03084479]
0.525721    [ 11.34418277 -27.91794449 -21.17105153]
-0.982261    [ 16.04742575 -26.75780005 -29.6895325 ]
0.479882    [ 16.71262824 -28.42851069 -29.88488293]
0.495008    [ 16.8532352  -26.12000803 -28.20097066]
-0.983713    [ 20.17321188 -22.53529584 -29.89394228]
0.505479    [ 21.06170253 -23.16751127 -28.4507471 ]
0.512532    [ 20.35114661 -23.83370776 -31.14069287]
-1.011239    [ 14.66303696 -31.18986921 -25.03135193]
0.492592    [ 13.80996545 -30.6346091  -23.53606456]
0.497341    [ 16.13314373 -30.14067248 -25.13086491]
-0.999332    [ 25.43111026 -22.24828235 -18.47023794]
0.512801    [ 26.28398524 -20.77981964 -19.09325419]
0.507583    [ 26.7410892  -23.47726762 -18.25698991]
-1.016163    [ 10.56617686 -29.35403808 -16.44102735]
0.483053    [ 11.92280935 -30.36927076 -15.8079521 ]
0.523726    [ 10.34862781 -29.90290525 -18.15080431]
-0.976012    [ 10.09067452 -21.18806662 -29.24260093]
0.486289    [ 11.11173701 -19.76402949 -29.69146191]
0.496485    [ 10.37375928 -22.38512875 -30.56881072]
-0.977833    [ 24.5589393  -27.80514674 -21.18389789]
0.50587    [ 23.21796885 -28.65180829 -20.31390388]
0.463809    [ 25.76766104 -27.42438582 -19.8931866 ]
-0.989717    [  8.77070649 -15.37911655 -23.94499373]
0.487556    [  8.68859978 -13.74216775 -23.17975481]
0.496916    [ 10.53805395 -15.75730555 -24.01835668]
-0.992057    [ 16.93410036 -32.15697813 -17.52810554]
0.50918    [ 16.39069828 -32.53931319 -15.84570882]
0.510293    [ 15.6895513  -32.92540692 -18.59231236]
-0.998393    [ 24.35861321 -18.31258187 -25.98586582]
0.466984    [ 25.48944989 -18.60606579 -24.60492389]
0.51604    [ 22.70911474 -18.4111103  -25.25008395]
-1.010464    [  9.27281806 -14.9477601  -17.25327322]
0.476424    [  7.6789399  -15.16789619 -18.07972415]
0.517552    [ 10.24747455 -16.38576609 -17.75736144]
-0.991473    [  5.5836248  -24.00414405 -18.66237963]
0.501887    [  5.79022289 -25.52045085 -17.69798247]
0.510487    [  5.17491673 -22.73885336 -17.43603619]
-1.029267    [  7.95719829 -25.19119252 -14.2761212 ]
0.497876    [  9.38018663 -24.0850659  -14.1227926 ]
0.519667    [  8.66153702 -26.76190075 -14.83174226]
-1.001943    [ 16.13613705 -11.83176802 -24.46883904]
0.509813    [ 16.78082846 -12.94299123 -23.1954641 ]
0.477312    [ 17.5304658  -11.57071369 -25.59117007]
-1.019724    [ 21.67798379 -29.0173418  -14.20699124]
0.475311    [ 20.53074618 -29.01816194 -15.60548117]
0.514632    [ 22.50198564 -27.40961194 -14.29731259]
-0.9959    [ 24.21450458 -24.60133719 -13.9203349 ]
0.499354    [ 23.58737251 -23.46499007 -12.66043371]
0.511038    [ 23.91476757 -23.75039163 -15.48812918]
-1.001922    [ 21.40011279 -32.14724982 -20.33868764]
0.487648    [ 22.14106118 -33.75675602 -19.97480576]
0.509505    [ 19.73399418 -32.24696878 -19.64152988]
Set gradient conv threshold to 3.16228e-05
Nelec from initial guess = 39.950368861117624
cond(S) = 160.358637872807
E1 = -661.9439603701225  E_coul = 232.4276778957665
init E= -303.468178099635
    CPU time for initialize scf      1.12 sec, wall time      0.14 sec
  HOMO = -0.531651966784363  LUMO = 0.0110162338813467
  mo_energy =
[-2.09011096e+01 -2.08932545e+01 -2.08730103e+01 -2.08538808e+01
 -1.72246158e+00 -1.71244257e+00 -1.69608164e+00 -1.65929460e+00
 -8.48726355e-01 -8.44221213e-01 -8.20451711e-01 -8.05387758e-01
 -6.92388455e-01 -6.87337772e-01 -6.80561347e-01 -6.20708464e-01
 -5.75057166e-01 -5.68701584e-01 -5.47376545e-01 -5.31651967e-01
  1.10162339e-02  5.67042816e-02  9.91897500e-02  1.43227002e-01
  1.53781701e-01  1.99847839e-01  2.23443157e-01  2.91577328e-01
  8.26580138e-01  8.44758307e-01  8.72361006e-01  8.82059038e-01
  9.02459402e-01  9.09122553e-01  9.30988864e-01  9.49069961e-01
  9.52780240e-01  9.85801766e-01  1.00411817e+00  1.00833809e+00
  1.02352570e+00  1.04527286e+00  1.08532068e+00  1.09943854e+00
  1.11674487e+00  1.16296211e+00  1.18669333e+00  1.24933705e+00
  1.41907249e+00  1.44092500e+00  1.50399659e+00  1.59170435e+00
  1.62944333e+00  1.63669431e+00  1.63780810e+00  1.64416642e+00
  1.66584531e+00  1.66898627e+00  1.71138260e+00  1.72317626e+00
  1.73015412e+00  1.73944319e+00  1.77251581e+00  1.85057740e+00
  2.39928407e+00  2.41298124e+00  2.43917267e+00  2.46922589e+00
  2.48060053e+00  2.49235146e+00  2.52773974e+00  2.56904816e+00
  2.63345593e+00  2.65464550e+00  2.68834242e+00  2.76938970e+00
  2.82534558e+00  2.83135137e+00  2.85114785e+00  2.85530073e+00
  2.86721258e+00  2.87357964e+00  2.88775645e+00  2.92620101e+00
  3.23621865e+00  3.24964913e+00  3.26836803e+00  3.29866953e+00
  3.60592443e+00  3.64728961e+00  3.65104113e+00  3.70146464e+00
  3.76821935e+00  3.79011029e+00  3.81563810e+00  3.84555528e+00]
E1 = -672.2036913541979  E_coul = 242.1451020907869
cycle= 1 E= -304.01048488869  delta_E= -0.542  |g|= 0.886  |ddm|= 2.36
    CPU time for cycle= 1      0.16 sec, wall time      0.02 sec
diis-norm(errvec)=1.60895
diis-c [-2.58873515  1.        ]
  HOMO = -0.436757490544832  LUMO = 0.0872481730153702
  mo_energy =
[-20.48175571 -20.40770915 -20.34684952 -20.32679859  -1.40486452
  -1.36671337  -1.30918947  -1.29107253  -0.78228998  -0.74939694
  -0.70401034  -0.68298585  -0.61634395  -0.58718207  -0.55065383
  -0.53292983  -0.51245368  -0.50997468  -0.45683252  -0.43675749
   0.08724817   0.15259937   0.19615808   0.21635664   0.25752154
   0.27437368   0.33716565   0.44135418   0.88447852   0.94013598
   0.97511919   0.98725568   0.998863     1.02941192   1.07920968
   1.09365632   1.12520201   1.13990707   1.16141992   1.17312155
   1.19315654   1.20634665   1.25505965   1.26454271   1.31333686
   1.32243115   1.36272012   1.38777085   1.56257514   1.57800843
   1.66575707   1.71263852   1.73669773   1.73902666   1.76709425
   1.7771946    1.80611822   1.83303909   1.83747047   1.87112383
   1.91188611   1.93024661   1.94934461   2.00560666   2.44470219
   2.46846768   2.51249224   2.53276154   2.53900971   2.57884801
   2.61605345   2.70126438   2.72486458   2.75027042   2.81797363
   2.86036433   2.87494093   2.90082219   2.90406632   2.95278777
   2.95967902   2.97003266   2.9844046    3.04326938   3.28145168
   3.29744919   3.36278593   3.40312156   3.65431542   3.69088577
   3.76324297   3.8090758    3.85820595   3.8840432    3.97309574
   4.01539897]
E1 = -665.8611406351766  E_coul = 235.68635767911547
cycle= 2 E= -304.12667858134  delta_E= -0.116  |g|= 0.434  |ddm|= 0.706
    CPU time for cycle= 2      0.16 sec, wall time      0.02 sec
diis-norm(errvec)=0.720842
diis-c [-0.11224649  0.28854883  0.71145117]
  HOMO = -0.532578132589007  LUMO = 0.0868550870322893
  mo_energy =
[-20.68831038 -20.68579414 -20.63347863 -20.61298079  -1.45642021
  -1.44750171  -1.39682393  -1.37991211  -0.81833256  -0.80934039
  -0.76843792  -0.75129248  -0.68146268  -0.67642383  -0.62810267
  -0.61714624  -0.6034662   -0.59635242  -0.55322121  -0.53257813
   0.08685509   0.14734138   0.18769513   0.2088296    0.24577647
   0.26809054   0.31522274   0.41224146   0.87133451   0.92148955
   0.94670675   0.96552865   0.98396458   1.0157377    1.04053925
   1.05265177   1.06058763   1.0741754    1.09140675   1.10360579
   1.12493941   1.14330986   1.19636376   1.20525584   1.24500831
   1.26390614   1.29763393   1.33384991   1.51066609   1.53020835
   1.61486209   1.68996569   1.69333816   1.69954241   1.72686011
   1.72973448   1.75966039   1.77683074   1.79536402   1.8182553
   1.85827138   1.87047792   1.8921194    1.94805213   2.45806713
   2.47752809   2.48546922   2.48891853   2.53172285   2.54184039
   2.59193537   2.64824271   2.69766106   2.71719532   2.76967983
   2.85162058   2.86592786   2.87765715   2.88877569   2.91412805
   2.93171642   2.94146213   2.95850378   3.00721132   3.27516614
   3.27753784   3.33376722   3.37244914   3.6358636    3.67156114
   3.72731653   3.77063769   3.83054659   3.83476385   3.91657941
   3.95619212]
E1 = -668.6579054340729  E_coul = 238.45067457172206
cycle= 3 E= -304.15912648763  delta_E= -0.0324  |g|= 0.0618  |ddm|= 0.279
    CPU time for cycle= 3      0.16 sec, wall time      0.02 sec
diis-norm(errvec)=0.115481
diis-c [-0.00610719 -0.02038939  0.07303192  0.94735746]
  HOMO = -0.523301545790377  LUMO = 0.093567992442956
  mo_energy =
[-20.65720211 -20.64911728 -20.59917796 -20.58094762  -1.44245182
  -1.43172773  -1.38388284  -1.36776725  -0.8048231   -0.79521386
  -0.75764361  -0.74033879  -0.67145398  -0.66494257  -0.61904877
  -0.60733911  -0.59098255  -0.58675761  -0.54333324  -0.52330155
   0.09356799   0.15388711   0.19377847   0.21550748   0.25128032
   0.27634967   0.32153262   0.41855492   0.88164235   0.93032001
   0.95413742   0.97281859   0.99626968   1.02734687   1.05005757
   1.06300038   1.07041899   1.08264726   1.09981769   1.11192993
   1.13240645   1.15042799   1.20687942   1.21469863   1.2523964
   1.27412539   1.30633129   1.34418457   1.52160412   1.54125191
   1.62518087   1.69917505   1.70610157   1.71243443   1.73852764
   1.74056522   1.77006933   1.78620543   1.80569299   1.83013688
   1.86728642   1.87984007   1.90112354   1.95649011   2.47049158
   2.48954586   2.49760239   2.50134976   2.54123235   2.55156957
   2.6010875    2.65803929   2.71136221   2.73071981   2.78061191
   2.86277456   2.87771358   2.88883101   2.90046059   2.92402815
   2.94066807   2.95040867   2.96761049   3.01504768   3.2868396
   3.28919609   3.34265884   3.38053133   3.65170451   3.6869071
   3.74037028   3.78312134   3.84402299   3.84874608   3.9274804
   3.96606009]
E1 = -668.350818921275  E_coul = 238.14273174536672
cycle= 4 E= -304.159982801188  delta_E= -0.000856  |g|= 0.0102  |ddm|= 0.0376
    CPU time for cycle= 4      0.16 sec, wall time      0.02 sec
diis-norm(errvec)=0.0210431
diis-c [-1.12124354e-04 -9.62770054e-03 -4.08919270e-02 -1.76103281e-01
  1.22662291e+00]
  HOMO = -0.524072416239941  LUMO = 0.0938337599774626
  mo_energy =
[-20.65690444 -20.65241166 -20.60072525 -20.58105179  -1.44212823
  -1.43305328  -1.38470215  -1.36795401  -0.80382495  -0.79548356
  -0.75746321  -0.74034949  -0.67112575  -0.66587865  -0.61949092
  -0.60733116  -0.59283137  -0.58709772  -0.54461564  -0.52407242
   0.09383376   0.15395929   0.1939654    0.21589881   0.25133711
   0.27696813   0.32189575   0.41900155   0.88201504   0.93042262
   0.95414533   0.97287006   0.99641147   1.02756929   1.05005806
   1.06287826   1.06919827   1.08228946   1.09918714   1.11185505
   1.13197926   1.1503175    1.20684054   1.21482072   1.25219103
   1.27431336   1.30671146   1.34425607   1.52123678   1.54103343
   1.62492327   1.69954002   1.70684085   1.71200718   1.73809147
   1.74090358   1.76991345   1.78601676   1.80609512   1.82955088
   1.86729592   1.8795614    1.90126687   1.95678615   2.47156037
   2.4898262    2.49836298   2.50096441   2.54141411   2.55144963
   2.60147965   2.65824059   2.71165628   2.73137003   2.78066466
   2.86367382   2.87880888   2.88889095   2.90053625   2.9246698
   2.94079678   2.95054954   2.96795118   3.01550822   3.28736907
   3.29003559   3.34286518   3.38099351   3.65200918   3.68753824
   3.74041736   3.78352588   3.84514155   3.84882818   3.92775112
   3.966672  ]
E1 = -668.3590570948224  E_coul = 238.15092445957347
cycle= 5 E= -304.160028260528  delta_E= -4.55e-05  |g|= 0.0019  |ddm|= 0.0124
    CPU time for cycle= 5      0.15 sec, wall time      0.02 sec
diis-norm(errvec)=0.00343136
diis-c [-8.01090317e-06  1.53326847e-03  4.12865223e-03 -1.37616587e-03
 -1.30834994e-01  1.12654924e+00]
  HOMO = -0.524596813687815  LUMO = 0.0938243651630167
  mo_energy =
[-20.65760004 -20.65087319 -20.6007538  -20.58204795  -1.4424316
  -1.43260116  -1.38483304  -1.36835139  -0.80386158  -0.7950151
  -0.75764599  -0.74043856  -0.67145203  -0.66551025  -0.6196607
  -0.60772981  -0.59251307  -0.58754713  -0.54488257  -0.52459681
   0.09382437   0.153948     0.193932     0.2158659    0.25123155
   0.2770185    0.3217983    0.41878348   0.8819679    0.93036308
   0.95395414   0.97268204   0.99637086   1.02756158   1.04980887
   1.0626999    1.06936372   1.08212394   1.09932502   1.11162473
   1.13172183   1.1500839    1.20689323   1.21478813   1.25185575
   1.27415472   1.3064395    1.34408059   1.52129681   1.54098928
   1.62475602   1.69925904   1.7066207    1.71221353   1.73832289
   1.74066454   1.76973191   1.78584578   1.80580775   1.82982341
   1.86701304   1.87938831   1.90096228   1.95647254   2.47143455
   2.48986283   2.49813737   2.50116171   2.54125096   2.55126625
   2.60128115   2.6579216    2.71171726   2.73129712   2.78049337
   2.86343978   2.87866765   2.88902372   2.9006529    2.92439862
   2.94063125   2.95038404   2.96774135   3.01521707   3.2874111
   3.28995091   3.34269893   3.38073165   3.65207785   3.68747652
   3.74026102   3.78327019   3.84493332   3.84904125   3.92756735
   3.96631594]
E1 = -668.3578558980727  E_coul = 238.14972178704696
cycle= 6 E= -304.160029736305  delta_E= -1.48e-06  |g|= 0.00082  |ddm|= 0.00258
    CPU time for cycle= 6      0.16 sec, wall time      0.02 sec
diis-norm(errvec)=0.00145434
diis-c [-7.03424210e-07  1.20890441e-03  4.58689298e-03  1.22272623e-02
 -1.29856749e-01  2.88973601e-01  8.22860088e-01]
  HOMO = -0.524500695064863  LUMO = 0.0938232021213081
  mo_energy =
[-20.65720342 -20.65151257 -20.60073205 -20.58155701  -1.44231202
  -1.43282129  -1.38484147  -1.36820416  -0.80374339  -0.79513027
  -0.7575605   -0.74037565  -0.67133781  -0.66573924  -0.61968487
  -0.60762307  -0.59276842  -0.58744933  -0.54491882  -0.5245007
   0.0938232    0.15393371   0.19393082   0.21587727   0.25125239
   0.27702504   0.32181658   0.4188391    0.88195586   0.93033576
   0.95396981   0.97269234   0.99634689   1.02753834   1.04985656
   1.06269926   1.06919245   1.08211135   1.09919491   1.11165687
   1.1317288    1.15011488   1.20685089   1.21478534   1.25191511
   1.27419289   1.30653759   1.34413267   1.52125393   1.54099472
   1.62477782   1.69933093   1.7066818    1.71208375   1.73817802
   1.74072228   1.76973167   1.78583295   1.80588897   1.82966847
   1.86707354   1.87938261   1.90104942   1.9565659    2.47146125
   2.48982233   2.49819523   2.50102274   2.54123841   2.55125403
   2.60130403   2.65799873   2.71165261   2.73129213   2.78047623
   2.86349815   2.8787155    2.88892523   2.90057838   2.92445986
   2.94061798   2.95038019   2.96778652   3.01527235   3.28736247
   3.28995836   3.34268318   3.38078617   3.65202479   3.68747891
   3.74025414   3.7833289    3.84499911   3.84891048   3.92756259
   3.96640992]
E1 = -668.3569230402347  E_coul = 238.14878874826047
cycle= 7 E= -304.160029917253  delta_E= -1.81e-07  |g|= 0.000161  |ddm|= 0.000752
    CPU time for cycle= 7      0.16 sec, wall time      0.02 sec
diis-norm(errvec)=0.000296535
diis-c [-1.88118543e-08 -2.33572073e-04 -6.73527889e-04 -1.93651957e-03
  2.34308560e-02 -1.21745125e-01 -8.76592952e-02  1.18881718e+00]
  HOMO = -0.524527392029657  LUMO = 0.093830148195616
  mo_energy =
[-20.65720853 -20.6514116  -20.60070491 -20.5815758   -1.44230845
  -1.43279129  -1.38483883  -1.36821246  -0.80372041  -0.79509473
  -0.757555    -0.74036511  -0.67133988  -0.66571714  -0.61968907
  -0.60763305  -0.59274957  -0.58746367  -0.54493044  -0.52452739
   0.09383015   0.15394239   0.19393771   0.21588769   0.25125143
   0.27704106   0.321827     0.41884544   0.88197184   0.93034934
   0.95397304   0.97269573   0.99636067   1.02755165   1.04985479
   1.06270313   1.06920802   1.08211377   1.09921191   1.11165887
   1.13172547   1.15011362   1.20687075   1.21480065   1.2519089
   1.27420239   1.30654333   1.34413965   1.52126839   1.54100597
   1.6247816    1.69933116   1.70669074   1.71210217   1.73819883
   1.7407279    1.76973325   1.78583459   1.80588942   1.82969019
   1.86707487   1.87938459   1.90104346   1.95656496   2.47147781
   2.48983293   2.49820485   2.50104385   2.54124308   2.55125793
   2.60131011   2.65799374   2.71167261   2.73130919   2.78048148
   2.86351019   2.87872622   2.88894187   2.90059185   2.92446695
   2.94061981   2.9503835    2.9677831    3.01527885   3.28737946
   3.28997432   3.34268841   3.38078903   3.6520442    3.68749542
   3.74025865   3.78333209   3.84501196   3.84893615   3.92757207
   3.96641163]
E1 = -668.356666394897  E_coul = 238.1485320914883
cycle= 8 E= -304.160029928688  delta_E= -1.14e-08  |g|= 2e-05  |ddm|= 0.000247
    CPU time for cycle= 8      0.15 sec, wall time      0.02 sec
diis-norm(errvec)=3.73359e-05
diis-c [-7.96321200e-10 -2.45491066e-05 -9.53705937e-05 -2.80188634e-04
  2.67869822e-03 -3.13812490e-03 -2.05762969e-02 -4.56517923e-02
  1.06708762e+00]
  HOMO = -0.524527266041248  LUMO = 0.0938309229707895
  mo_energy =
[-20.65720326 -20.65141107 -20.60070343 -20.58157059  -1.44230596
  -1.4327898   -1.38483866  -1.36821119  -0.80371694  -0.7950922
  -0.75755323  -0.74036351  -0.6713382   -0.66571741  -0.61968948
  -0.60763126  -0.5927482   -0.58746194  -0.54493023  -0.52452727
   0.09383092   0.15394238   0.19393769   0.21588767   0.2512521
   0.27704214   0.32182638   0.41884588   0.88197251   0.93034919
   0.95397308   0.97269576   0.99636083   1.0275527    1.04985562
   1.06270215   1.06920831   1.08211392   1.0992125    1.11165905
   1.1317253    1.15011428   1.20687175   1.21480185   1.2519088
   1.27420396   1.30654478   1.34414065   1.52126951   1.54100706
   1.62478167   1.69933193   1.70669249   1.7121031    1.73819968
   1.74072881   1.76973296   1.78583418   1.80589063   1.82969102
   1.86707455   1.87938404   1.90104459   1.95656601   2.47147905
   2.4898342    2.49820662   2.50104481   2.541242     2.55125744
   2.60131046   2.65799488   2.71167397   2.73131074   2.78048111
   2.86351042   2.87872888   2.8889428    2.90059285   2.92446727
   2.94061948   2.9503827    2.9677845    3.01527833   3.28738074
   3.28997584   3.3426877    3.38078972   3.65204556   3.68749698
   3.74025839   3.78333299   3.84501411   3.84893721   3.92757129
   3.96641238]
E1 = -668.3566586460788  E_coul = 238.14852434245094
cycle= 9 E= -304.160029928907  delta_E= -2.19e-10  |g|= 6.06e-06  |ddm|= 3.42e-05
    CPU time for cycle= 9      0.16 sec, wall time      0.02 sec
  HOMO = -0.524527144505772  LUMO = 0.0938308122536542
  mo_energy =
[-20.65720371 -20.65141199 -20.60070412 -20.58157122  -1.44230576
  -1.43278981  -1.38483852  -1.36821107  -0.80371691  -0.79509237
  -0.75755307  -0.74036341  -0.67133816  -0.6657178   -0.61968963
  -0.60763103  -0.59274776  -0.58746163  -0.54492984  -0.52452714
   0.09383081   0.15394239   0.19393764   0.21588765   0.25125199
   0.27704201   0.32182651   0.41884633   0.88197244   0.93034922
   0.95397317   0.97269582   0.99636066   1.02755247   1.0498556
   1.06270208   1.06920851   1.08211404   1.09921253   1.11165916
   1.13172546   1.15011435   1.20687172   1.21480186   1.25190893
   1.27420396   1.30654492   1.34414059   1.52126956   1.54100714
   1.6247818    1.69933218   1.7066926    1.71210299   1.73819963
   1.74072901   1.76973304   1.78583429   1.8058908    1.829691
   1.86707486   1.87938421   1.90104471   1.95656631   2.47147905
   2.48983394   2.49820674   2.50104472   2.54124206   2.55125756
   2.60131062   2.65799489   2.71167385   2.7313107    2.78048109
   2.86351069   2.8787288    2.88894263   2.90059266   2.92446757
   2.94061946   2.95038281   2.96778435   3.01527884   3.28738061
   3.2899758    3.34268774   3.38078996   3.65204534   3.68749684
   3.74025826   3.78333298   3.84501409   3.848937     3.92757142
   3.96641267]
E1 = -668.35667040048  E_coul = 238.14853609683004
Extra cycle  E= -304.160029928929  delta_E= -2.21e-11  |g|= 2.73e-06  |ddm|= 9.82e-06
    CPU time for scf_cycle      2.69 sec, wall time      0.34 sec
    CPU time for SCF      2.83 sec, wall time      0.35 sec
converged SCF energy = -304.160029928929
