Atom number=12                                                          
SP        RHF                                                         6-31G(d,p)          
Number of atoms                            I               12
Info1-9                                    I   N=           9
         107         106           0           0           0         111
           1           1           2
Full Title                                 C   N=           2
Atom number=12          
Route                                      C   N=           4
#p hf/6-31g** 5d 7f pop=npa charge nosymm       
Charge                                     I                0
Multiplicity                               I                1
Number of electrons                        I               40
Number of alpha electrons                  I               20
Number of beta electrons                   I               20
Number of basis functions                  I               96
Number of independent functions            I               96
Number of point charges in /Mol/           I                0
Number of translation vectors              I                0
Atomic numbers                             I   N=          12
           8           8           8           8           1           1
           1           1           1           1           1           1
Nuclear charges                            R   N=          12
  8.00000000E+00  8.00000000E+00  8.00000000E+00  8.00000000E+00  1.00000000E+00
  1.00000000E+00  1.00000000E+00  1.00000000E+00  1.00000000E+00  1.00000000E+00
  1.00000000E+00  1.00000000E+00
Current cartesian coordinates              R   N=          36
  1.64278541E+01 -2.65870709E+01 -1.80414289E+01  1.31196920E+01 -2.23542903E+01
 -1.58189805E+01  1.66319577E+01 -2.34815044E+01 -1.22781062E+01  1.99409759E+01
 -1.71212551E+01 -1.46750991E+01  1.55337188E+01 -2.59511213E+01 -1.66033699E+01
  1.61624534E+01 -2.83754831E+01 -1.79860013E+01  1.41645820E+01 -2.28487768E+01
 -1.44277169E+01  1.38091000E+01 -2.07734569E+01 -1.63645142E+01  1.71126681E+01
 -2.22023601E+01 -1.10929323E+01  1.68931991E+01 -2.50386841E+01 -1.13955739E+01
  1.89531215E+01 -1.78628875E+01 -1.33537194E+01  1.90062021E+01 -1.56543646E+01
 -1.51714356E+01
Number of symbols in /Mol/                 I                0
Force Field                                I                0
Atom Types                                 C   N=          12
                                                            
                                                            
                        
Int Atom Types                             I   N=          12
           0           0           0           0           0           0
           0           0           0           0           0           0
MM charges                                 R   N=          12
  0.00000000E+00  0.00000000E+00  0.00000000E+00  0.00000000E+00  0.00000000E+00
  0.00000000E+00  0.00000000E+00  0.00000000E+00  0.00000000E+00  0.00000000E+00
  0.00000000E+00  0.00000000E+00
Integer atomic weights                     I   N=          12
          16          16          16          16           1           1
           1           1           1           1           1           1
Real atomic weights                        R   N=          12
  1.59949146E+01  1.59949146E+01  1.59949146E+01  1.59949146E+01  1.00782504E+00
  1.00782504E+00  1.00782504E+00  1.00782504E+00  1.00782504E+00  1.00782504E+00
  1.00782504E+00  1.00782504E+00
Atom fragment info                         I   N=          12
           0           0           0           0           0           0
           0           0           0           0           0           0
Atom residue num                           I   N=          12
           0           0           0           0           0           0
           0           0           0           0           0           0
Nuclear spins                              I   N=          12
           0           0           0           0           1           1
           1           1           1           1           1           1
Nuclear ZEff                               R   N=          12
 -5.60000000E+00 -5.60000000E+00 -5.60000000E+00 -5.60000000E+00 -1.00000000E+00
 -1.00000000E+00 -1.00000000E+00 -1.00000000E+00 -1.00000000E+00 -1.00000000E+00
 -1.00000000E+00 -1.00000000E+00
Nuclear ZNuc                               R   N=          12
  8.00000000E+00  8.00000000E+00  8.00000000E+00  8.00000000E+00  1.00000000E+00
  1.00000000E+00  1.00000000E+00  1.00000000E+00  1.00000000E+00  1.00000000E+00
  1.00000000E+00  1.00000000E+00
Nuclear QMom                               R   N=          12
  0.00000000E+00  0.00000000E+00  0.00000000E+00  0.00000000E+00  0.00000000E+00
  0.00000000E+00  0.00000000E+00  0.00000000E+00  0.00000000E+00  0.00000000E+00
  0.00000000E+00  0.00000000E+00
Nuclear GFac                               R   N=          12
  0.00000000E+00  0.00000000E+00  0.00000000E+00  0.00000000E+00  2.79284600E+00
  2.79284600E+00  2.79284600E+00  2.79284600E+00  2.79284600E+00  2.79284600E+00
  2.79284600E+00  2.79284600E+00
MicOpt                                     I   N=          12
          -1          -1          -1          -1          -1          -1
          -1          -1          -1          -1          -1          -1
Number of residues                         I                0
Number of secondary structures             I                0
Number of contracted shells                I               40
Number of primitive shells                 I               84
Pure/Cartesian d shells                    I                0
Pure/Cartesian f shells                    I                0
Highest angular momentum                   I                2
Largest degree of contraction              I                6
Shell types                                I   N=          40
           0          -1          -1          -2           0          -1
          -1          -2           0          -1          -1          -2
           0          -1          -1          -2           0           0
           1           0           0           1           0           0
           1           0           0           1           0           0
           1           0           0           1           0           0
           1           0           0           1
Number of primitives per shell             I   N=          40
           6           3           1           1           6           3
           1           1           6           3           1           1
           6           3           1           1           3           1
           1           3           1           1           3           1
           1           3           1           1           3           1
           1           3           1           1           3           1
           1           3           1           1
Shell to atom map                          I   N=          40
           1           1           1           1           2           2
           2           2           3           3           3           3
           4           4           4           4           5           5
           5           6           6           6           7           7
           7           8           8           8           9           9
           9          10          10          10          11          11
          11          12          12          12
Primitive exponents                        R   N=          84
  5.48467166E+03  8.25234946E+02  1.88046958E+02  5.29645000E+01  1.68975704E+01
  5.79963534E+00  1.55396162E+01  3.59993359E+00  1.01376175E+00  2.70005823E-01
  8.00000000E-01  5.48467166E+03  8.25234946E+02  1.88046958E+02  5.29645000E+01
  1.68975704E+01  5.79963534E+00  1.55396162E+01  3.59993359E+00  1.01376175E+00
  2.70005823E-01  8.00000000E-01  5.48467166E+03  8.25234946E+02  1.88046958E+02
  5.29645000E+01  1.68975704E+01  5.79963534E+00  1.55396162E+01  3.59993359E+00
  1.01376175E+00  2.70005823E-01  8.00000000E-01  5.48467166E+03  8.25234946E+02
  1.88046958E+02  5.29645000E+01  1.68975704E+01  5.79963534E+00  1.55396162E+01
  3.59993359E+00  1.01376175E+00  2.70005823E-01  8.00000000E-01  1.87311370E+01
  2.82539436E+00  6.40121692E-01  1.61277759E-01  1.10000000E+00  1.87311370E+01
  2.82539436E+00  6.40121692E-01  1.61277759E-01  1.10000000E+00  1.87311370E+01
  2.82539436E+00  6.40121692E-01  1.61277759E-01  1.10000000E+00  1.87311370E+01
  2.82539436E+00  6.40121692E-01  1.61277759E-01  1.10000000E+00  1.87311370E+01
  2.82539436E+00  6.40121692E-01  1.61277759E-01  1.10000000E+00  1.87311370E+01
  2.82539436E+00  6.40121692E-01  1.61277759E-01  1.10000000E+00  1.87311370E+01
  2.82539436E+00  6.40121692E-01  1.61277759E-01  1.10000000E+00  1.87311370E+01
  2.82539436E+00  6.40121692E-01  1.61277759E-01  1.10000000E+00
Contraction coefficients                   R   N=          84
  1.83107443E-03  1.39501722E-02  6.84450781E-02  2.32714336E-01  4.70192898E-01
  3.58520853E-01 -1.10777550E-01 -1.48026263E-01  1.13076702E+00  1.00000000E+00
  1.00000000E+00  1.83107443E-03  1.39501722E-02  6.84450781E-02  2.32714336E-01
  4.70192898E-01  3.58520853E-01 -1.10777550E-01 -1.48026263E-01  1.13076702E+00
  1.00000000E+00  1.00000000E+00  1.83107443E-03  1.39501722E-02  6.84450781E-02
  2.32714336E-01  4.70192898E-01  3.58520853E-01 -1.10777550E-01 -1.48026263E-01
  1.13076702E+00  1.00000000E+00  1.00000000E+00  1.83107443E-03  1.39501722E-02
  6.84450781E-02  2.32714336E-01  4.70192898E-01  3.58520853E-01 -1.10777550E-01
 -1.48026263E-01  1.13076702E+00  1.00000000E+00  1.00000000E+00  3.34946043E-02
  2.34726953E-01  8.13757326E-01  1.00000000E+00  1.00000000E+00  3.34946043E-02
  2.34726953E-01  8.13757326E-01  1.00000000E+00  1.00000000E+00  3.34946043E-02
  2.34726953E-01  8.13757326E-01  1.00000000E+00  1.00000000E+00  3.34946043E-02
  2.34726953E-01  8.13757326E-01  1.00000000E+00  1.00000000E+00  3.34946043E-02
  2.34726953E-01  8.13757326E-01  1.00000000E+00  1.00000000E+00  3.34946043E-02
  2.34726953E-01  8.13757326E-01  1.00000000E+00  1.00000000E+00  3.34946043E-02
  2.34726953E-01  8.13757326E-01  1.00000000E+00  1.00000000E+00  3.34946043E-02
  2.34726953E-01  8.13757326E-01  1.00000000E+00  1.00000000E+00
P(S=P) Contraction coefficients            R   N=          84
  0.00000000E+00  0.00000000E+00  0.00000000E+00  0.00000000E+00  0.00000000E+00
  0.00000000E+00  7.08742682E-02  3.39752839E-01  7.27158577E-01  1.00000000E+00
  0.00000000E+00  0.00000000E+00  0.00000000E+00  0.00000000E+00  0.00000000E+00
  0.00000000E+00  0.00000000E+00  7.08742682E-02  3.39752839E-01  7.27158577E-01
  1.00000000E+00  0.00000000E+00  0.00000000E+00  0.00000000E+00  0.00000000E+00
  0.00000000E+00  0.00000000E+00  0.00000000E+00  7.08742682E-02  3.39752839E-01
  7.27158577E-01  1.00000000E+00  0.00000000E+00  0.00000000E+00  0.00000000E+00
  0.00000000E+00  0.00000000E+00  0.00000000E+00  0.00000000E+00  7.08742682E-02
  3.39752839E-01  7.27158577E-01  1.00000000E+00  0.00000000E+00  0.00000000E+00
  0.00000000E+00  0.00000000E+00  0.00000000E+00  0.00000000E+00  0.00000000E+00
  0.00000000E+00  0.00000000E+00  0.00000000E+00  0.00000000E+00  0.00000000E+00
  0.00000000E+00  0.00000000E+00  0.00000000E+00  0.00000000E+00  0.00000000E+00
  0.00000000E+00  0.00000000E+00  0.00000000E+00  0.00000000E+00  0.00000000E+00
  0.00000000E+00  0.00000000E+00  0.00000000E+00  0.00000000E+00  0.00000000E+00
  0.00000000E+00  0.00000000E+00  0.00000000E+00  0.00000000E+00  0.00000000E+00
  0.00000000E+00  0.00000000E+00  0.00000000E+00  0.00000000E+00  0.00000000E+00
  0.00000000E+00  0.00000000E+00  0.00000000E+00  0.00000000E+00
Coordinates of each shell                  R   N=         120
  1.64278541E+01 -2.65870709E+01 -1.80414289E+01  1.64278541E+01 -2.65870709E+01
 -1.80414289E+01  1.64278541E+01 -2.65870709E+01 -1.80414289E+01  1.64278541E+01
 -2.65870709E+01 -1.80414289E+01  1.31196920E+01 -2.23542903E+01 -1.58189805E+01
  1.31196920E+01 -2.23542903E+01 -1.58189805E+01  1.31196920E+01 -2.23542903E+01
 -1.58189805E+01  1.31196920E+01 -2.23542903E+01 -1.58189805E+01  1.66319577E+01
 -2.34815044E+01 -1.22781062E+01  1.66319577E+01 -2.34815044E+01 -1.22781062E+01
  1.66319577E+01 -2.34815044E+01 -1.22781062E+01  1.66319577E+01 -2.34815044E+01
 -1.22781062E+01  1.99409759E+01 -1.71212551E+01 -1.46750991E+01  1.99409759E+01
 -1.71212551E+01 -1.46750991E+01  1.99409759E+01 -1.71212551E+01 -1.46750991E+01
  1.99409759E+01 -1.71212551E+01 -1.46750991E+01  1.55337188E+01 -2.59511213E+01
 -1.66033699E+01  1.55337188E+01 -2.59511213E+01 -1.66033699E+01  1.55337188E+01
 -2.59511213E+01 -1.66033699E+01  1.61624534E+01 -2.83754831E+01 -1.79860013E+01
  1.61624534E+01 -2.83754831E+01 -1.79860013E+01  1.61624534E+01 -2.83754831E+01
 -1.79860013E+01  1.41645820E+01 -2.28487768E+01 -1.44277169E+01  1.41645820E+01
 -2.28487768E+01 -1.44277169E+01  1.41645820E+01 -2.28487768E+01 -1.44277169E+01
  1.38091000E+01 -2.07734569E+01 -1.63645142E+01  1.38091000E+01 -2.07734569E+01
 -1.63645142E+01  1.38091000E+01 -2.07734569E+01 -1.63645142E+01  1.71126681E+01
 -2.22023601E+01 -1.10929323E+01  1.71126681E+01 -2.22023601E+01 -1.10929323E+01
  1.71126681E+01 -2.22023601E+01 -1.10929323E+01  1.68931991E+01 -2.50386841E+01
 -1.13955739E+01  1.68931991E+01 -2.50386841E+01 -1.13955739E+01  1.68931991E+01
 -2.50386841E+01 -1.13955739E+01  1.89531215E+01 -1.78628875E+01 -1.33537194E+01
  1.89531215E+01 -1.78628875E+01 -1.33537194E+01  1.89531215E+01 -1.78628875E+01
 -1.33537194E+01  1.90062021E+01 -1.56543646E+01 -1.51714356E+01  1.90062021E+01
 -1.56543646E+01 -1.51714356E+01  1.90062021E+01 -1.56543646E+01 -1.51714356E+01
Num ILSW                                   I              100
ILSW                                       I   N=         100
           0           0           0           0           2           0
           0           0           0           0           0          -1
           5           0           0           0           0           0
           0           0           0           0           0           0
           1           1           0           0           0           0
           0           0      100000           0          -1           0
           0           0           0           0           0           0
           0           0           0           1           0           0
           0 -2000000000           1           0           0           0
           0           0           4          52           0           0
           0           1           0           0           0           0
           0           0           0          12           0           1
           0           0           0           0           0           0
           0           0           0           0           0           0
           0           0           0           0           0           0
           0           0           0           0           0           0
           0           0           0           0
Num RLSW                                   I               52
RLSW                                       R   N=          52
  1.00000000E+00  1.00000000E+00  1.00000000E+00  1.00000000E+00  1.00000000E+00
  0.00000000E+00  0.00000000E+00  1.00000000E+00  0.00000000E+00  0.00000000E+00
  0.00000000E+00  0.00000000E+00  1.00000000E+00  0.00000000E+00  0.00000000E+00
  0.00000000E+00  0.00000000E+00  1.00000000E+00  0.00000000E+00  0.00000000E+00
  0.00000000E+00  0.00000000E+00  1.00000000E+00  0.00000000E+00  0.00000000E+00
  0.00000000E+00  0.00000000E+00  1.00000000E+00  0.00000000E+00  0.00000000E+00
  0.00000000E+00  0.00000000E+00  1.00000000E+00  0.00000000E+00  0.00000000E+00
  0.00000000E+00  0.00000000E+00  0.00000000E+00  1.00000000E+00  1.00000000E+00
  0.00000000E+00  1.00000000E+00  0.00000000E+00  0.00000000E+00  0.00000000E+00
  0.00000000E+00  0.00000000E+00  0.00000000E+00  0.00000000E+00  0.00000000E+00
  0.00000000E+00  0.00000000E+00
MxBond                                     I                2
NBond                                      I   N=          12
           2           2           2           2           1           1
           1           1           1           1           1           1
IBond                                      I   N=          24
           5           6           7           8           9          10
          11          12           1           0           1           0
           2           0           2           0           3           0
           3           0           4           0           4           0
RBond                                      R   N=          24
  1.00000000E+00  1.00000000E+00  1.00000000E+00  1.00000000E+00  1.00000000E+00
  1.00000000E+00  1.00000000E+00  1.00000000E+00  1.00000000E+00  0.00000000E+00
  1.00000000E+00  0.00000000E+00  1.00000000E+00  0.00000000E+00  1.00000000E+00
  0.00000000E+00  1.00000000E+00  0.00000000E+00  1.00000000E+00  0.00000000E+00
  1.00000000E+00  0.00000000E+00  1.00000000E+00  0.00000000E+00
Virial Ratio                               R      2.046528947213352E+00
SCF Energy                                 R     -3.177745506520058E+02
Total Energy                               R     -3.177745506520058E+02
RMS Density                                R      8.008119935737801E-09
Job Status                                 I                1
Nuclear derivative order                   I                0
External E-field                           R   N=          35
  0.00000000E+00  0.00000000E+00  0.00000000E+00  0.00000000E+00  0.00000000E+00
  0.00000000E+00  0.00000000E+00  0.00000000E+00  0.00000000E+00  0.00000000E+00
  0.00000000E+00  0.00000000E+00  0.00000000E+00  0.00000000E+00  0.00000000E+00
  0.00000000E+00  0.00000000E+00  0.00000000E+00  0.00000000E+00  0.00000000E+00
  0.00000000E+00  0.00000000E+00  0.00000000E+00  0.00000000E+00  0.00000000E+00
  0.00000000E+00  0.00000000E+00  0.00000000E+00  0.00000000E+00  0.00000000E+00
  0.00000000E+00  0.00000000E+00  0.00000000E+00  0.00000000E+00  0.00000000E+00
IOpCl                                      I                0
IROHF                                      I                0
Alpha Orbital Energies                     R   N=          96
 -2.06572032E+01 -2.06514114E+01 -2.06007036E+01 -2.05815706E+01 -1.44230547E+00
 -1.43278947E+00 -1.38483829E+00 -1.36821079E+00 -8.03716730E-01 -7.95092196E-01
 -7.57552900E-01 -7.40363258E-01 -6.71338064E-01 -6.65717823E-01 -6.19689604E-01
 -6.07630717E-01 -5.92747116E-01 -5.87461275E-01 -5.44929401E-01 -5.24526901E-01
  9.38307924E-02  1.53942368E-01  1.93937590E-01  2.15887615E-01  2.51251994E-01
  2.77042025E-01  3.21826524E-01  4.18846536E-01  8.81972508E-01  9.30349284E-01
  9.53973261E-01  9.72695897E-01  9.96360613E-01  1.02755246E+00  1.04985578E+00
  1.06270204E+00  1.06920901E+00  1.08211432E+00  1.09921287E+00  1.11165941E+00
  1.13172577E+00  1.15011460E+00  1.20687200E+00  1.21480214E+00  1.25190919E+00
  1.27420422E+00  1.30654518E+00  1.34414080E+00  1.52126989E+00  1.54100747E+00
  1.62478205E+00  1.69933243E+00  1.70669277E+00  1.71210314E+00  1.73819987E+00
  1.74072923E+00  1.76973315E+00  1.78583446E+00  1.80589101E+00  1.82969124E+00
  1.86707508E+00  1.87938438E+00  1.90104492E+00  1.95656653E+00  2.47147913E+00
  2.48983391E+00  2.49820701E+00  2.50104500E+00  2.54124200E+00  2.55125776E+00
  2.60131075E+00  2.65799514E+00  2.71167402E+00  2.73131087E+00  2.78048118E+00
  2.86351087E+00  2.87872893E+00  2.88894270E+00  2.90059270E+00  2.92446779E+00
  2.94061949E+00  2.95038284E+00  2.96778445E+00  3.01527906E+00  3.28738069E+00
  3.28997590E+00  3.34268775E+00  3.38079016E+00  3.65204546E+00  3.68749699E+00
  3.74025830E+00  3.78333320E+00  3.84501442E+00  3.84893732E+00  3.92757171E+00
  3.96641310E+00
Alpha MO coefficients                      R   N=        9216
 -1.09293503E-05 -9.10188089E-06  3.61043907E-06  1.67545221E-06 -7.77751761E-06
  3.89901213E-05  3.61388592E-06 -3.17839223E-05 -6.38524649E-06 -9.80922016E-06
  1.10096377E-05 -8.20017272E-06 -5.98379521E-06  5.65818190E-06  9.88779003E-05
  3.70485975E-04  1.30171689E-05 -4.26910793E-05  8.12585787E-05 -1.29581973E-03
 -3.38868023E-04  3.22128577E-04 -6.53145547E-04 -4.48941146E-05 -1.03825965E-04
  2.62601229E-05 -4.22510219E-05  3.52483837E-05  9.95700763E-01  2.22233548E-02
  5.09634871E-04 -2.01397173E-04  1.78768265E-03 -6.27840851E-03  2.57786610E-04
 -6.21613941E-05 -3.39916064E-04 -1.33035749E-05  9.58388931E-05  3.83881203E-05
 -4.65563637E-04  6.45418686E-05 -1.55125855E-04 -3.62405387E-05  4.56958225E-07
  6.49671047E-07 -3.53703751E-06  1.35894284E-04 -4.05857953E-05 -4.11701490E-05
  6.81293001E-05  5.13606297E-06 -1.40141817E-05 -1.11527740E-05  2.35227003E-06
  7.34588810E-06 -1.38162013E-05 -9.97414060E-05  1.76367975E-05 -3.18266682E-05
 -3.78307970E-05 -1.25434245E-05 -9.90367716E-06 -4.52948036E-06 -6.09313925E-06
  3.97175236E-06  1.74712010E-04  1.90532385E-03  7.60250318E-05  1.08921400E-05
  1.06896072E-05  3.39640390E-05 -3.28626664E-04  1.75201836E-05  2.67309577E-05
  1.21213244E-05 -5.59812727E-04  1.11182810E-03  2.76802683E-04  8.44165360E-04
  7.85009997E-04 -5.86435322E-04  1.04145657E-03  1.34120034E-04 -1.02145793E-03
  5.94944843E-04 -1.01057436E-05 -1.92025679E-04 -1.62331297E-05 -4.67438437E-06
  2.24833936E-05 -1.24417411E-05  4.32814777E-05  3.04550948E-06 -2.00921790E-06
 -1.67623460E-06  1.94411628E-06  3.94997609E-06 -2.80481740E-07 -4.39937524E-08
 -3.94837131E-08 -1.74703183E-05  5.61686195E-06 -3.52976261E-06 -8.22004971E-06
 -9.61711193E-07  1.72887643E-06 -1.16074307E-06  2.18652283E-07  4.80752750E-07
 -5.26625916E-06 -1.10392384E-05  1.41273362E-06 -1.54477617E-06  1.89846044E-06
  4.91495271E-05  7.63319943E-06  4.19403404E-05 -2.02758798E-05 -3.77360516E-06
 -2.69656025E-06 -4.30755102E-06 -5.80483569E-06  7.91083368E-06  1.47220892E-04
 -4.34067243E-05  4.41830100E-06  6.06764861E-06 -1.29650249E-05  2.58580993E-04
  3.43755310E-05  5.43693407E-05  1.44052444E-04  6.71763375E-06  1.23221883E-05
  1.09736188E-05 -2.04820843E-05  2.36243320E-06  9.95708933E-01  2.19898202E-02
 -1.84457096E-03  6.28989111E-04  7.12963580E-04 -6.02487030E-03  8.77294829E-04
 -2.65851395E-04 -3.92748465E-04 -3.09177753E-05 -1.44084836E-04 -3.58124756E-04
 -1.10198227E-04 -1.23276050E-04 -3.07537472E-07  2.37986544E-05  2.55532899E-06
 -1.22225732E-06 -3.33234085E-06  2.42147441E-06 -4.80043664E-06 -2.79399644E-07
  1.05513341E-07  2.28882986E-07  7.55119581E-06  3.30455054E-05  4.83166171E-06
 -2.18988040E-06  1.98602919E-06 -4.71985716E-06 -8.24913191E-05  5.79183874E-06
  1.52630621E-05 -6.58900787E-06  1.74818922E-05 -3.63999051E-04  1.34604155E-05
  4.30214343E-05  4.25526043E-05 -5.82143265E-05  4.02881111E-05  2.49500036E-06
 -1.42967326E-05 -8.73583047E-07 -5.09427530E-04  1.39529921E-03 -6.62338852E-04
 -4.18950127E-04  8.22854621E-04 -5.11200366E-04  1.23000175E-03 -6.48003193E-04
  9.29943937E-04 -2.71892617E-04  9.95714398E-01  2.20969436E-02 -1.09211890E-03
 -1.05940010E-03  1.37741437E-03 -6.44628326E-03  6.57428124E-04  3.59123580E-04
 -8.98514511E-04 -6.26502466E-05 -1.99369236E-04  1.59306779E-04 -2.90722163E-04
 -1.91427646E-05 -4.24661781E-05  1.14322312E-06  2.41245418E-05 -4.95337898E-05
 -3.14548903E-05  2.47182632E-04  1.86278510E-06  2.15618946E-04  2.12616209E-04
  1.71976939E-05  1.86009757E-05 -3.01633498E-05  3.31112348E-06  5.88664022E-05
  6.66928439E-06 -3.27530457E-05  1.67414805E-05 -3.24637005E-05 -3.01780352E-05
  2.02792942E-04 -7.84087226E-05  2.50917496E-04  1.18926468E-04  2.70894580E-06
  2.81040916E-05  3.52962489E-05  1.90012829E-05  1.22917918E-05 -1.30544812E-06
  3.56427085E-06  3.50381072E-07  7.93476254E-08  4.91124480E-07 -1.54785446E-05
  3.89866124E-06  4.50666227E-06 -8.29818156E-06 -7.11945083E-07  1.72884442E-06
  1.14865262E-06 -2.87923949E-07 -8.82663731E-07 -4.83373649E-04  1.98290829E-03
 -5.29615578E-04  3.21549594E-04  8.38512916E-04 -4.66800384E-04  1.11125599E-03
 -2.13289688E-04 -1.14070345E-03  9.97910861E-05  1.07419025E-04 -6.86845431E-04
  1.95416029E-05 -1.57570857E-05  5.56072262E-05 -8.38686150E-05  3.79962204E-05
  2.81151171E-05  8.51150686E-06 -2.15808677E-05 -1.38609238E-04 -6.17200833E-05
  2.54333720E-05  2.20565355E-05  3.04565035E-05  9.09957872E-05 -5.75649678E-05
  4.08184897E-06 -7.77423746E-06 -2.93547331E-05  3.36612896E-07  2.18432047E-05
  2.17196050E-06  1.23978604E-06 -2.98348173E-06  7.66025224E-07 -4.18800015E-06
 -2.35676468E-07  3.11345886E-07  3.16374068E-07  4.58137477E-05  5.60241971E-05
  2.26174232E-05 -5.57589763E-06  5.12039383E-07 -2.62007149E-04  4.87833700E-05
 -6.12114047E-05 -1.41935130E-04 -6.20000564E-06  3.44902191E-05 -2.82408488E-05
  8.52885425E-06  1.66657147E-05  9.95720178E-01  2.24097988E-02  1.56180466E-03
  8.83777102E-04  7.73838064E-04 -7.40187742E-03 -1.16925079E-03 -3.19545920E-06
 -1.08344366E-03 -5.02607708E-05  5.64948994E-05 -2.94881399E-04 -1.90724935E-04
  1.63418752E-04 -6.79665565E-05  3.36808601E-04 -1.49130731E-04  2.45675270E-05
 -1.18850399E-04 -6.66183048E-04  7.82381527E-04 -1.36307925E-04  7.40014537E-04
  1.85689529E-05 -1.02161121E-04  3.21949489E-05 -8.60801869E-05  4.00686656E-05
  2.98980498E-06 -1.37476515E-05 -5.76888384E-06 -3.07168290E-06 -3.91505675E-06
  6.97566196E-05 -6.20441764E-06 -1.36547987E-06  3.17195697E-05  2.65678862E-06
 -5.78397065E-06 -3.11631981E-06 -7.44910671E-07  9.91556966E-07 -4.00880580E-05
  2.83170692E-04  3.10288413E-05 -2.89620267E-05 -1.05902898E-04  3.87148681E-05
 -6.29366114E-05  4.43753385E-06  5.05097281E-06  6.99497144E-06 -2.90569978E-04
  3.25299545E-03  6.47694746E-04 -2.02921447E-04  7.32601694E-04 -4.81693455E-04
  8.76589679E-04  5.19340033E-04  1.02502618E-03 -2.82112384E-04 -4.07251413E-05
 -2.72026699E-04 -4.76923865E-05  8.30179759E-05 -4.74545964E-06 -1.21817307E-05
 -2.54726596E-04 -6.55718709E-05 -5.79140853E-05 -3.44218722E-05  9.15702147E-06
 -7.85746405E-05 -1.00216151E-05 -9.19539522E-06  1.19229421E-05  4.45046346E-06
 -1.41525081E-05 -3.74212556E-06  1.11617114E-06 -3.63599434E-06 -3.79941669E-03
  8.52663718E-03 -1.01710814E-03 -2.82856378E-04  1.55694044E-03  6.45652672E-03
  1.21892212E-04  1.36305474E-04  5.43814125E-04  1.27354858E-04 -1.24128938E-04
  4.91449751E-05  4.93583038E-05 -5.14332450E-05 -2.13267275E-02  4.51192736E-02
  8.93101771E-03  1.84273645E-03  6.44571016E-03  4.74342469E-02  4.93552075E-03
 -1.22225514E-03  5.43836134E-03  2.54100573E-04  1.09480896E-03 -1.73433077E-04
  4.84837122E-04 -4.51833300E-05 -2.11614698E-01  4.67894170E-01  2.36206951E-02
 -8.67534100E-03  7.27466246E-02  4.44234360E-01  3.43311879E-03 -1.11300678E-03
  2.25251315E-02  1.91216324E-03  4.07276083E-03 -5.36777721E-04 -1.30981101E-03
 -8.13114826E-05 -5.05309572E-03  1.17559910E-02 -1.82262112E-03  4.34893615E-04
  8.41127191E-04  8.15675991E-03 -5.65099735E-05  7.02815446E-04 -1.07884963E-03
 -7.78510037E-05  1.22194200E-04  1.09004036E-04 -1.33672643E-05 -1.24510684E-04
  3.63450874E-03  3.20555669E-03  3.08736487E-04  5.87217613E-05 -1.76123431E-05
  2.49397828E-03 -5.19879216E-06  3.08290095E-05  5.16576260E-04 -1.54471905E-05
  2.29240821E-02 -5.35773308E-03 -1.15117928E-03  7.12191910E-04 -1.78638734E-03
  1.27736850E-02  2.60663122E-03 -7.26703252E-04 -2.38513406E-03  1.05932099E-03
  1.42716855E-01  9.09608716E-03 -6.11925409E-03 -1.99364116E-02 -1.56069760E-02
  1.41057180E-01  7.74232516E-03 -3.05398442E-03  2.36145669E-02 -1.08222883E-02
  3.65675147E-03  4.30007866E-03  5.41574420E-04  4.06899922E-04 -7.95094542E-04
  3.56410778E-03 -5.95172999E-04  2.56463090E-04 -5.05706303E-04  2.38519394E-04
  1.01409602E-04 -2.58663930E-04  2.78784187E-05  9.72096229E-06 -4.32323090E-05
 -5.22280846E-05 -4.09353437E-05  3.04575587E-05  5.28952576E-05  3.28802395E-06
 -7.28153627E-06  5.98735493E-06 -4.22072124E-07 -2.45416662E-06  4.96407352E-04
 -8.11434576E-04 -1.92184684E-04  1.48404755E-05 -1.70370338E-04 -2.03499787E-03
 -2.68094818E-04 -5.80372556E-04  1.40885031E-04  3.72355376E-05 -3.72256241E-07
  5.59307985E-05  5.32600951E-05 -7.68089761E-05  5.29131364E-03 -1.13154228E-02
 -5.30244135E-04  3.96349338E-04 -1.77805316E-03 -1.29652581E-02 -2.29758340E-04
 -3.08283171E-04 -1.65625533E-03 -8.87569383E-05 -1.60498101E-04 -3.87532564E-05
  1.41275272E-04 -1.29520533E-05 -2.12519645E-01  4.70619370E-01 -7.24203562E-02
  2.48280181E-02  2.80431775E-02  4.43687043E-01 -2.90620517E-02  5.40579322E-03
  6.40952718E-03 -4.10617287E-04 -2.22705260E-03 -1.01520288E-03  4.98654562E-04
 -1.96342514E-03 -8.96129250E-05 -2.83763380E-04 -2.06992779E-05  8.01485005E-06
  2.31702519E-05 -8.05560175E-05  4.18832850E-05  5.17611705E-07 -1.39562870E-05
 -1.98591705E-06 -5.57299797E-04 -1.69133474E-04  1.24122710E-05  9.35913022E-06
  2.69007986E-05 -2.26963921E-04  1.44378480E-03 -5.39817235E-05 -1.19294337E-04
  4.28739880E-05 -3.61486411E-03  2.87090068E-03  6.60358034E-05  2.46505342E-04
  1.83576724E-04 -3.27784381E-03 -5.34764992E-04  6.06944502E-05 -5.12716630E-04
  2.79666765E-04  1.44126200E-01  8.26984170E-03  1.28202498E-02  1.22828643E-02
 -1.92488301E-02  1.44072734E-01  9.45495490E-03  1.20774847E-02 -2.18086366E-02
  8.39326570E-03 -2.09264010E-01  4.61718911E-01 -4.30759293E-02 -4.04798912E-02
  5.41927879E-02  4.40920090E-01 -1.80535988E-02 -1.23563870E-02  2.16386314E-02
  6.84982261E-04 -3.04704517E-03 -1.23859335E-03 -1.95926638E-03  5.97875221E-04
 -3.57778624E-02  7.78886603E-02  1.16503922E-02  4.39014914E-03  4.67676374E-03
  7.58528090E-02  5.40991053E-03 -1.61584287E-03  5.58228212E-04 -2.52798707E-04
  3.39105335E-04  1.28237583E-04  5.21422699E-05 -2.28817327E-04  8.31821040E-03
 -1.85902697E-02 -2.28924569E-03  4.79938968E-04 -4.78641290E-03 -1.84254217E-02
 -1.19727211E-03 -1.35415582E-03 -4.30258726E-03 -1.11385589E-04 -2.09890405E-04