Atom number=12                                                          
SP        RHF                                                         6-31G(d,p)          
Number of atoms                            I               12
Info1-9                                    I   N=           9
         107         106           0           0           0         111
           1           1           2
Full Title                                 C   N=           2
Atom number=12          
Route                                      C   N=           4
#p hf/6-31g** 5d 7f pop=npa charge nosymm       
Charge                                     I                0
Multiplicity                               I                1
Number of electrons                        I               40
Number of alpha electrons                  I               20
Number of beta electrons                   I               20
Number of basis functions                  I               96
Number of independent functions            I               96
Number of point charges in /Mol/           I                0
Number of translation vectors              I                0
Atomic numbers                             I   N=          12
           8           8           8           8           1           1
           1           1           1           1           1           1
Nuclear charges                            R   N=          12
  8.00000000E+00  8.00000000E+00  8.00000000E+00  8.00000000E+00  1.00000000E+00
  1.00000000E+00  1.00000000E+00  1.00000000E+00  1.00000000E+00  1.00000000E+00
  1.00000000E+00  1.00000000E+00
Current cartesian coordinates              R   N=          36
  1.58591958E+01 -2.23232232E+01 -2.11658453E+01  1.37010511E+01 -1.86319947E+01
 -2.47619431E+01  1.31641969E+01 -1.74757998E+01 -1.94156226E+01  1.90577217E+01
 -1.81470343E+01 -2.58786843E+01  1.54490326E+01 -2.36930366E+01 -2.00580047E+01
  1.74840371E+01 -2.17584956E+01 -2.06064713E+01  1.34560972E+01 -1.93157846E+01
 -2.64185526E+01  1.38733941E+01 -2.00816358E+01 -2.36938794E+01  1.31811270E+01
 -1.86043839E+01 -2.08291075E+01  1.45213642E+01 -1.63243462E+01 -1.97383746E+01
  1.85910557E+01 -1.86665521E+01 -2.75472898E+01  1.75122961E+01 -1.81949823E+01
 -2.49399156E+01
Number of symbols in /Mol/                 I                0
Force Field                                I                0
Atom Types                                 C   N=          12
                                                            
                                                            
                        
Int Atom Types                             I   N=          12
           0           0           0           0           0           0
           0           0           0           0           0           0
MM charges                                 R   N=          12
  0.00000000E+00  0.00000000E+00  0.00000000E+00  0.00000000E+00  0.00000000E+00
  0.00000000E+00  0.00000000E+00  0.00000000E+00  0.00000000E+00  0.00000000E+00
  0.00000000E+00  0.00000000E+00
Integer atomic weights                     I   N=          12
          16          16          16          16           1           1
           1           1           1           1           1           1
Real atomic weights                        R   N=          12
  1.59949146E+01  1.59949146E+01  1.59949146E+01  1.59949146E+01  1.00782504E+00
  1.00782504E+00  1.00782504E+00  1.00782504E+00  1.00782504E+00  1.00782504E+00
  1.00782504E+00  1.00782504E+00
Atom fragment info                         I   N=          12
           0           0           0           0           0           0
           0           0           0           0           0           0
Atom residue num                           I   N=          12
           0           0           0           0           0           0
           0           0           0           0           0           0
Nuclear spins                              I   N=          12
           0           0           0           0           1           1
           1           1           1           1           1           1
Nuclear ZEff                               R   N=          12
 -5.60000000E+00 -5.60000000E+00 -5.60000000E+00 -5.60000000E+00 -1.00000000E+00
 -1.00000000E+00 -1.00000000E+00 -1.00000000E+00 -1.00000000E+00 -1.00000000E+00
 -1.00000000E+00 -1.00000000E+00
Nuclear ZNuc                               R   N=          12
  8.00000000E+00  8.00000000E+00  8.00000000E+00  8.00000000E+00  1.00000000E+00
  1.00000000E+00  1.00000000E+00  1.00000000E+00  1.00000000E+00  1.00000000E+00
  1.00000000E+00  1.00000000E+00
Nuclear QMom                               R   N=          12
  0.00000000E+00  0.00000000E+00  0.00000000E+00  0.00000000E+00  0.00000000E+00
  0.00000000E+00  0.00000000E+00  0.00000000E+00  0.00000000E+00  0.00000000E+00
  0.00000000E+00  0.00000000E+00
Nuclear GFac                               R   N=          12
  0.00000000E+00  0.00000000E+00  0.00000000E+00  0.00000000E+00  2.79284600E+00
  2.79284600E+00  2.79284600E+00  2.79284600E+00  2.79284600E+00  2.79284600E+00
  2.79284600E+00  2.79284600E+00
MicOpt                                     I   N=          12
          -1          -1          -1          -1          -1          -1
          -1          -1          -1          -1          -1          -1
Number of residues                         I                0
Number of secondary structures             I                0
Number of contracted shells                I               40
Number of primitive shells                 I               84
Pure/Cartesian d shells                    I                0
Pure/Cartesian f shells                    I                0
Highest angular momentum                   I                2
Largest degree of contraction              I                6
Shell types                                I   N=          40
           0          -1          -1          -2           0          -1
          -1          -2           0          -1          -1          -2
           0          -1          -1          -2           0           0
           1           0           0           1           0           0
           1           0           0           1           0           0
           1           0           0           1           0           0
           1           0           0           1
Number of primitives per shell             I   N=          40
           6           3           1           1           6           3
           1           1           6           3           1           1
           6           3           1           1           3           1
           1           3           1           1           3           1
           1           3           1           1           3           1
           1           3           1           1           3           1
           1           3           1           1
Shell to atom map                          I   N=          40
           1           1           1           1           2           2
           2           2           3           3           3           3
           4           4           4           4           5           5
           5           6           6           6           7           7
           7           8           8           8           9           9
           9          10          10          10          11          11
          11          12          12          12
Primitive exponents                        R   N=          84
  5.48467166E+03  8.25234946E+02  1.88046958E+02  5.29645000E+01  1.68975704E+01
  5.79963534E+00  1.55396162E+01  3.59993359E+00  1.01376175E+00  2.70005823E-01
  8.00000000E-01  5.48467166E+03  8.25234946E+02  1.88046958E+02  5.29645000E+01
  1.68975704E+01  5.79963534E+00  1.55396162E+01  3.59993359E+00  1.01376175E+00
  2.70005823E-01  8.00000000E-01  5.48467166E+03  8.25234946E+02  1.88046958E+02
  5.29645000E+01  1.68975704E+01  5.79963534E+00  1.55396162E+01  3.59993359E+00
  1.01376175E+00  2.70005823E-01  8.00000000E-01  5.48467166E+03  8.25234946E+02
  1.88046958E+02  5.29645000E+01  1.68975704E+01  5.79963534E+00  1.55396162E+01
  3.59993359E+00  1.01376175E+00  2.70005823E-01  8.00000000E-01  1.87311370E+01
  2.82539436E+00  6.40121692E-01  1.61277759E-01  1.10000000E+00  1.87311370E+01
  2.82539436E+00  6.40121692E-01  1.61277759E-01  1.10000000E+00  1.87311370E+01
  2.82539436E+00  6.40121692E-01  1.61277759E-01  1.10000000E+00  1.87311370E+01
  2.82539436E+00  6.40121692E-01  1.61277759E-01  1.10000000E+00  1.87311370E+01
  2.82539436E+00  6.40121692E-01  1.61277759E-01  1.10000000E+00  1.87311370E+01
  2.82539436E+00  6.40121692E-01  1.61277759E-01  1.10000000E+00  1.87311370E+01
  2.82539436E+00  6.40121692E-01  1.61277759E-01  1.10000000E+00  1.87311370E+01
  2.82539436E+00  6.40121692E-01  1.61277759E-01  1.10000000E+00
Contraction coefficients                   R   N=          84
  1.83107443E-03  1.39501722E-02  6.84450781E-02  2.32714336E-01  4.70192898E-01
  3.58520853E-01 -1.10777550E-01 -1.48026263E-01  1.13076702E+00  1.00000000E+00
  1.00000000E+00  1.83107443E-03  1.39501722E-02  6.84450781E-02  2.32714336E-01
  4.70192898E-01  3.58520853E-01 -1.10777550E-01 -1.48026263E-01  1.13076702E+00
  1.00000000E+00  1.00000000E+00  1.83107443E-03  1.39501722E-02  6.84450781E-02
  2.32714336E-01  4.70192898E-01  3.58520853E-01 -1.10777550E-01 -1.48026263E-01
  1.13076702E+00  1.00000000E+00  1.00000000E+00  1.83107443E-03  1.39501722E-02
  6.84450781E-02  2.32714336E-01  4.70192898E-01  3.58520853E-01 -1.10777550E-01
 -1.48026263E-01  1.13076702E+00  1.00000000E+00  1.00000000E+00  3.34946043E-02
  2.34726953E-01  8.13757326E-01  1.00000000E+00  1.00000000E+00  3.34946043E-02
  2.34726953E-01  8.13757326E-01  1.00000000E+00  1.00000000E+00  3.34946043E-02
  2.34726953E-01  8.13757326E-01  1.00000000E+00  1.00000000E+00  3.34946043E-02
  2.34726953E-01  8.13757326E-01  1.00000000E+00  1.00000000E+00  3.34946043E-02
  2.34726953E-01  8.13757326E-01  1.00000000E+00  1.00000000E+00  3.34946043E-02
  2.34726953E-01  8.13757326E-01  1.00000000E+00  1.00000000E+00  3.34946043E-02
  2.34726953E-01  8.13757326E-01  1.00000000E+00  1.00000000E+00  3.34946043E-02
  2.34726953E-01  8.13757326E-01  1.00000000E+00  1.00000000E+00
P(S=P) Contraction coefficients            R   N=          84
  0.00000000E+00  0.00000000E+00  0.00000000E+00  0.00000000E+00  0.00000000E+00
  0.00000000E+00  7.08742682E-02  3.39752839E-01  7.27158577E-01  1.00000000E+00
  0.00000000E+00  0.00000000E+00  0.00000000E+00  0.00000000E+00  0.00000000E+00
  0.00000000E+00  0.00000000E+00  7.08742682E-02  3.39752839E-01  7.27158577E-01
  1.00000000E+00  0.00000000E+00  0.00000000E+00  0.00000000E+00  0.00000000E+00
  0.00000000E+00  0.00000000E+00  0.00000000E+00  7.08742682E-02  3.39752839E-01
  7.27158577E-01  1.00000000E+00  0.00000000E+00  0.00000000E+00  0.00000000E+00
  0.00000000E+00  0.00000000E+00  0.00000000E+00  0.00000000E+00  7.08742682E-02
  3.39752839E-01  7.27158577E-01  1.00000000E+00  0.00000000E+00  0.00000000E+00
  0.00000000E+00  0.00000000E+00  0.00000000E+00  0.00000000E+00  0.00000000E+00
  0.00000000E+00  0.00000000E+00  0.00000000E+00  0.00000000E+00  0.00000000E+00
  0.00000000E+00  0.00000000E+00  0.00000000E+00  0.00000000E+00  0.00000000E+00
  0.00000000E+00  0.00000000E+00  0.00000000E+00  0.00000000E+00  0.00000000E+00
  0.00000000E+00  0.00000000E+00  0.00000000E+00  0.00000000E+00  0.00000000E+00
  0.00000000E+00  0.00000000E+00  0.00000000E+00  0.00000000E+00  0.00000000E+00
  0.00000000E+00  0.00000000E+00  0.00000000E+00  0.00000000E+00  0.00000000E+00
  0.00000000E+00  0.00000000E+00  0.00000000E+00  0.00000000E+00
Coordinates of each shell                  R   N=         120
  1.58591958E+01 -2.23232232E+01 -2.11658453E+01  1.58591958E+01 -2.23232232E+01
 -2.11658453E+01  1.58591958E+01 -2.23232232E+01 -2.11658453E+01  1.58591958E+01
 -2.23232232E+01 -2.11658453E+01  1.37010511E+01 -1.86319947E+01 -2.47619431E+01
  1.37010511E+01 -1.86319947E+01 -2.47619431E+01  1.37010511E+01 -1.86319947E+01
 -2.47619431E+01  1.37010511E+01 -1.86319947E+01 -2.47619431E+01  1.31641969E+01
 -1.74757998E+01 -1.94156226E+01  1.31641969E+01 -1.74757998E+01 -1.94156226E+01
  1.31641969E+01 -1.74757998E+01 -1.94156226E+01  1.31641969E+01 -1.74757998E+01
 -1.94156226E+01  1.90577217E+01 -1.81470343E+01 -2.58786843E+01  1.90577217E+01
 -1.81470343E+01 -2.58786843E+01  1.90577217E+01 -1.81470343E+01 -2.58786843E+01
  1.90577217E+01 -1.81470343E+01 -2.58786843E+01  1.54490326E+01 -2.36930366E+01
 -2.00580047E+01  1.54490326E+01 -2.36930366E+01 -2.00580047E+01  1.54490326E+01
 -2.36930366E+01 -2.00580047E+01  1.74840371E+01 -2.17584956E+01 -2.06064713E+01
  1.74840371E+01 -2.17584956E+01 -2.06064713E+01  1.74840371E+01 -2.17584956E+01
 -2.06064713E+01  1.34560972E+01 -1.93157846E+01 -2.64185526E+01  1.34560972E+01
 -1.93157846E+01 -2.64185526E+01  1.34560972E+01 -1.93157846E+01 -2.64185526E+01
  1.38733941E+01 -2.00816358E+01 -2.36938794E+01  1.38733941E+01 -2.00816358E+01
 -2.36938794E+01  1.38733941E+01 -2.00816358E+01 -2.36938794E+01  1.31811270E+01
 -1.86043839E+01 -2.08291075E+01  1.31811270E+01 -1.86043839E+01 -2.08291075E+01
  1.31811270E+01 -1.86043839E+01 -2.08291075E+01  1.45213642E+01 -1.63243462E+01
 -1.97383746E+01  1.45213642E+01 -1.63243462E+01 -1.97383746E+01  1.45213642E+01
 -1.63243462E+01 -1.97383746E+01  1.85910557E+01 -1.86665521E+01 -2.75472898E+01
  1.85910557E+01 -1.86665521E+01 -2.75472898E+01  1.85910557E+01 -1.86665521E+01
 -2.75472898E+01  1.75122961E+01 -1.81949823E+01 -2.49399156E+01  1.75122961E+01
 -1.81949823E+01 -2.49399156E+01  1.75122961E+01 -1.81949823E+01 -2.49399156E+01
Num ILSW                                   I              100
ILSW                                       I   N=         100
           0           0           0           0           2           0
           0           0           0           0           0          -1
           5           0           0           0           0           0
           0           0           0           0           0           0
           1           1           0           0           0           0
           0           0      100000           0          -1           0
           0           0           0           0           0           0
           0           0           0           1           0           0
           0 -2000000000           1           0           0           0
           0           0           4          52           0           0
           0           1           0           0           0           0
           0           0           0          12           0           1
           0           0           0           0           0           0
           0           0           0           0           0           0
           0           0           0           0           0           0
           0           0           0           0           0           0
           0           0           0           0
Num RLSW                                   I               52
RLSW                                       R   N=          52
  1.00000000E+00  1.00000000E+00  1.00000000E+00  1.00000000E+00  1.00000000E+00
  0.00000000E+00  0.00000000E+00  1.00000000E+00  0.00000000E+00  0.00000000E+00
  0.00000000E+00  0.00000000E+00  1.00000000E+00  0.00000000E+00  0.00000000E+00
  0.00000000E+00  0.00000000E+00  1.00000000E+00  0.00000000E+00  0.00000000E+00
  0.00000000E+00  0.00000000E+00  1.00000000E+00  0.00000000E+00  0.00000000E+00
  0.00000000E+00  0.00000000E+00  1.00000000E+00  0.00000000E+00  0.00000000E+00
  0.00000000E+00  0.00000000E+00  1.00000000E+00  0.00000000E+00  0.00000000E+00
  0.00000000E+00  0.00000000E+00  0.00000000E+00  1.00000000E+00  1.00000000E+00
  0.00000000E+00  1.00000000E+00  0.00000000E+00  0.00000000E+00  0.00000000E+00
  0.00000000E+00  0.00000000E+00  0.00000000E+00  0.00000000E+00  0.00000000E+00
  0.00000000E+00  0.00000000E+00
MxBond                                     I                2
NBond                                      I   N=          12
           2           2           2           2           1           1
           1           1           1           1           1           1
IBond                                      I   N=          24
           5           6           7           8           9          10
          11          12           1           0           1           0
           2           0           2           0           3           0
           3           0           4           0           4           0
RBond                                      R   N=          24
  1.00000000E+00  1.00000000E+00  1.00000000E+00  1.00000000E+00  1.00000000E+00
  1.00000000E+00  1.00000000E+00  1.00000000E+00  1.00000000E+00  0.00000000E+00
  1.00000000E+00  0.00000000E+00  1.00000000E+00  0.00000000E+00  1.00000000E+00
  0.00000000E+00  1.00000000E+00  0.00000000E+00  1.00000000E+00  0.00000000E+00
  1.00000000E+00  0.00000000E+00  1.00000000E+00  0.00000000E+00
Virial Ratio                               R      2.046277093944172E+00
SCF Energy                                 R     -3.176559055762865E+02
Total Energy                               R     -3.176559055762865E+02
RMS Density                                R      4.731633624882564E-09
Job Status                                 I                1
Nuclear derivative order                   I                0
External E-field                           R   N=          35
  0.00000000E+00  0.00000000E+00  0.00000000E+00  0.00000000E+00  0.00000000E+00
  0.00000000E+00  0.00000000E+00  0.00000000E+00  0.00000000E+00  0.00000000E+00
  0.00000000E+00  0.00000000E+00  0.00000000E+00  0.00000000E+00  0.00000000E+00
  0.00000000E+00  0.00000000E+00  0.00000000E+00  0.00000000E+00  0.00000000E+00
  0.00000000E+00  0.00000000E+00  0.00000000E+00  0.00000000E+00  0.00000000E+00
  0.00000000E+00  0.00000000E+00  0.00000000E+00  0.00000000E+00  0.00000000E+00
  0.00000000E+00  0.00000000E+00  0.00000000E+00  0.00000000E+00  0.00000000E+00
IOpCl                                      I                0
IROHF                                      I                0
Alpha Orbital Energies                     R   N=          96
 -2.05465355E+01 -2.05420661E+01 -2.05310672E+01 -2.05084460E+01 -1.33323184E+00
 -1.32547848E+00 -1.31500909E+00 -1.29155198E+00 -7.05069127E-01 -6.89139430E-01
 -6.69984500E-01 -6.57551329E-01 -5.73738911E-01 -5.65999975E-01 -5.44397196E-01
 -5.35253405E-01 -4.99738325E-01 -4.79069704E-01 -4.65957067E-01 -4.53956316E-01
  2.25271164E-01  2.91112245E-01  3.00345731E-01  3.33172212E-01  3.74426845E-01
  3.97144761E-01  4.28152398E-01  4.79217189E-01  9.85505166E-01  1.01776677E+00
  1.06487907E+00  1.07107670E+00  1.08640700E+00  1.11836596E+00  1.12558878E+00
  1.13589936E+00  1.16306725E+00  1.17757898E+00  1.19461475E+00  1.22007959E+00
  1.26083684E+00  1.28682414E+00  1.31377875E+00  1.32279802E+00  1.35312960E+00
  1.38963758E+00  1.43329298E+00  1.46172227E+00  1.61567195E+00  1.67356619E+00
  1.72859658E+00  1.76341407E+00  1.81730566E+00  1.82714980E+00  1.83344059E+00
  1.84007391E+00  1.85492490E+00  1.89759685E+00  1.92353311E+00  1.94582026E+00
  1.96176841E+00  1.97535539E+00  2.03682870E+00  2.05172616E+00  2.57301105E+00
  2.58797824E+00  2.60784222E+00  2.61073715E+00  2.63400687E+00  2.65906702E+00
  2.67980847E+00  2.68385883E+00  2.81674503E+00  2.83807530E+00  2.86822402E+00
  2.90802202E+00  2.99488976E+00  2.99821028E+00  3.01249086E+00  3.02752004E+00
  3.03477300E+00  3.03986983E+00  3.04629278E+00  3.08672764E+00  3.40366462E+00
  3.41539177E+00  3.42896727E+00  3.45730362E+00  3.78491390E+00  3.79405034E+00
  3.80672786E+00  3.86174092E+00  3.95030969E+00  4.00228120E+00  4.02652515E+00
  4.06006456E+00
Alpha MO coefficients                      R   N=        9216
  9.95698166E-01  2.20909588E-02  1.01870449E-03 -6.44743090E-04  1.44334600E-03
 -5.99799886E-03 -2.59063815E-04  7.28509207E-05 -4.50261219E-04 -1.26207633E-04
  6.52193428E-05 -2.41106346E-04  6.56897057E-05  3.65385732E-04  2.31667382E-04
  2.18565997E-04 -2.92147334E-05 -1.09555495E-05  4.01332325E-05 -7.89374642E-04
  1.88613772E-05  3.42128045E-04 -4.39506195E-04 -1.76832708E-05 -1.77326143E-05
  9.16351022E-05  6.18619071E-05  2.70001949E-05 -4.93457267E-05  7.47276890E-05
 -2.28669215E-05  1.81751780E-05  2.48414262E-06 -3.53593147E-04  7.43521428E-05
  1.51900947E-04  1.83567880E-04 -3.20810243E-05  2.60919115E-06 -5.06937181E-05
  2.25780828E-05  1.17502057E-05 -1.82453295E-06 -3.75532628E-06  1.44852193E-06
 -7.90802798E-06  3.79538200E-06  4.60332245E-05 -1.58419150E-05  1.97287657E-05
 -3.85625492E-06  2.60730929E-06  3.06893657E-06  2.90214210E-06 -6.34094719E-07
 -1.40651858E-06 -5.73533293E-04  1.12454043E-03 -2.50716653E-04 -8.73114260E-04
  7.39040502E-04 -5.52677164E-04  1.15090509E-03  1.04011694E-03  3.59427596E-04
  3.84129169E-04  3.14240809E-05 -2.23764930E-04 -1.42320339E-05 -1.99378990E-05
 -4.25462387E-06  8.22740632E-05  1.01407765E-03  4.94961390E-05  9.39878657E-05
 -4.96411451E-05 -4.61069326E-05  5.15337364E-04  7.91551480E-06  7.70159573E-05
  9.98713377E-05 -1.22396752E-06 -1.22572826E-04  5.11048720E-06  1.83899110E-05
 -9.41078021E-06 -6.80880782E-06  1.46128592E-05 -3.51938884E-06 -4.49791183E-06
  3.32518599E-07  1.25644387E-05 -1.14108849E-04  1.14252062E-06  6.33094581E-06
 -2.80104529E-06  5.98262835E-05  4.80398287E-05 -2.05991394E-05  2.60605531E-05
  3.93108493E-05 -1.00275928E-04  9.61964288E-05 -9.36060865E-05 -1.91433320E-04
  3.40784218E-05  3.54876140E-05 -2.10083100E-05  2.35622509E-05  2.78107208E-05
 -1.03869551E-04  1.08679394E-05 -3.25063597E-05  3.80322402E-05  7.60445702E-05
  2.76750055E-04  1.21993689E-04 -3.08291761E-04 -3.60430020E-04 -2.40740397E-05
  3.61266351E-05  1.13217294E-05 -9.34784233E-06  4.68801908E-06  9.95718005E-01
  2.22564413E-02  1.23065298E-03 -1.08129060E-06 -1.48016331E-03 -7.02874956E-03
 -4.78473517E-04  4.79334307E-04  1.17529862E-03 -1.06027107E-04 -6.85488481E-05
  1.22310436E-04 -4.14148371E-05  3.43230192E-04 -1.97831726E-05 -2.48356094E-05
 -2.77420674E-06  4.36634120E-06 -2.16002694E-06  1.02540870E-04 -4.92193930E-05
 -1.22303184E-05  3.51464465E-05 -3.49810398E-06 -1.26848678E-05  6.02820393E-07
  1.11682770E-05  1.80594486E-06  5.16005044E-05  1.86523378E-06 -1.00403296E-05
  2.11936052E-05  1.14911338E-05  2.21966330E-06 -5.34515313E-06 -3.75442971E-06
  1.00699947E-05  2.22174404E-05 -1.83594009E-04  4.26273901E-05 -1.87491786E-05
 -2.04445960E-05 -1.19642010E-05  1.07836086E-04 -9.84444080E-04  2.48964599E-05
 -8.95229300E-05 -4.95369531E-05 -4.09999208E-04  2.77240603E-03  7.44355343E-05
 -5.23112340E-04 -7.64528460E-04 -5.22311029E-04  1.05603350E-03  8.93332522E-04
  7.01003054E-04 -2.82478028E-04 -4.07319262E-06  7.07888475E-06  3.00357475E-06
  2.18778080E-06 -2.70074730E-06 -1.96373548E-06 -1.05786366E-04 -2.54424255E-05
 -7.04380949E-06  2.20472220E-05 -2.18752154E-04  1.28784145E-04 -7.23519395E-05
  6.84673915E-05 -8.59394637E-05 -4.42410715E-05  3.99100565E-04 -3.34380203E-04
  4.65547307E-04 -7.16340299E-06 -6.68543647E-06  9.90860323E-06  1.47852256E-05
  5.62033949E-05  9.95712311E-01  2.23038359E-02  2.53818817E-05 -1.89631192E-03
 -4.79519859E-04 -6.76316279E-03 -3.43128206E-04  1.08727546E-03 -1.08223677E-04
  3.50919903E-04  1.18100354E-04 -9.69195935E-06 -2.29843092E-04 -2.70842205E-06
  1.03989852E-04  4.96851668E-05 -2.49929746E-06 -1.60513076E-05  1.58205635E-05
 -1.73417469E-04  4.87072251E-05  1.42937461E-04  7.64812864E-05 -4.35097863E-05
 -2.18037220E-06 -3.01801514E-05 -1.63460891E-06  2.53542305E-05  1.73662389E-04
  2.53864037E-04 -1.03299905E-05  4.38242910E-06  4.96362566E-05 -8.88410973E-04
  4.45547255E-04 -2.53696694E-05 -4.70673548E-04  7.25163574E-05  9.74114580E-05
  2.36677620E-05 -9.53996220E-05 -9.77933148E-06 -1.07784285E-04 -1.50644589E-04
 -6.78788055E-05 -2.79713921E-05 -1.46162253E-06 -6.27542601E-05 -2.93837216E-04
  5.28584346E-05  7.09219167E-05 -1.89612805E-05 -4.62270665E-04  9.88810728E-04
 -1.20259700E-04 -5.13758501E-04 -1.04963578E-03 -3.49653107E-04  1.88994428E-03
  1.60242579E-04 -8.62613765E-04  5.72885499E-04 -3.44307809E-05  2.74768833E-04
  5.96466581E-06  8.19965837E-05 -1.98222975E-05 -4.55488468E-05 -8.07588608E-05
  2.27153992E-05  1.34568691E-05 -3.81894130E-07 -2.80653579E-05 -2.89226824E-04
 -3.00971673E-05 -1.80815145E-05 -3.82970545E-05  1.09001499E-04  1.30002038E-03
  1.41650305E-05 -1.18213523E-05 -1.27046574E-04 -9.96911743E-07 -1.04156740E-05
  1.08678966E-05  1.49416977E-05 -1.31560558E-05  1.04313491E-04 -7.91636746E-05
 -1.02721746E-04  6.78720193E-05  1.25579961E-05 -3.21538560E-06 -2.89793650E-05
 -2.53458634E-05 -1.36144488E-05 -1.53429278E-04  1.92269039E-04  1.23197505E-04
  3.92148222E-05  1.02609734E-05 -2.69029567E-04 -5.65306734E-04 -1.63234619E-04
 -1.28659437E-04  6.73283188E-05  9.62217792E-06  5.27775326E-05 -8.05940531E-05
  7.36900001E-06  1.53654073E-05 -2.21307132E-05 -1.14921938E-06 -5.97653587E-06
 -3.85457404E-06  9.68345675E-05  7.25932568E-05  8.38197260E-05  5.99147031E-06
 -1.27173893E-05 -6.28794738E-06 -7.45626746E-06  3.95800797E-06  2.29385607E-05
  9.95712165E-01  2.22153520E-02 -1.73133158E-03 -5.35995257E-04 -5.95573712E-04
 -6.79697949E-03  1.23174651E-03  2.30336501E-04 -5.61156875E-05  3.07207123E-04
 -6.44485597E-05  1.77327107E-04  1.39727235E-04  4.76410224E-05 -7.90639533E-05
 -3.94669843E-05 -8.49416351E-07 -2.15734131E-05  2.04006679E-05  8.18535756E-05
 -1.07208797E-04 -1.96083453E-06  4.36941664E-06 -7.41004164E-06 -2.47979084E-05
 -2.22217754E-04  3.34430068E-05 -1.78861215E-05 -5.72325154E-05  1.57632932E-04
 -2.78247761E-04  5.24169207E-05  4.46170753E-06  1.80910465E-05  1.36963880E-05
  1.15024419E-04  5.97026100E-06 -4.95517113E-06 -1.51232076E-05 -1.53496141E-05
 -1.84094031E-04  3.01772799E-05  2.81802769E-05 -4.29172299E-06 -5.09323264E-04
  1.11568551E-03 -3.79826239E-04 -3.37147354E-04 -1.03323667E-03 -4.25300925E-04
  2.37447642E-03 -8.80413380E-04 -5.48118062E-05  4.21765254E-04 -1.63911623E-01
  3.60273601E-01  3.26150089E-02 -1.98189525E-02  4.51967269E-02  3.48109836E-01
  1.04289948E-02 -2.75197783E-03  1.46930355E-02  1.36600008E-04  1.79225936E-03
 -1.91490193E-03 -1.24779435E-04 -4.66373689E-04 -7.71348452E-02  1.68760010E-01
  4.40120701E-04 -2.88935459E-02 -2.93679085E-03  1.63933688E-01  8.74268981E-04
 -1.12370862E-02  4.25688161E-03  7.88810923E-04  3.26495998E-04 -4.83813227E-04
 -1.20751730E-03 -4.24520524E-04 -1.09398923E-01  2.40130542E-01  2.61710209E-02
 -1.85051180E-03 -3.29755027E-02  2.32307111E-01  9.71438801E-03 -3.73647831E-03
 -1.05710241E-02  7.31804861E-04 -1.48220343E-03  1.36498632E-03  3.40056413E-04
  3.47016505E-04 -1.11127426E-02  2.46550969E-02 -4.86527442E-03 -1.20644731E-03
 -5.59110676E-04  2.09993721E-02 -9.30277007E-04 -8.92926193E-04 -3.28542519E-04
 -1.09041525E-04  8.09723773E-05  1.34765121E-05  2.01060875E-04  9.77674394E-05
  1.07479685E-01  6.18868540E-03  5.81518135E-03  1.57002233E-02 -1.15673792E-02
  1.07093230E-01  4.92813071E-03 -1.86672576E-02 -7.80759379E-03 -5.30188401E-03
  4.93170379E-02  3.30416508E-03  1.06773505E-03  2.90044270E-03  8.78138409E-03
  5.60488629E-02  1.75556952E-03 -1.09538229E-03  7.17066554E-03 -5.16145111E-03
  7.66308306E-02  8.86043042E-04  1.20908906E-03  7.98304798E-03  9.14625123E-03
  7.26324608E-02  5.94757421E-03 -1.00170909E-02 -9.27119161E-03  1.78697662E-03
  7.23485685E-03  3.07100597E-04  2.21026773E-04  4.24502834E-04  1.33484770E-03
  9.52788374E-03  4.34969965E-03  1.40026280E-03 -8.67067881E-05 -8.59462852E-04
  1.32030802E-01 -2.91693058E-01 -2.85809830E-02  1.92029394E-02 -3.78855613E-02
 -2.79603575E-01 -1.26356044E-02  7.63959435E-03 -1.27317640E-02 -3.32216451E-04
 -1.54768170E-03  1.69555819E-03 -3.13036049E-04 -3.02323795E-04 -4.84058910E-02
  1.06331870E-01 -7.99150470E-04 -1.62591486E-02 -2.20771341E-03  1.02091584E-01
 -4.03431573E-04 -3.68728900E-03  2.73356785E-03  8.73637641E-04 -1.30326834E-04
  2.91552901E-04 -3.85590614E-04  2.59357990E-06 -1.60454903E-01  3.53017789E-01
  3.79030971E-02  4.48104472E-04 -4.62939043E-02  3.42361453E-01  1.30748832E-02
 -2.16789694E-03 -1.45010770E-02  8.59844900E-04 -2.04074112E-03  1.32988054E-03
  7.77671496E-04  1.08383961E-03 -6.16813058E-03  1.34743284E-02 -2.63757323E-03
 -6.39892407E-04 -4.53352794E-04  1.29193562E-02 -1.08249658E-03  2.97695004E-06
 -2.00059446E-04 -3.40416164E-05  3.86701562E-05  3.85498020E-05  1.68720986E-04
  4.16693792E-05 -8.81477868E-02 -4.02407051E-03 -4.58209975E-03 -1.28453125E-02
  9.30767788E-03 -8.74975809E-02 -1.72322622E-03  1.49853877E-02  6.08706992E-03
  4.18561949E-03  3.14163833E-02  1.54035358E-03  6.36880968E-04  1.72092889E-03
  5.45254308E-03  3.07885357E-02  4.32962177E-03 -1.02237516E-03  5.31639870E-03
 -3.52530491E-03  1.07104288E-01 -2.18612622E-03  1.06816530E-03  1.29285063E-02
  1.40663255E-02  1.07605086E-01  7.25860289E-03 -1.45350033E-02 -1.35176991E-02
  2.66671366E-03  3.95895026E-03  4.46791945E-04  1.14560167E-04  1.80003272E-04
  7.35316408E-04  5.37230198E-03 -1.00749059E-04  6.49697532E-04  4.60043633E-05
 -4.73219294E-04  3.44120104E-02 -7.64351547E-02 -8.40359116E-03  5.99779654E-03
 -1.21106089E-02 -7.22884673E-02 -4.39996717E-03  2.98684411E-03 -7.81873320E-03
  1.15185394E-04 -2.96244938E-05 -1.69716495E-04 -7.97042554E-05 -1.92216762E-04
 -1.86928093E-01  4.11741398E-01  8.02758465E-05 -6.82706034E-02 -1.82027094E-02
  3.98488444E-01  3.17538822E-03 -2.72416690E-02 -3.03688296E-03  6.23681570E-04
  7.76414631E-04 -2.55503342E-07 -2.19860648E-03 -4.04032881E-04  8.76724306E-02
 -1.93087663E-01 -2.11526522E-02 -1.62145730E-03  2.21741517E-02 -1.88924922E-01
 -7.65677232E-03  1.15785580E-03  5.53686806E-03  2.32658512E-04  1.01891318E-03