 Entering Gaussian System, Link 0=g16
 Input=w32_82.gjf
 Output=w32_82.log
 Initial command:
 /home/soft/g16/l1.exe "/tmp/liwei01/gaussian/wsr/Gau-8864.inp" -scrdir="/tmp/liwei01/gaussian/wsr/"
 Entering Link 1 = /home/soft/g16/l1.exe PID=      8865.
  
 Copyright (c) 1988,1990,1992,1993,1995,1998,2003,2009,2016,
            Gaussian, Inc.  All Rights Reserved.
  
 This is part of the Gaussian(R) 16 program.  It is based on
 the Gaussian(R) 09 system (copyright 2009, Gaussian, Inc.),
 the Gaussian(R) 03 system (copyright 2003, Gaussian, Inc.),
 the Gaussian(R) 98 system (copyright 1998, Gaussian, Inc.),
 the Gaussian(R) 94 system (copyright 1995, Gaussian, Inc.),
 the Gaussian 92(TM) system (copyright 1992, Gaussian, Inc.),
 the Gaussian 90(TM) system (copyright 1990, Gaussian, Inc.),
 the Gaussian 88(TM) system (copyright 1988, Gaussian, Inc.),
 the Gaussian 86(TM) system (copyright 1986, Carnegie Mellon
 University), and the Gaussian 82(TM) system (copyright 1983,
 Carnegie Mellon University). Gaussian is a federally registered
 trademark of Gaussian, Inc.
  
 This software contains proprietary and confidential information,
 including trade secrets, belonging to Gaussian, Inc.
  
 This software is provided under written license and may be
 used, copied, transmitted, or stored only in accord with that
 written license.
  
 The following legend is applicable only to US Government
 contracts under FAR:
  
                    RESTRICTED RIGHTS LEGEND
  
 Use, reproduction and disclosure by the US Government is
 subject to restrictions as set forth in subparagraphs (a)
 and (c) of the Commercial Computer Software - Restricted
 Rights clause in FAR 52.227-19.
  
 Gaussian, Inc.
 340 Quinnipiac St., Bldg. 40, Wallingford CT 06492
  
  
 ---------------------------------------------------------------
 Warning -- This program may not be used in any manner that
 competes with the business of Gaussian, Inc. or will provide
 assistance to any competitor of Gaussian, Inc.  The licensee
 of this program is prohibited from giving any competitor of
 Gaussian, Inc. access to this program.  By using this program,
 the user acknowledges that Gaussian, Inc. is engaged in the
 business of creating and licensing software in the field of
 computational chemistry and represents and warrants to the
 licensee that it is not a competitor of Gaussian, Inc. and that
 it will not use this program in any manner prohibited above.
 ---------------------------------------------------------------
  

 Cite this work as:
 Gaussian 16, Revision A.03,
 M. J. Frisch, G. W. Trucks, H. B. Schlegel, G. E. Scuseria, 
 M. A. Robb, J. R. Cheeseman, G. Scalmani, V. Barone, 
 G. A. Petersson, H. Nakatsuji, X. Li, M. Caricato, A. V. Marenich, 
 J. Bloino, B. G. Janesko, R. Gomperts, B. Mennucci, H. P. Hratchian, 
 J. V. Ortiz, A. F. Izmaylov, J. L. Sonnenberg, D. Williams-Young, 
 F. Ding, F. Lipparini, F. Egidi, J. Goings, B. Peng, A. Petrone, 
 T. Henderson, D. Ranasinghe, V. G. Zakrzewski, J. Gao, N. Rega, 
 G. Zheng, W. Liang, M. Hada, M. Ehara, K. Toyota, R. Fukuda, 
 J. Hasegawa, M. Ishida, T. Nakajima, Y. Honda, O. Kitao, H. Nakai, 
 T. Vreven, K. Throssell, J. A. Montgomery, Jr., J. E. Peralta, 
 F. Ogliaro, M. J. Bearpark, J. J. Heyd, E. N. Brothers, K. N. Kudin, 
 V. N. Staroverov, T. A. Keith, R. Kobayashi, J. Normand, 
 K. Raghavachari, A. P. Rendell, J. C. Burant, S. S. Iyengar, 
 J. Tomasi, M. Cossi, J. M. Millam, M. Klene, C. Adamo, R. Cammi, 
 J. W. Ochterski, R. L. Martin, K. Morokuma, O. Farkas, 
 J. B. Foresman, and D. J. Fox, Gaussian, Inc., Wallingford CT, 2016.
 
 ******************************************
 Gaussian 16:  ES64L-G16RevA.03 25-Dec-2016
                15-May-2020 
 ******************************************
 %chk=w32_82.chk
 %nproc=4
 Will use up to    4 processors via shared memory.
 %mem=1gb
 -----------------------------------------
 #p hf/6-31g** 5d 7f pop=npa charge nosymm
 -----------------------------------------
 1/18=10,28=-2,38=1,125=101,172=1/1;
 2/12=2,15=1,17=6,18=5,40=1/2;
 3/5=1,6=6,7=101,8=11,11=9,25=1,30=1/1,2,3;
 4//1;
 5/5=2,38=5/2;
 6/7=2,8=2,9=2,10=2,28=1,40=-1/1,7;
 99/5=1,9=1/99;
 Leave Link    1 at Fri May 15 22:36:25 2020, MaxMem=   134217728 cpu:               0.4 elap:               0.1
 (Enter /home/soft/g16/l101.exe)
 -------------
 Atom number=6
 -------------
 Symbolic Z-matrix:
 Charge =  0 Multiplicity = 1
 o                     13.45756  -11.77328  -9.77403 
 o                     12.99603  -14.71385  -11.21004 
 h                     13.90889  -10.99621  -10.10371 
 h                     14.15077  -12.42364  -9.66118 
 h                     12.28642  -15.16188  -10.74966 
 h                     13.63566  -14.51236  -10.52702 
 
 ITRead=  0  0  0  0  0  0
 MicOpt= -1 -1 -1 -1 -1 -1
 NAtoms=      6 NQM=        6 NQMF=       0 NMMI=      0 NMMIF=      0
                NMic=       0 NMicF=      0.
                    Isotopes and Nuclear Properties:
 (Nuclear quadrupole moments (NQMom) in fm**2, nuclear magnetic moments (NMagM)
  in nuclear magnetons)

  Atom         1           2           3           4           5           6
 IAtWgt=          16          16           1           1           1           1
 AtmWgt=  15.9949146  15.9949146   1.0078250   1.0078250   1.0078250   1.0078250
 NucSpn=           0           0           1           1           1           1
 AtZEff=  -0.0000000  -0.0000000  -0.0000000  -0.0000000  -0.0000000  -0.0000000
 NQMom=    0.0000000   0.0000000   0.0000000   0.0000000   0.0000000   0.0000000
 NMagM=    0.0000000   0.0000000   2.7928460   2.7928460   2.7928460   2.7928460
 AtZNuc=   8.0000000   8.0000000   1.0000000   1.0000000   1.0000000   1.0000000
 Background charge distribution read from input stream:
 Point Charges:
 XYZ=    8.3923  -11.8129  -11.2005 Q=   -1.0561 A=    0.0000 R=    0.0000 C=    0.0000
 XYZ=    8.1753  -12.5378  -10.6142 Q=    0.5233 A=    0.0000 R=    0.0000 C=    0.0000
 XYZ=    9.2522  -11.5141  -10.9045 Q=    0.5177 A=    0.0000 R=    0.0000 C=    0.0000
 XYZ=   10.7060  -10.8489  -10.0915 Q=   -1.0357 A=    0.0000 R=    0.0000 C=    0.0000
 XYZ=   11.5214  -11.3203   -9.9208 Q=    0.5206 A=    0.0000 R=    0.0000 C=    0.0000
 XYZ=   10.5678  -10.3169   -9.3078 Q=    0.5156 A=    0.0000 R=    0.0000 C=    0.0000
 XYZ=    8.6932  -14.0693   -9.5471 Q=   -1.0099 A=    0.0000 R=    0.0000 C=    0.0000
 XYZ=    8.2201  -13.7327   -8.7861 Q=    0.4999 A=    0.0000 R=    0.0000 C=    0.0000
 XYZ=    8.5528  -15.0157   -9.5178 Q=    0.5079 A=    0.0000 R=    0.0000 C=    0.0000
 XYZ=    7.2503   -9.8596  -13.1035 Q=   -1.0243 A=    0.0000 R=    0.0000 C=    0.0000
 XYZ=    7.1207  -10.2215  -13.9801 Q=    0.5152 A=    0.0000 R=    0.0000 C=    0.0000
 XYZ=    7.3415  -10.6267  -12.5383 Q=    0.5154 A=    0.0000 R=    0.0000 C=    0.0000
 XYZ=    5.5704  -12.7600  -10.7338 Q=   -1.0500 A=    0.0000 R=    0.0000 C=    0.0000
 XYZ=    4.6427  -12.8278  -10.5079 Q=    0.5214 A=    0.0000 R=    0.0000 C=    0.0000
 XYZ=    5.9838  -12.4052   -9.9468 Q=    0.5064 A=    0.0000 R=    0.0000 C=    0.0000
 XYZ=    6.9662   -9.2478  -10.2743 Q=   -1.0324 A=    0.0000 R=    0.0000 C=    0.0000
 XYZ=    6.9752   -9.8450  -11.0223 Q=    0.5142 A=    0.0000 R=    0.0000 C=    0.0000
 XYZ=    7.6844   -8.6385  -10.4451 Q=    0.5185 A=    0.0000 R=    0.0000 C=    0.0000
 XYZ=    6.9426  -11.8294   -8.3710 Q=   -1.0528 A=    0.0000 R=    0.0000 C=    0.0000
 XYZ=    7.4956  -12.0911   -7.6348 Q=    0.5210 A=    0.0000 R=    0.0000 C=    0.0000
 XYZ=    7.3075  -10.9928   -8.6597 Q=    0.5255 A=    0.0000 R=    0.0000 C=    0.0000
 XYZ=    9.7397  -14.5602  -13.0841 Q=   -1.0029 A=    0.0000 R=    0.0000 C=    0.0000
 XYZ=    9.4367  -13.9209  -12.4394 Q=    0.5215 A=    0.0000 R=    0.0000 C=    0.0000
 XYZ=   10.6527  -14.3230  -13.2466 Q=    0.4988 A=    0.0000 R=    0.0000 C=    0.0000
 XYZ=   10.0849   -9.6030  -13.6944 Q=   -1.0549 A=    0.0000 R=    0.0000 C=    0.0000
 XYZ=    9.8380   -9.8779  -14.5774 Q=    0.5180 A=    0.0000 R=    0.0000 C=    0.0000
 XYZ=    9.2671   -9.6284  -13.1976 Q=    0.5226 A=    0.0000 R=    0.0000 C=    0.0000
 XYZ=    9.4738   -7.9972  -10.9180 Q=   -0.9971 A=    0.0000 R=    0.0000 C=    0.0000
 XYZ=    9.9975   -8.7956  -10.8516 Q=    0.5301 A=    0.0000 R=    0.0000 C=    0.0000
 XYZ=    9.6234   -7.5424  -10.0892 Q=    0.4920 A=    0.0000 R=    0.0000 C=    0.0000
 XYZ=    8.4516  -10.6356  -15.6859 Q=   -1.0322 A=    0.0000 R=    0.0000 C=    0.0000
 XYZ=    8.1250  -10.4069  -16.5562 Q=    0.4798 A=    0.0000 R=    0.0000 C=    0.0000
 XYZ=    9.2622  -11.1166  -15.8526 Q=    0.5341 A=    0.0000 R=    0.0000 C=    0.0000
 XYZ=    4.0391  -11.2243  -12.8044 Q=   -0.9921 A=    0.0000 R=    0.0000 C=    0.0000
 XYZ=    4.5248  -12.0476  -12.7552 Q=    0.4802 A=    0.0000 R=    0.0000 C=    0.0000
 XYZ=    4.4321  -10.7575  -13.5420 Q=    0.5046 A=    0.0000 R=    0.0000 C=    0.0000
 XYZ=    5.5848  -15.5922  -11.4699 Q=   -1.0129 A=    0.0000 R=    0.0000 C=    0.0000
 XYZ=    4.6785  -15.3483  -11.6582 Q=    0.5050 A=    0.0000 R=    0.0000 C=    0.0000
 XYZ=    6.0031  -14.7735  -11.2032 Q=    0.5257 A=    0.0000 R=    0.0000 C=    0.0000
 XYZ=    8.8013  -12.4259   -6.4973 Q=   -0.9852 A=    0.0000 R=    0.0000 C=    0.0000
 XYZ=    9.0556  -11.7490   -5.8701 Q=    0.5006 A=    0.0000 R=    0.0000 C=    0.0000
 XYZ=    8.9395  -13.2499   -6.0303 Q=    0.5083 A=    0.0000 R=    0.0000 C=    0.0000
 XYZ=   10.5523   -9.0602   -7.7657 Q=   -0.9799 A=    0.0000 R=    0.0000 C=    0.0000
 XYZ=   10.0296   -9.4526   -7.0665 Q=    0.5003 A=    0.0000 R=    0.0000 C=    0.0000
 XYZ=   10.0576   -8.2839   -8.0284 Q=    0.4937 A=    0.0000 R=    0.0000 C=    0.0000
 XYZ=    8.4919  -14.1596  -15.7110 Q=   -0.9823 A=    0.0000 R=    0.0000 C=    0.0000
 XYZ=    8.8439  -15.0437  -15.8144 Q=    0.4799 A=    0.0000 R=    0.0000 C=    0.0000
 XYZ=    8.9183  -13.8221  -14.9233 Q=    0.4950 A=    0.0000 R=    0.0000 C=    0.0000
 XYZ=   10.6752  -11.9252  -15.8192 Q=   -0.9837 A=    0.0000 R=    0.0000 C=    0.0000
 XYZ=   11.1454  -12.2597  -15.0555 Q=    0.5055 A=    0.0000 R=    0.0000 C=    0.0000
 XYZ=   10.7694  -12.6123  -16.4789 Q=    0.5125 A=    0.0000 R=    0.0000 C=    0.0000
 XYZ=    7.7593  -16.5050  -13.2460 Q=   -1.0112 A=    0.0000 R=    0.0000 C=    0.0000
 XYZ=    7.3079  -16.2111  -12.4547 Q=    0.4926 A=    0.0000 R=    0.0000 C=    0.0000
 XYZ=    8.5373  -15.9498  -13.2987 Q=    0.4973 A=    0.0000 R=    0.0000 C=    0.0000
 XYZ=    5.5914  -15.5335   -8.7002 Q=   -1.0162 A=    0.0000 R=    0.0000 C=    0.0000
 XYZ=    6.3093  -16.0707   -8.3652 Q=    0.4831 A=    0.0000 R=    0.0000 C=    0.0000
 XYZ=    5.4763  -15.8239   -9.6050 Q=    0.5237 A=    0.0000 R=    0.0000 C=    0.0000
 XYZ=    5.3398  -11.2122  -15.4745 Q=   -0.9760 A=    0.0000 R=    0.0000 C=    0.0000
 XYZ=    5.8801  -10.4587  -15.7120 Q=    0.4863 A=    0.0000 R=    0.0000 C=    0.0000
 XYZ=    5.4896  -11.8457  -16.1763 Q=    0.4965 A=    0.0000 R=    0.0000 C=    0.0000
 XYZ=    4.6413   -8.1383  -12.6711 Q=   -0.9897 A=    0.0000 R=    0.0000 C=    0.0000
 XYZ=    4.5978   -7.2720  -12.2662 Q=    0.4876 A=    0.0000 R=    0.0000 C=    0.0000
 XYZ=    5.5765   -8.3384  -12.7100 Q=    0.4969 A=    0.0000 R=    0.0000 C=    0.0000
 XYZ=    8.9611  -17.0167   -9.2755 Q=   -0.9921 A=    0.0000 R=    0.0000 C=    0.0000
 XYZ=    8.6736  -17.2191   -8.3852 Q=    0.5092 A=    0.0000 R=    0.0000 C=    0.0000
 XYZ=    8.3026  -17.4234   -9.8386 Q=    0.5103 A=    0.0000 R=    0.0000 C=    0.0000
 XYZ=   12.8900   -9.6906  -13.7511 Q=   -0.9984 A=    0.0000 R=    0.0000 C=    0.0000
 XYZ=   13.4884   -9.8459  -13.0204 Q=    0.4670 A=    0.0000 R=    0.0000 C=    0.0000
 XYZ=   12.0171   -9.7427  -13.3618 Q=    0.5160 A=    0.0000 R=    0.0000 C=    0.0000
 XYZ=    4.9070   -7.9100   -9.1300 Q=   -1.0105 A=    0.0000 R=    0.0000 C=    0.0000
 XYZ=    4.0635   -8.0265   -9.5674 Q=    0.4764 A=    0.0000 R=    0.0000 C=    0.0000
 XYZ=    5.4227   -8.6710   -9.3968 Q=    0.5176 A=    0.0000 R=    0.0000 C=    0.0000
 XYZ=    2.9547  -12.7024   -9.8757 Q=   -0.9915 A=    0.0000 R=    0.0000 C=    0.0000
 XYZ=    3.0641  -13.5048   -9.3654 Q=    0.5019 A=    0.0000 R=    0.0000 C=    0.0000
 XYZ=    2.7384  -12.0329   -9.2268 Q=    0.5105 A=    0.0000 R=    0.0000 C=    0.0000
 XYZ=    4.2108  -13.3306   -7.5546 Q=   -1.0293 A=    0.0000 R=    0.0000 C=    0.0000
 XYZ=    4.9638  -12.7453   -7.4735 Q=    0.4979 A=    0.0000 R=    0.0000 C=    0.0000
 XYZ=    4.5835  -14.1618   -7.8486 Q=    0.5197 A=    0.0000 R=    0.0000 C=    0.0000
 XYZ=    8.5389   -6.2611  -12.9484 Q=   -1.0019 A=    0.0000 R=    0.0000 C=    0.0000
 XYZ=    8.8800   -6.8491  -12.2745 Q=    0.5098 A=    0.0000 R=    0.0000 C=    0.0000
 XYZ=    9.2767   -6.1230  -13.5423 Q=    0.4773 A=    0.0000 R=    0.0000 C=    0.0000
 XYZ=   11.4715  -15.3553   -7.5180 Q=   -1.0197 A=    0.0000 R=    0.0000 C=    0.0000
 XYZ=   10.8644  -15.3558   -8.2581 Q=    0.4753 A=    0.0000 R=    0.0000 C=    0.0000
 XYZ=   11.9075  -14.5045   -7.5658 Q=    0.5146 A=    0.0000 R=    0.0000 C=    0.0000
 XYZ=   12.8138  -13.0185   -7.3663 Q=   -0.9959 A=    0.0000 R=    0.0000 C=    0.0000
 XYZ=   12.4819  -12.4171   -6.6996 Q=    0.4994 A=    0.0000 R=    0.0000 C=    0.0000
 XYZ=   12.6552  -12.5682   -8.1960 Q=    0.5110 A=    0.0000 R=    0.0000 C=    0.0000
 XYZ=   11.3245  -17.0116  -10.7628 Q=   -1.0019 A=    0.0000 R=    0.0000 C=    0.0000
 XYZ=   11.7165  -17.8633  -10.5702 Q=    0.4876 A=    0.0000 R=    0.0000 C=    0.0000
 XYZ=   10.4428  -17.0644  -10.3939 Q=    0.5095 A=    0.0000 R=    0.0000 C=    0.0000
 Pt Chg Charge=             -0.0129 electrons
 Pt Chg Dipole moment (Debye):
    X=             13.3999    Y=             -6.1684    Z=             14.5906  Tot=             20.7483
 Pt Chg Quadrupole moment (Debye-Ang):
   XX=            177.9804   YY=            155.1159   ZZ=           -237.3190
   XY=           -177.6989   XZ=            -37.7265   YZ=            -87.0696
 Pt Chg Traceless Quadrupole moment (Debye-Ang):
   XX=            146.0546   YY=            123.1902   ZZ=           -269.2448
   XY=           -177.6989   XZ=            -37.7265   YZ=            -87.0696
 Pt Chg Octapole moment (Debye-Ang**2):
  XXX=           1768.0208  YYY=          -3116.6238  ZZZ=           2583.3376  XYY=           2346.2043
  XXY=          -1972.5968  XXZ=          -1105.3388  XZZ=           -108.5919  YZZ=           1796.3497
  YYZ=            219.1058  XYZ=            936.1631
 Pt Chg Hexadecapole moment (Debye-Ang**3):
 XXXX=          15233.3436 YYYY=          60570.7686 ZZZZ=         -14392.4510 XXXY=         -17237.6713
 XXXZ=         -13332.9027 YYYX=         -32912.8384 YYYZ=           7191.6785 ZZZX=           -519.4479
 ZZZY=         -18950.9136 XXYY=          21871.6835 XXZZ=           8309.6216 YYZZ=         -13804.8857
 XXYZ=          16362.5450 YYXZ=         -15627.6674 ZZXY=          -6862.2459
 Leave Link  101 at Fri May 15 22:36:25 2020, MaxMem=   134217728 cpu:               0.5 elap:               0.1
 (Enter /home/soft/g16/l202.exe)
                          Input orientation:                          
 ---------------------------------------------------------------------
 Center     Atomic      Atomic             Coordinates (Angstroms)
 Number     Number       Type             X           Y           Z
 ---------------------------------------------------------------------
      1          8           0       13.457564  -11.773284   -9.774029
      2          8           0       12.996031  -14.713850  -11.210036
      3          1           0       13.908886  -10.996207  -10.103715
      4          1           0       14.150775  -12.423635   -9.661183
      5          1           0       12.286420  -15.161884  -10.749655
      6          1           0       13.635659  -14.512360  -10.527021
 ---------------------------------------------------------------------
                    Distance matrix (angstroms):
                    1          2          3          4          5
     1  O    0.000000
     2  O    3.304854   0.000000
     3  H    0.957201   3.984736   0.000000
     4  H    0.957200   2.996242   1.513901   0.000000
     5  H    3.715647   0.957201   4.516913   3.486918   0.000000
     6  H    2.846270   0.957200   3.552066   2.319007   1.513900
                    6
     6  H    0.000000
 Symmetry turned off by external request.
 Stoichiometry    H4O2
 Framework group  C1[X(H4O2)]
 Deg. of freedom    12
 Full point group                 C1      NOp   1
 Rotational constants (GHZ):         200.1784794           5.0395040           5.0245343
 Leave Link  202 at Fri May 15 22:36:25 2020, MaxMem=   134217728 cpu:               0.1 elap:               0.0
 (Enter /home/soft/g16/l301.exe)
 Standard basis: 6-31G(d,p) (5D, 7F)
 Ernie: Thresh=  0.10000D-02 Tol=  0.10000D-05 Strict=F.
    48 basis functions,    84 primitive gaussians,    50 cartesian basis functions
    10 alpha electrons       10 beta electrons
       nuclear repulsion energy        34.3857894215 Hartrees.
 IExCor=    0 DFT=F Ex=HF Corr=None ExCW=0 ScaHFX=  1.000000
 ScaDFX=  1.000000  1.000000  1.000000  1.000000 ScalE2=  1.000000  1.000000
 IRadAn=      5 IRanWt=     -1 IRanGd=            0 ICorTp=0 IEmpDi=  4
 NAtoms=    6 NActive=    6 NUniq=    6 SFac= 1.00D+00 NAtFMM=   60 NAOKFM=F Big=F
 Integral buffers will be    131072 words long.
 Raffenetti 1 integral format.
 Two-electron integral symmetry is turned off.
 Background charge distribution read from rwf.
 PtFMM for NChg=        96 BoxLen=    40.00 Levels= 1 LMax=20 SMax=    22.2 ICnFMM=     1:
 Self energy of the charges =       -14.6440253223 a.u.
 MM   energy of the charges =         0.0000000000 a.u.
 Nuclei-charges interaction =         0.9191449523 a.u.
 Nuclear repulsion after external point charges =       20.6609090515 Hartrees.
 Leave Link  301 at Fri May 15 22:36:25 2020, MaxMem=   134217728 cpu:               0.2 elap:               0.1
 (Enter /home/soft/g16/l302.exe)
 NPDir=0 NMtPBC=     1 NCelOv=     1 NCel=       1 NClECP=     1 NCelD=      1
         NCelK=      1 NCelE2=     1 NClLst=     1 CellRange=     0.0.
 One-electron integrals computed using PRISM.
 NBasis=    48 RedAO= T EigKep=  3.70D-02  NBF=    48
 NBsUse=    48 1.00D-06 EigRej= -1.00D+00 NBFU=    48
 Leave Link  302 at Fri May 15 22:36:25 2020, MaxMem=   134217728 cpu:               0.4 elap:               0.1
 (Enter /home/soft/g16/l303.exe)
 DipDrv:  MaxL=1.
 Leave Link  303 at Fri May 15 22:36:25 2020, MaxMem=   134217728 cpu:               0.1 elap:               0.0
 (Enter /home/soft/g16/l401.exe)
 ExpMin= 1.61D-01 ExpMax= 5.48D+03 ExpMxC= 8.25D+02 IAcc=3 IRadAn=         5 AccDes= 0.00D+00
 Harris functional with IExCor=  205 and IRadAn=       5 diagonalized for initial guess.
 HarFok:  IExCor=  205 AccDes= 0.00D+00 IRadAn=         5 IDoV= 1 UseB2=F ITyADJ=14
 ICtDFT=  3500011 ScaDFX=  1.000000  1.000000  1.000000  1.000000
 FoFCou: FMM=F IPFlag=           0 FMFlag=      100000 FMFlg1=           0
         NFxFlg=           0 DoJE=T BraDBF=F KetDBF=T FulRan=T
         wScrn=  0.000000 ICntrl=       500 IOpCl=  0 I1Cent=   200000004 NGrid=           0
         NMat0=    1 NMatS0=      1 NMatT0=    0 NMatD0=    1 NMtDS0=    0 NMtDT0=    0
 Symmetry not used in FoFCou.
 Harris En= -166.919495488147    
 JPrj=0 DoOrth=F DoCkMO=F.
 Leave Link  401 at Fri May 15 22:36:25 2020, MaxMem=   134217728 cpu:               0.9 elap:               0.2
 (Enter /home/soft/g16/l502.exe)
 Keep R1 ints in memory in canonical form, NReq=1530541.
 FoFCou: FMM=F IPFlag=           0 FMFlag=           0 FMFlg1=           0
         NFxFlg=           0 DoJE=F BraDBF=F KetDBF=F FulRan=T
         wScrn=  0.000000 ICntrl=       600 IOpCl=  0 I1Cent=           0 NGrid=           0
         NMat0=    1 NMatS0=   1176 NMatT0=    0 NMatD0=    1 NMtDS0=    0 NMtDT0=    0
 Symmetry not used in FoFCou.
 Two-electron integral symmetry not used.
 Closed shell SCF:
 Using DIIS extrapolation, IDIIS=  1040.
 NGot=   134217728 LenX=   133519768 LenY=   133516827
 Requested convergence on RMS density matrix=1.00D-08 within 128 cycles.
 Requested convergence on MAX density matrix=1.00D-06.
 Requested convergence on             energy=1.00D-06.
 No special actions if energy rises.

 Cycle   1  Pass 1  IDiag  1:
 E= -166.553574534615    
 DIIS: error= 6.32D-02 at cycle   1 NSaved=   1.
 NSaved= 1 IEnMin= 1 EnMin= -166.553574534615     IErMin= 1 ErrMin= 6.32D-02
 ErrMax= 6.32D-02  0.00D+00 EMaxC= 1.00D-01 BMatC= 2.56D-01 BMatP= 2.56D-01
 IDIUse=3 WtCom= 3.68D-01 WtEn= 6.32D-01
 Coeff-Com:  0.100D+01
 Coeff-En:   0.100D+01
 Coeff:      0.100D+01
 Gap=     0.509 Goal=   None    Shift=    0.000
 GapD=    0.509 DampG=2.000 DampE=0.500 DampFc=1.0000 IDamp=-1.
 RMSDP=8.68D-03 MaxDP=1.24D-01              OVMax= 1.31D-01

 Cycle   2  Pass 1  IDiag  1:
 E= -166.673026143719     Delta-E=       -0.119451609104 Rises=F Damp=F
 DIIS: error= 3.23D-02 at cycle   2 NSaved=   2.
 NSaved= 2 IEnMin= 2 EnMin= -166.673026143719     IErMin= 2 ErrMin= 3.23D-02
 ErrMax= 3.23D-02  0.00D+00 EMaxC= 1.00D-01 BMatC= 8.13D-02 BMatP= 2.56D-01
 IDIUse=3 WtCom= 6.77D-01 WtEn= 3.23D-01
 Coeff-Com:  0.349D+00 0.651D+00
 Coeff-En:   0.906D-01 0.909D+00
 Coeff:      0.266D+00 0.734D+00
 Gap=     0.647 Goal=   None    Shift=    0.000
 RMSDP=3.93D-03 MaxDP=5.44D-02 DE=-1.19D-01 OVMax= 4.73D-02

 Cycle   3  Pass 1  IDiag  1:
 E= -166.726897889402     Delta-E=       -0.053871745684 Rises=F Damp=F
 DIIS: error= 6.55D-03 at cycle   3 NSaved=   3.
 NSaved= 3 IEnMin= 3 EnMin= -166.726897889402     IErMin= 3 ErrMin= 6.55D-03
 ErrMax= 6.55D-03  0.00D+00 EMaxC= 1.00D-01 BMatC= 2.10D-03 BMatP= 8.13D-02
 IDIUse=3 WtCom= 9.35D-01 WtEn= 6.55D-02
 Coeff-Com: -0.322D-01 0.947D-01 0.938D+00
 Coeff-En:   0.000D+00 0.000D+00 0.100D+01
 Coeff:     -0.301D-01 0.885D-01 0.942D+00
 Gap=     0.632 Goal=   None    Shift=    0.000
 RMSDP=5.58D-04 MaxDP=8.29D-03 DE=-5.39D-02 OVMax= 9.54D-03

 Cycle   4  Pass 1  IDiag  1:
 E= -166.728529192496     Delta-E=       -0.001631303094 Rises=F Damp=F
 DIIS: error= 6.20D-04 at cycle   4 NSaved=   4.
 NSaved= 4 IEnMin= 4 EnMin= -166.728529192496     IErMin= 4 ErrMin= 6.20D-04
 ErrMax= 6.20D-04  0.00D+00 EMaxC= 1.00D-01 BMatC= 1.86D-05 BMatP= 2.10D-03
 IDIUse=3 WtCom= 9.94D-01 WtEn= 6.20D-03
 Coeff-Com:  0.631D-02-0.461D-01-0.284D+00 0.132D+01
 Coeff-En:   0.000D+00 0.000D+00 0.000D+00 0.100D+01
 Coeff:      0.627D-02-0.458D-01-0.282D+00 0.132D+01
 Gap=     0.634 Goal=   None    Shift=    0.000
 RMSDP=1.10D-04 MaxDP=1.27D-03 DE=-1.63D-03 OVMax= 1.65D-03

 Cycle   5  Pass 1  IDiag  1:
 E= -166.728557173134     Delta-E=       -0.000027980638 Rises=F Damp=F
 DIIS: error= 9.00D-05 at cycle   5 NSaved=   5.
 NSaved= 5 IEnMin= 5 EnMin= -166.728557173134     IErMin= 5 ErrMin= 9.00D-05
 ErrMax= 9.00D-05  0.00D+00 EMaxC= 1.00D-01 BMatC= 4.45D-07 BMatP= 1.86D-05
 IDIUse=1 WtCom= 1.00D+00 WtEn= 0.00D+00
 Coeff-Com:  0.107D-02-0.380D-02-0.309D-01 0.293D-03 0.103D+01
 Coeff:      0.107D-02-0.380D-02-0.309D-01 0.293D-03 0.103D+01
 Gap=     0.634 Goal=   None    Shift=    0.000
 RMSDP=2.17D-05 MaxDP=2.89D-04 DE=-2.80D-05 OVMax= 3.84D-04

 Cycle   6  Pass 1  IDiag  1:
 E= -166.728557994921     Delta-E=       -0.000000821787 Rises=F Damp=F
 DIIS: error= 2.43D-05 at cycle   6 NSaved=   6.
 NSaved= 6 IEnMin= 6 EnMin= -166.728557994921     IErMin= 6 ErrMin= 2.43D-05
 ErrMax= 2.43D-05  0.00D+00 EMaxC= 1.00D-01 BMatC= 6.10D-08 BMatP= 4.45D-07
 IDIUse=1 WtCom= 1.00D+00 WtEn= 0.00D+00
 Coeff-Com: -0.206D-03 0.239D-02 0.136D-01-0.965D-01 0.209D+00 0.872D+00
 Coeff:     -0.206D-03 0.239D-02 0.136D-01-0.965D-01 0.209D+00 0.872D+00
 Gap=     0.635 Goal=   None    Shift=    0.000
 RMSDP=6.30D-06 MaxDP=9.41D-05 DE=-8.22D-07 OVMax= 9.93D-05

 Cycle   7  Pass 1  IDiag  1:
 E= -166.728558075089     Delta-E=       -0.000000080168 Rises=F Damp=F
 DIIS: error= 7.80D-06 at cycle   7 NSaved=   7.
 NSaved= 7 IEnMin= 7 EnMin= -166.728558075089     IErMin= 7 ErrMin= 7.80D-06
 ErrMax= 7.80D-06  0.00D+00 EMaxC= 1.00D-01 BMatC= 3.70D-09 BMatP= 6.10D-08
 IDIUse=1 WtCom= 1.00D+00 WtEn= 0.00D+00
 Coeff-Com: -0.107D-03 0.389D-03 0.321D-02-0.576D-03-0.108D+00 0.720D-03
 Coeff-Com:  0.110D+01
 Coeff:     -0.107D-03 0.389D-03 0.321D-02-0.576D-03-0.108D+00 0.720D-03
 Coeff:      0.110D+01
 Gap=     0.635 Goal=   None    Shift=    0.000
 RMSDP=2.36D-06 MaxDP=2.60D-05 DE=-8.02D-08 OVMax= 4.52D-05

 Cycle   8  Pass 1  IDiag  1:
 E= -166.728558082702     Delta-E=       -0.000000007614 Rises=F Damp=F
 DIIS: error= 1.82D-06 at cycle   8 NSaved=   8.
 NSaved= 8 IEnMin= 8 EnMin= -166.728558082702     IErMin= 8 ErrMin= 1.82D-06
 ErrMax= 1.82D-06  0.00D+00 EMaxC= 1.00D-01 BMatC= 1.75D-10 BMatP= 3.70D-09
 IDIUse=1 WtCom= 1.00D+00 WtEn= 0.00D+00
 Coeff-Com:  0.491D-04-0.251D-03-0.186D-02 0.431D-02 0.387D-01-0.363D-01
 Coeff-Com: -0.460D+00 0.146D+01
 Coeff:      0.491D-04-0.251D-03-0.186D-02 0.431D-02 0.387D-01-0.363D-01
 Coeff:     -0.460D+00 0.146D+01
 Gap=     0.635 Goal=   None    Shift=    0.000
 RMSDP=5.84D-07 MaxDP=8.44D-06 DE=-7.61D-09 OVMax= 1.07D-05

 Cycle   9  Pass 1  IDiag  1:
 E= -166.728558083188     Delta-E=       -0.000000000485 Rises=F Damp=F
 DIIS: error= 2.55D-07 at cycle   9 NSaved=   9.
 NSaved= 9 IEnMin= 9 EnMin= -166.728558083188     IErMin= 9 ErrMin= 2.55D-07
 ErrMax= 2.55D-07  0.00D+00 EMaxC= 1.00D-01 BMatC= 4.98D-12 BMatP= 1.75D-10
 IDIUse=1 WtCom= 1.00D+00 WtEn= 0.00D+00
 Coeff-Com: -0.118D-04 0.689D-04 0.499D-03-0.161D-02-0.732D-02 0.120D-01
 Coeff-Com:  0.981D-01-0.445D+00 0.134D+01
 Coeff:     -0.118D-04 0.689D-04 0.499D-03-0.161D-02-0.732D-02 0.120D-01
 Coeff:      0.981D-01-0.445D+00 0.134D+01
 Gap=     0.635 Goal=   None    Shift=    0.000
 RMSDP=1.20D-07 MaxDP=2.02D-06 DE=-4.85D-10 OVMax= 2.68D-06

 Cycle  10  Pass 1  IDiag  1:
 E= -166.728558083204     Delta-E=       -0.000000000016 Rises=F Damp=F
 DIIS: error= 5.89D-08 at cycle  10 NSaved=  10.
 NSaved=10 IEnMin=10 EnMin= -166.728558083204     IErMin=10 ErrMin= 5.89D-08
 ErrMax= 5.89D-08  0.00D+00 EMaxC= 1.00D-01 BMatC= 2.06D-13 BMatP= 4.98D-12
 IDIUse=1 WtCom= 1.00D+00 WtEn= 0.00D+00
 Coeff-Com:  0.222D-05-0.142D-04-0.102D-03 0.400D-03 0.103D-02-0.281D-02
 Coeff-Com: -0.166D-01 0.101D+00-0.480D+00 0.140D+01
 Coeff:      0.222D-05-0.142D-04-0.102D-03 0.400D-03 0.103D-02-0.281D-02
 Coeff:     -0.166D-01 0.101D+00-0.480D+00 0.140D+01
 Gap=     0.635 Goal=   None    Shift=    0.000
 RMSDP=2.85D-08 MaxDP=4.69D-07 DE=-1.62D-11 OVMax= 6.92D-07

 Cycle  11  Pass 1  IDiag  1:
 E= -166.728558083204     Delta-E=       -0.000000000001 Rises=F Damp=F
 DIIS: error= 1.24D-08 at cycle  11 NSaved=  11.
 NSaved=11 IEnMin=11 EnMin= -166.728558083204     IErMin=11 ErrMin= 1.24D-08
 ErrMax= 1.24D-08  0.00D+00 EMaxC= 1.00D-01 BMatC= 9.84D-15 BMatP= 2.06D-13
 IDIUse=1 WtCom= 1.00D+00 WtEn= 0.00D+00
 Coeff-Com:  0.116D-06-0.345D-06-0.251D-05-0.134D-04 0.174D-03 0.586D-04
 Coeff-Com: -0.156D-02-0.966D-03 0.509D-01-0.351D+00 0.130D+01
 Coeff:      0.116D-06-0.345D-06-0.251D-05-0.134D-04 0.174D-03 0.586D-04
 Coeff:     -0.156D-02-0.966D-03 0.509D-01-0.351D+00 0.130D+01
 Gap=     0.635 Goal=   None    Shift=    0.000
 RMSDP=5.64D-09 MaxDP=8.86D-08 DE=-6.82D-13 OVMax= 1.48D-07

 SCF Done:  E(RHF) =  -166.728558083     A.U. after   11 cycles
            NFock= 11  Conv=0.56D-08     -V/T= 2.0984
 KE= 1.517967217302D+02 PE=-4.310813460041D+02 EE= 9.189515713922D+01
 Leave Link  502 at Fri May 15 22:36:25 2020, MaxMem=   134217728 cpu:               0.7 elap:               0.2
 (Enter /home/soft/g16/l601.exe)
 Copying SCF densities to generalized density rwf, IOpCl= 0 IROHF=0.

 **********************************************************************

            Population analysis using the SCF density.

 **********************************************************************

 Alpha  occ. eigenvalues --  -20.64068 -20.55454  -1.42240  -1.33681  -0.78568
 Alpha  occ. eigenvalues --   -0.69874  -0.66515  -0.58058  -0.56866  -0.49389
 Alpha virt. eigenvalues --    0.14071   0.21628   0.28500   0.36084   0.92913
 Alpha virt. eigenvalues --    1.00608   1.02199   1.06820   1.08044   1.11983
 Alpha virt. eigenvalues --    1.18152   1.19999   1.24251   1.30682   1.52515
 Alpha virt. eigenvalues --    1.62104   1.73476   1.74728   1.81607   1.83052
 Alpha virt. eigenvalues --    1.84169   1.92869   2.50253   2.51047   2.58468
 Alpha virt. eigenvalues --    2.59836   2.73390   2.82026   2.90191   2.91560
 Alpha virt. eigenvalues --    2.98351   3.00411   3.29677   3.38411   3.67989
 Alpha virt. eigenvalues --    3.76495   3.84584   3.94162
          Condensed to atoms (all electrons):
               1          2          3          4          5          6
     1  O    8.118421  -0.000554   0.318151   0.315591   0.000053   0.001369
     2  O   -0.000554   8.088538   0.000061   0.001771   0.316526   0.305465
     3  H    0.318151   0.000061   0.331842  -0.023489  -0.000001  -0.000039
     4  H    0.315591   0.001771  -0.023489   0.327135  -0.000036   0.000714
     5  H    0.000053   0.316526  -0.000001  -0.000036   0.316769  -0.024506
     6  H    0.001369   0.305465  -0.000039   0.000714  -0.024506   0.395148
 Mulliken charges:
               1
     1  O   -0.753030
     2  O   -0.711807
     3  H    0.373476
     4  H    0.378315
     5  H    0.391196
     6  H    0.321849
 Sum of Mulliken charges =  -0.00000
 Mulliken charges with hydrogens summed into heavy atoms:
               1
     1  O   -0.001238
     2  O    0.001238
 Electronic spatial extent (au):  <R**2>=          33134.4988
 Charge=             -0.0000 electrons
 Dipole moment (field-independent basis, Debye):
    X=              2.1102    Y=             -0.4312    Z=              1.6379  Tot=              2.7059
 Quadrupole moment (field-independent basis, Debye-Ang):
   XX=             47.1193   YY=              3.3840   ZZ=            -50.5441
   XY=            -28.3322   XZ=              0.9429   YZ=            -21.6383
 Traceless Quadrupole moment (field-independent basis, Debye-Ang):
   XX=             47.1329   YY=              3.3976   ZZ=            -50.5305
   XY=            -28.3322   XZ=              0.9429   YZ=            -21.6383
 Octapole moment (field-independent basis, Debye-Ang**2):
  XXX=            761.4740  YYY=             99.6373  ZZZ=           1049.1314  XYY=            274.8104
  XXY=           -559.7835  XXZ=           -169.4938  XZZ=           -465.2741  YZZ=            716.0961
  YYZ=            371.9437  XYZ=            -66.5302
 Hexadecapole moment (field-independent basis, Debye-Ang**3):
 XXXX=          10345.2833 YYYY=          -4969.0751 ZZZZ=         -18264.3580 XXXY=          -8340.1609
 XXXZ=          -3428.0745 YYYX=           -806.0529 YYYZ=          -7318.4073 ZZZX=          11877.9775
 ZZZY=         -14929.2982 XXYY=           5157.1328 XXZZ=          -4450.0495 YYZZ=         -11071.2711
 XXYZ=            805.4900 YYXZ=           2727.9312 ZZXY=           7338.5034
 N-N= 2.066090905153D+01 E-N=-4.310813460711D+02  KE= 1.517967217302D+02
 No NMR shielding tensors so no spin-rotation constants.
 Leave Link  601 at Fri May 15 22:36:26 2020, MaxMem=   134217728 cpu:               0.5 elap:               0.2
 (Enter /home/soft/g16/l607.exe)
 ******************************Gaussian NBO Version 3.1******************************
             N A T U R A L   A T O M I C   O R B I T A L   A N D
          N A T U R A L   B O N D   O R B I T A L   A N A L Y S I S
 ******************************Gaussian NBO Version 3.1******************************
       /RESON  / : Allow strongly delocalized NBO set

 Analyzing the SCF density

 Job title: Atom number=6                                                   

 Storage needed:      7158 in NPA ( 134217512 available)
 GSVD:  LWork=         960 too small for GESVD, short by        1512 words or        1512 for optimal perf.


 NATURAL POPULATIONS:  Natural atomic orbital occupancies 
                                                          
   NAO  Atom  No  lang   Type(AO)    Occupancy      Energy
 ----------------------------------------------------------
     1    O    1  S      Cor( 1S)     1.99986     -20.47885
     2    O    1  S      Val( 2S)     1.75591      -1.24258
     3    O    1  S      Ryd( 3S)     0.00113       1.60741
     4    O    1  px     Val( 2p)     1.75897      -0.51737
     5    O    1  px     Ryd( 3p)     0.00056       1.10317
     6    O    1  py     Val( 2p)     1.55587      -0.43070
     7    O    1  py     Ryd( 3p)     0.00189       1.21007
     8    O    1  pz     Val( 2p)     1.94724      -0.56255
     9    O    1  pz     Ryd( 3p)     0.00059       1.09686
    10    O    1  dxy    Ryd( 3d)     0.00167       2.98880
    11    O    1  dxz    Ryd( 3d)     0.00140       2.22354
    12    O    1  dyz    Ryd( 3d)     0.00024       2.36699
    13    O    1  dx2y2  Ryd( 3d)     0.00083       2.39849
    14    O    1  dz2    Ryd( 3d)     0.00098       2.38265

    15    O    2  S      Cor( 1S)     1.99986     -20.39178
    16    O    2  S      Val( 2S)     1.75705      -1.15134
    17    O    2  S      Ryd( 3S)     0.00113       1.69414
    18    O    2  px     Val( 2p)     1.59218      -0.35391
    19    O    2  px     Ryd( 3p)     0.00181       1.28852
    20    O    2  py     Val( 2p)     1.89623      -0.45571
    21    O    2  py     Ryd( 3p)     0.00097       1.20286
    22    O    2  pz     Val( 2p)     1.73435      -0.41507
    23    O    2  pz     Ryd( 3p)     0.00033       1.20464
    24    O    2  dxy    Ryd( 3d)     0.00030       2.56255
    25    O    2  dxz    Ryd( 3d)     0.00192       3.00141
    26    O    2  dyz    Ryd( 3d)     0.00194       2.40642
    27    O    2  dx2y2  Ryd( 3d)     0.00018       2.42417
    28    O    2  dz2    Ryd( 3d)     0.00203       2.42454

    29    H    3  S      Val( 1S)     0.48442       0.28108
    30    H    3  S      Ryd( 2S)     0.00073       0.64418
    31    H    3  px     Ryd( 2p)     0.00080       2.73265
    32    H    3  py     Ryd( 2p)     0.00116       3.07186
    33    H    3  pz     Ryd( 2p)     0.00098       2.61255

    34    H    4  S      Val( 1S)     0.48135       0.28757
    35    H    4  S      Ryd( 2S)     0.00107       0.69578
    36    H    4  px     Ryd( 2p)     0.00114       2.97611
    37    H    4  py     Ryd( 2p)     0.00096       2.93078
    38    H    4  pz     Ryd( 2p)     0.00081       2.53742

    39    H    5  S      Val( 1S)     0.47215       0.39064
    40    H    5  S      Ryd( 2S)     0.00077       0.74592
    41    H    5  px     Ryd( 2p)     0.00116       3.07985
    42    H    5  py     Ryd( 2p)     0.00117       2.79434
    43    H    5  pz     Ryd( 2p)     0.00079       2.83573

    44    H    6  S      Val( 1S)     0.52861       0.30382
    45    H    6  S      Ryd( 2S)     0.00127       0.77761
    46    H    6  px     Ryd( 2p)     0.00104       2.98290
    47    H    6  py     Ryd( 2p)     0.00097       2.63320
    48    H    6  pz     Ryd( 2p)     0.00119       3.02449


 Summary of Natural Population Analysis:                  
                                                          
                                       Natural Population 
                Natural  -----------------------------------------------
    Atom  No    Charge         Core      Valence    Rydberg      Total
 -----------------------------------------------------------------------
      O    1   -1.02715      1.99986     7.01799    0.00930     9.02715
      O    2   -0.99029      1.99986     6.97982    0.01062     8.99029
      H    3    0.51191      0.00000     0.48442    0.00367     0.48809
      H    4    0.51467      0.00000     0.48135    0.00398     0.48533
      H    5    0.52396      0.00000     0.47215    0.00389     0.47604
      H    6    0.46691      0.00000     0.52861    0.00447     0.53309
 =======================================================================
   * Total *   -0.00000      3.99972    15.96435    0.03593    20.00000

                                 Natural Population      
 --------------------------------------------------------
   Core                       3.99972 ( 99.9931% of   4)
   Valence                   15.96435 ( 99.7772% of  16)
   Natural Minimal Basis     19.96407 ( 99.8204% of  20)
   Natural Rydberg Basis      0.03593 (  0.1796% of  20)
 --------------------------------------------------------

    Atom  No          Natural Electron Configuration
 ----------------------------------------------------------------------------
      O    1      [core]2S( 1.76)2p( 5.26)3d( 0.01)
      O    2      [core]2S( 1.76)2p( 5.22)3d( 0.01)
      H    3            1S( 0.48)
      H    4            1S( 0.48)
      H    5            1S( 0.47)
      H    6            1S( 0.53)


 NBO analysis skipped by request.
 Leave Link  607 at Fri May 15 22:36:26 2020, MaxMem=   134217728 cpu:               0.5 elap:               0.1
 (Enter /home/soft/g16/l9999.exe)

 Test job not archived.
 1\1\GINC-MASTER\SP\RHF\6-31G(d,p)\H4O2\LIWEI01\15-May-2020\0\\#p hf/6-
 31g** 5d 7f pop=npa charge nosymm\\Atom number=6\\0,1\O,0,13.457564,-1
 1.773284,-9.774029\O,0,12.996031,-14.71385,-11.210036\H,0,13.908886,-1
 0.996207,-10.103715\H,0,14.150775,-12.423635,-9.661183\H,0,12.28642,-1
 5.161884,-10.749655\H,0,13.635659,-14.51236,-10.527021\\Version=ES64L-
 G16RevA.03\HF=-166.7285581\RMSD=5.638e-09\Dipole=0.8302315,-0.1696495,
 0.6444055\Quadrupole=35.0421712,2.5260133,-37.5681845,-21.0643298,0.70
 10102,-16.0875469\PG=C01 [X(H4O2)]\\@


 VIRTUE IS LEARNED AT YOUR MOTHER'S KNEE,
 VICES ARE PICKED UP AT SOME OTHER JOINT.
 Job cpu time:       0 days  0 hours  0 minutes  4.4 seconds.
 Elapsed time:       0 days  0 hours  0 minutes  1.3 seconds.
 File lengths (MBytes):  RWF=     72 Int=      0 D2E=      0 Chk=      8 Scr=      8
 Normal termination of Gaussian 16 at Fri May 15 22:36:26 2020.
