#INFO: **** input file is /home/liwei01/wsr/dftpart/test_2body/w32/gfea_c8.py ****
from dftpart import gfea3
from pyscf import lib

par = 8
with lib.with_omp_threads(par):
    fr0 = gfea3.GFEA()
    fr0.inputstyle = 'frg'
    fr0.method = ['hf', '6-31gss','charge']
    fr0.gjfname = 'w32'
    fr0.output = 'w32'
    fr0.verbose = 9
    fr0.showinter = True
    #fr0.do_deriv = True
    fr0.kernel()

#INFO: ******************** input file end ********************


System: uname_result(system='Linux', node='master', release='3.10.0-693.el7.x86_64', version='#1 SMP Tue Aug 22 21:09:27 UTC 2017', machine='x86_64', processor='x86_64')  Threads 8
Python 3.7.6 (default, Jan  8 2020, 19:59:22) 
[GCC 7.3.0]
numpy 1.18.1  scipy 1.4.1
Date: Tue Jun 16 20:55:07 2020
PySCF version 1.6.1
PySCF path  /home/liwei01/zcheng/pyscf/pyscf
GIT HEAD      ref: refs/heads/master
GIT master branch  3adc7fd25839fe674469a52b764c3661e32d7318

[CONFIG] DEBUG = False
[CONFIG] MAX_MEMORY = 4000
[CONFIG] TMPDIR = .
[CONFIG] UNIT = angstrom
[CONFIG] VERBOSE = 3
[CONFIG] conf_file = None
[INPUT] verbose = 9
[INPUT] max_memory = 4000 
[INPUT] num. atoms = 27
[INPUT] num. electrons = 90
[INPUT] charge = 0
[INPUT] spin (= nelec alpha-beta = 2S) = 0
[INPUT] symmetry False subgroup None
[INPUT] Mole.unit = angstrom
[INPUT]  1 O      8.392325000000 -11.812941000000 -11.200483000000 AA   15.859195798340 -22.323223215646 -21.165845332847 Bohr
[INPUT]  2 O      8.693246000000 -14.069272000000  -9.547113000000 AA   16.427854073471 -26.587070852012 -18.041428850275 Bohr
[INPUT]  3 O      5.570392000000 -12.760041000000 -10.733807000000 AA   10.526515286468 -24.112982828221 -20.283955503939 Bohr
[INPUT]  4 O      6.966193000000  -9.247795000000 -10.274305000000 AA   13.164196900862 -17.475799806122 -19.415622570249 Bohr
[INPUT]  5 O      6.942642000000 -11.829381000000  -8.371044000000 AA   13.119691960903 -22.354290313134 -15.818980536684 Bohr
[INPUT]  6 O      4.039142000000 -11.224262000000 -12.804410000000 AA    7.632872158228 -21.210781130363 -24.196828086642 Bohr
[INPUT]  7 O      5.584754000000 -15.592165000000 -11.469857000000 AA   10.553655533069 -29.464921539029 -21.674888417925 Bohr
[INPUT]  8 O      2.954727000000 -12.702446000000  -9.875706000000 AA    5.583624802858 -24.004144052077 -18.662379626724 Bohr
[INPUT]  9 O      4.210768000000 -13.330605000000  -7.554598000000 AA    7.957198294083 -25.191192524758 -14.276121201187 Bohr
[INPUT] 10 H      8.175276000000 -12.537815000000 -10.614239000000 AA   15.449032632730 -23.693036550464 -20.058004730677 Bohr
[INPUT] 11 H      9.252154000000 -11.514100000000 -10.904475000000 AA   17.484037122299 -21.758495570855 -20.606471282167 Bohr
[INPUT] 12 H      8.220090000000 -13.732742000000  -8.786125000000 AA   15.533718819276 -25.951121319312 -16.603369946194 Bohr
[INPUT] 13 H      8.552802000000 -15.015659000000  -9.517782000000 AA   16.162453377632 -28.375483089860 -17.986001293315 Bohr
[INPUT] 14 H      4.642708000000 -12.827827000000 -10.507888000000 AA    8.773446596327 -24.241079803301 -19.857030467604 Bohr
[INPUT] 15 H      5.983752000000 -12.405170000000  -9.946767000000 AA   11.307652477318 -23.442373828671 -18.796665454862 Bohr
[INPUT] 16 H      6.975152000000  -9.845016000000 -11.022289000000 AA   13.181126957212 -18.604383931961 -20.829107475806 Bohr
[INPUT] 17 H      7.684375000000  -8.638472000000 -10.445098000000 AA   14.521364188455 -16.324346214724 -19.738374564242 Bohr
[INPUT] 18 H      7.495574000000 -12.091052000000  -7.634819000000 AA   14.164582006411 -22.848776837875 -14.427716920626 Bohr
[INPUT] 19 H      7.307461000000 -10.992840000000  -8.659728000000 AA   13.809099955940 -20.773456931164 -16.364514233228 Bohr
[INPUT] 20 H      4.524844000000 -12.047609000000 -12.755179000000 AA    8.550715916381 -22.766681465845 -24.103794979804 Bohr
[INPUT] 21 H      4.432119000000 -10.757539000000 -13.541956000000 AA    8.375491061481 -20.328802484328 -25.590588030911 Bohr
[INPUT] 22 H      4.678503000000 -15.348320000000 -11.658221000000 AA    8.841089342956 -29.004121272184 -22.030844789653 Bohr
[INPUT] 23 H      6.003083000000 -14.773540000000 -11.203238000000 AA   11.344182773032 -27.917944490307 -21.171051528320 Bohr
[INPUT] 24 H      3.064054000000 -13.504841000000  -9.365369000000 AA    5.790222890878 -25.520450845797 -17.697982465492 Bohr
[INPUT] 25 H      2.738448000000 -12.032883000000  -9.226753000000 AA    5.174916726363 -22.738853358935 -17.436036189009 Bohr
[INPUT] 26 H      4.963781000000 -12.745268000000  -7.473460000000 AA    9.380186632320 -24.085065904183 -14.122792602892 Bohr
[INPUT] 27 H      4.583488000000 -14.161788000000  -7.848620000000 AA    8.661537015230 -26.761900754152 -14.831742255784 Bohr
[INPUT] ---------------- BASIS SET ---------------- 
[INPUT] l, kappa, [nprim/nctr], expnt,             c_1 c_2 ...
[INPUT] H
[INPUT] 0    0    [3    /1   ]  18.731137         0.0334946
                                2.8253937         0.23472695
                                0.6401217         0.81375733
[INPUT] 0    0    [1    /1   ]  0.1612778            1
[INPUT] 1    0    [1    /1   ]  1.1                  1
[INPUT] O
[INPUT] 0    0    [6    /1   ]  5484.6717         0.0018311
                                825.23495         0.0139501
                                188.04696         0.0684451
                                52.9645           0.2327143
                                16.89757          0.470193
                                5.7996353         0.3585209
[INPUT] 0    0    [3    /1   ]  15.539616         -0.1107775
                                3.5999336         -0.1480263
                                1.0137618         1.130767
[INPUT] 0    0    [1    /1   ]  0.2700058            1
[INPUT] 1    0    [3    /1   ]  15.539616         0.0708743
                                3.5999336         0.3397528
                                1.0137618         0.7271586
[INPUT] 1    0    [1    /1   ]  0.2700058            1
[INPUT] 2    0    [1    /1   ]  0.8                  1

nuclear repulsion = 564.844687716632
number of shells = 108
number of NR pGTOs = 369
number of NR cGTOs = 216
basis = 6-31gss
ecp = {}
bas 0, expnt(s) = [5484.6717     825.23495    188.04696     52.9645      16.89757
    5.7996353]
bas 1, expnt(s) = [15.539616   3.5999336  1.0137618]
bas 2, expnt(s) = [0.2700058]
bas 3, expnt(s) = [15.539616   3.5999336  1.0137618]
bas 4, expnt(s) = [0.2700058]
bas 5, expnt(s) = [0.8]
bas 6, expnt(s) = [5484.6717     825.23495    188.04696     52.9645      16.89757
    5.7996353]
bas 7, expnt(s) = [15.539616   3.5999336  1.0137618]
bas 8, expnt(s) = [0.2700058]
bas 9, expnt(s) = [15.539616   3.5999336  1.0137618]
bas 10, expnt(s) = [0.2700058]
bas 11, expnt(s) = [0.8]
bas 12, expnt(s) = [5484.6717     825.23495    188.04696     52.9645      16.89757
    5.7996353]
bas 13, expnt(s) = [15.539616   3.5999336  1.0137618]
bas 14, expnt(s) = [0.2700058]
bas 15, expnt(s) = [15.539616   3.5999336  1.0137618]
bas 16, expnt(s) = [0.2700058]
bas 17, expnt(s) = [0.8]
bas 18, expnt(s) = [5484.6717     825.23495    188.04696     52.9645      16.89757
    5.7996353]
bas 19, expnt(s) = [15.539616   3.5999336  1.0137618]
bas 20, expnt(s) = [0.2700058]
bas 21, expnt(s) = [15.539616   3.5999336  1.0137618]
bas 22, expnt(s) = [0.2700058]
bas 23, expnt(s) = [0.8]
bas 24, expnt(s) = [5484.6717     825.23495    188.04696     52.9645      16.89757
    5.7996353]
bas 25, expnt(s) = [15.539616   3.5999336  1.0137618]
bas 26, expnt(s) = [0.2700058]
bas 27, expnt(s) = [15.539616   3.5999336  1.0137618]
bas 28, expnt(s) = [0.2700058]
bas 29, expnt(s) = [0.8]
bas 30, expnt(s) = [5484.6717     825.23495    188.04696     52.9645      16.89757
    5.7996353]
bas 31, expnt(s) = [15.539616   3.5999336  1.0137618]
bas 32, expnt(s) = [0.2700058]
bas 33, expnt(s) = [15.539616   3.5999336  1.0137618]
bas 34, expnt(s) = [0.2700058]
bas 35, expnt(s) = [0.8]
bas 36, expnt(s) = [5484.6717     825.23495    188.04696     52.9645      16.89757
    5.7996353]
bas 37, expnt(s) = [15.539616   3.5999336  1.0137618]
bas 38, expnt(s) = [0.2700058]
bas 39, expnt(s) = [15.539616   3.5999336  1.0137618]
bas 40, expnt(s) = [0.2700058]
bas 41, expnt(s) = [0.8]
bas 42, expnt(s) = [5484.6717     825.23495    188.04696     52.9645      16.89757
    5.7996353]
bas 43, expnt(s) = [15.539616   3.5999336  1.0137618]
bas 44, expnt(s) = [0.2700058]
bas 45, expnt(s) = [15.539616   3.5999336  1.0137618]
bas 46, expnt(s) = [0.2700058]
bas 47, expnt(s) = [0.8]
bas 48, expnt(s) = [5484.6717     825.23495    188.04696     52.9645      16.89757
    5.7996353]
bas 49, expnt(s) = [15.539616   3.5999336  1.0137618]
bas 50, expnt(s) = [0.2700058]
bas 51, expnt(s) = [15.539616   3.5999336  1.0137618]
bas 52, expnt(s) = [0.2700058]
bas 53, expnt(s) = [0.8]
bas 54, expnt(s) = [18.731137   2.8253937  0.6401217]
bas 55, expnt(s) = [0.1612778]
bas 56, expnt(s) = [1.1]
bas 57, expnt(s) = [18.731137   2.8253937  0.6401217]
bas 58, expnt(s) = [0.1612778]
bas 59, expnt(s) = [1.1]
bas 60, expnt(s) = [18.731137   2.8253937  0.6401217]
bas 61, expnt(s) = [0.1612778]
bas 62, expnt(s) = [1.1]
bas 63, expnt(s) = [18.731137   2.8253937  0.6401217]
bas 64, expnt(s) = [0.1612778]
bas 65, expnt(s) = [1.1]
bas 66, expnt(s) = [18.731137   2.8253937  0.6401217]
bas 67, expnt(s) = [0.1612778]
bas 68, expnt(s) = [1.1]
bas 69, expnt(s) = [18.731137   2.8253937  0.6401217]
bas 70, expnt(s) = [0.1612778]
bas 71, expnt(s) = [1.1]
bas 72, expnt(s) = [18.731137   2.8253937  0.6401217]
bas 73, expnt(s) = [0.1612778]
bas 74, expnt(s) = [1.1]
bas 75, expnt(s) = [18.731137   2.8253937  0.6401217]
bas 76, expnt(s) = [0.1612778]
bas 77, expnt(s) = [1.1]
bas 78, expnt(s) = [18.731137   2.8253937  0.6401217]
bas 79, expnt(s) = [0.1612778]
bas 80, expnt(s) = [1.1]
bas 81, expnt(s) = [18.731137   2.8253937  0.6401217]
bas 82, expnt(s) = [0.1612778]
bas 83, expnt(s) = [1.1]
bas 84, expnt(s) = [18.731137   2.8253937  0.6401217]
bas 85, expnt(s) = [0.1612778]
bas 86, expnt(s) = [1.1]
bas 87, expnt(s) = [18.731137   2.8253937  0.6401217]
bas 88, expnt(s) = [0.1612778]
bas 89, expnt(s) = [1.1]
bas 90, expnt(s) = [18.731137   2.8253937  0.6401217]
bas 91, expnt(s) = [0.1612778]
bas 92, expnt(s) = [1.1]
bas 93, expnt(s) = [18.731137   2.8253937  0.6401217]
bas 94, expnt(s) = [0.1612778]
bas 95, expnt(s) = [1.1]
bas 96, expnt(s) = [18.731137   2.8253937  0.6401217]
bas 97, expnt(s) = [0.1612778]
bas 98, expnt(s) = [1.1]
bas 99, expnt(s) = [18.731137   2.8253937  0.6401217]
bas 100, expnt(s) = [0.1612778]
bas 101, expnt(s) = [1.1]
bas 102, expnt(s) = [18.731137   2.8253937  0.6401217]
bas 103, expnt(s) = [0.1612778]
bas 104, expnt(s) = [1.1]
bas 105, expnt(s) = [18.731137   2.8253937  0.6401217]
bas 106, expnt(s) = [0.1612778]
bas 107, expnt(s) = [1.1]
CPU time:       323.17
arg.atm = [[  8  20   1  23   0   0]
 [  8  24   1  27   0   0]
 [  8  28   1  31   0   0]
 [  8  32   1  35   0   0]
 [  8  36   1  39   0   0]
 [  8  40   1  43   0   0]
 [  8  44   1  47   0   0]
 [  8  48   1  51   0   0]
 [  8  52   1  55   0   0]
 [  1  56   1  59   0   0]
 [  1  60   1  63   0   0]
 [  1  64   1  67   0   0]
 [  1  68   1  71   0   0]
 [  1  72   1  75   0   0]
 [  1  76   1  79   0   0]
 [  1  80   1  83   0   0]
 [  1  84   1  87   0   0]
 [  1  88   1  91   0   0]
 [  1  92   1  95   0   0]
 [  1  96   1  99   0   0]
 [  1 100   1 103   0   0]
 [  1 104   1 107   0   0]
 [  1 108   1 111   0   0]
 [  1 112   1 115   0   0]
 [  1 116   1 119   0   0]
 [  1 120   1 123   0   0]
 [  1 124   1 127   0   0]]
arg.bas = [[  0   0   6   1   0 138 144   0]
 [  0   0   3   1   0 150 153   0]
 [  0   0   1   1   0 156 157   0]
 [  0   1   3   1   0 158 161   0]
 [  0   1   1   1   0 164 165   0]
 [  0   2   1   1   0 166 167   0]
 [  1   0   6   1   0 138 144   0]
 [  1   0   3   1   0 150 153   0]
 [  1   0   1   1   0 156 157   0]
 [  1   1   3   1   0 158 161   0]
 [  1   1   1   1   0 164 165   0]
 [  1   2   1   1   0 166 167   0]
 [  2   0   6   1   0 138 144   0]
 [  2   0   3   1   0 150 153   0]
 [  2   0   1   1   0 156 157   0]
 [  2   1   3   1   0 158 161   0]
 [  2   1   1   1   0 164 165   0]
 [  2   2   1   1   0 166 167   0]
 [  3   0   6   1   0 138 144   0]
 [  3   0   3   1   0 150 153   0]
 [  3   0   1   1   0 156 157   0]
 [  3   1   3   1   0 158 161   0]
 [  3   1   1   1   0 164 165   0]
 [  3   2   1   1   0 166 167   0]
 [  4   0   6   1   0 138 144   0]
 [  4   0   3   1   0 150 153   0]
 [  4   0   1   1   0 156 157   0]
 [  4   1   3   1   0 158 161   0]
 [  4   1   1   1   0 164 165   0]
 [  4   2   1   1   0 166 167   0]
 [  5   0   6   1   0 138 144   0]
 [  5   0   3   1   0 150 153   0]
 [  5   0   1   1   0 156 157   0]
 [  5   1   3   1   0 158 161   0]
 [  5   1   1   1   0 164 165   0]
 [  5   2   1   1   0 166 167   0]
 [  6   0   6   1   0 138 144   0]
 [  6   0   3   1   0 150 153   0]
 [  6   0   1   1   0 156 157   0]
 [  6   1   3   1   0 158 161   0]
 [  6   1   1   1   0 164 165   0]
 [  6   2   1   1   0 166 167   0]
 [  7   0   6   1   0 138 144   0]
 [  7   0   3   1   0 150 153   0]
 [  7   0   1   1   0 156 157   0]
 [  7   1   3   1   0 158 161   0]
 [  7   1   1   1   0 164 165   0]
 [  7   2   1   1   0 166 167   0]
 [  8   0   6   1   0 138 144   0]
 [  8   0   3   1   0 150 153   0]
 [  8   0   1   1   0 156 157   0]
 [  8   1   3   1   0 158 161   0]
 [  8   1   1   1   0 164 165   0]
 [  8   2   1   1   0 166 167   0]
 [  9   0   3   1   0 128 131   0]
 [  9   0   1   1   0 134 135   0]
 [  9   1   1   1   0 136 137   0]
 [ 10   0   3   1   0 128 131   0]
 [ 10   0   1   1   0 134 135   0]
 [ 10   1   1   1   0 136 137   0]
 [ 11   0   3   1   0 128 131   0]
 [ 11   0   1   1   0 134 135   0]
 [ 11   1   1   1   0 136 137   0]
 [ 12   0   3   1   0 128 131   0]
 [ 12   0   1   1   0 134 135   0]
 [ 12   1   1   1   0 136 137   0]
 [ 13   0   3   1   0 128 131   0]
 [ 13   0   1   1   0 134 135   0]
 [ 13   1   1   1   0 136 137   0]
 [ 14   0   3   1   0 128 131   0]
 [ 14   0   1   1   0 134 135   0]
 [ 14   1   1   1   0 136 137   0]
 [ 15   0   3   1   0 128 131   0]
 [ 15   0   1   1   0 134 135   0]
 [ 15   1   1   1   0 136 137   0]
 [ 16   0   3   1   0 128 131   0]
 [ 16   0   1   1   0 134 135   0]
 [ 16   1   1   1   0 136 137   0]
 [ 17   0   3   1   0 128 131   0]
 [ 17   0   1   1   0 134 135   0]
 [ 17   1   1   1   0 136 137   0]
 [ 18   0   3   1   0 128 131   0]
 [ 18   0   1   1   0 134 135   0]
 [ 18   1   1   1   0 136 137   0]
 [ 19   0   3   1   0 128 131   0]
 [ 19   0   1   1   0 134 135   0]
 [ 19   1   1   1   0 136 137   0]
 [ 20   0   3   1   0 128 131   0]
 [ 20   0   1   1   0 134 135   0]
 [ 20   1   1   1   0 136 137   0]
 [ 21   0   3   1   0 128 131   0]
 [ 21   0   1   1   0 134 135   0]
 [ 21   1   1   1   0 136 137   0]
 [ 22   0   3   1   0 128 131   0]
 [ 22   0   1   1   0 134 135   0]
 [ 22   1   1   1   0 136 137   0]
 [ 23   0   3   1   0 128 131   0]
 [ 23   0   1   1   0 134 135   0]
 [ 23   1   1   1   0 136 137   0]
 [ 24   0   3   1   0 128 131   0]
 [ 24   0   1   1   0 134 135   0]
 [ 24   1   1   1   0 136 137   0]
 [ 25   0   3   1   0 128 131   0]
 [ 25   0   1   1   0 134 135   0]
 [ 25   1   1   1   0 136 137   0]
 [ 26   0   3   1   0 128 131   0]
 [ 26   0   1   1   0 134 135   0]
 [ 26   1   1   1   0 136 137   0]]
arg.env = [ 1.37036000e+02  0.00000000e+00  0.00000000e+00  0.00000000e+00
  0.00000000e+00  0.00000000e+00  0.00000000e+00  0.00000000e+00
  0.00000000e+00  0.00000000e+00  0.00000000e+00  0.00000000e+00
  0.00000000e+00  0.00000000e+00  0.00000000e+00  0.00000000e+00
  0.00000000e+00  0.00000000e+00  0.00000000e+00  0.00000000e+00
  1.58591958e+01 -2.23232232e+01 -2.11658453e+01  0.00000000e+00
  1.64278541e+01 -2.65870709e+01 -1.80414289e+01  0.00000000e+00
  1.05265153e+01 -2.41129828e+01 -2.02839555e+01  0.00000000e+00
  1.31641969e+01 -1.74757998e+01 -1.94156226e+01  0.00000000e+00
  1.31196920e+01 -2.23542903e+01 -1.58189805e+01  0.00000000e+00
  7.63287216e+00 -2.12107811e+01 -2.41968281e+01  0.00000000e+00
  1.05536555e+01 -2.94649215e+01 -2.16748884e+01  0.00000000e+00
  5.58362480e+00 -2.40041441e+01 -1.86623796e+01  0.00000000e+00
  7.95719829e+00 -2.51911925e+01 -1.42761212e+01  0.00000000e+00
  1.54490326e+01 -2.36930366e+01 -2.00580047e+01  0.00000000e+00
  1.74840371e+01 -2.17584956e+01 -2.06064713e+01  0.00000000e+00
  1.55337188e+01 -2.59511213e+01 -1.66033699e+01  0.00000000e+00
  1.61624534e+01 -2.83754831e+01 -1.79860013e+01  0.00000000e+00
  8.77344660e+00 -2.42410798e+01 -1.98570305e+01  0.00000000e+00
  1.13076525e+01 -2.34423738e+01 -1.87966655e+01  0.00000000e+00
  1.31811270e+01 -1.86043839e+01 -2.08291075e+01  0.00000000e+00
  1.45213642e+01 -1.63243462e+01 -1.97383746e+01  0.00000000e+00
  1.41645820e+01 -2.28487768e+01 -1.44277169e+01  0.00000000e+00
  1.38091000e+01 -2.07734569e+01 -1.63645142e+01  0.00000000e+00
  8.55071592e+00 -2.27666815e+01 -2.41037950e+01  0.00000000e+00
  8.37549106e+00 -2.03288025e+01 -2.55905880e+01  0.00000000e+00
  8.84108934e+00 -2.90041213e+01 -2.20308448e+01  0.00000000e+00
  1.13441828e+01 -2.79179445e+01 -2.11710515e+01  0.00000000e+00
  5.79022289e+00 -2.55204508e+01 -1.76979825e+01  0.00000000e+00
  5.17491673e+00 -2.27388534e+01 -1.74360362e+01  0.00000000e+00
  9.38018663e+00 -2.40850659e+01 -1.41227926e+01  0.00000000e+00
  8.66153702e+00 -2.67619008e+01 -1.48317423e+01  0.00000000e+00
  1.87311370e+01  2.82539370e+00  6.40121700e-01  7.61926220e-01
  1.29237100e+00  1.47131900e+00  1.61277800e-01  6.42977783e-01
  1.10000000e+00  3.28643653e+00  5.48467170e+03  8.25234950e+02
  1.88046960e+02  5.29645000e+01  1.68975700e+01  5.79963530e+00
  2.94842455e+00  5.42657124e+00  8.78126489e+00  1.15432129e+01
  9.90055015e+00  3.38516599e+00  1.55396160e+01  3.59993360e+00
  1.01376180e+00 -2.19051792e+00 -9.77405528e-01  2.88629094e+00
  2.70005800e-01  9.46334873e-01  1.55396160e+01  3.59993360e+00
  1.01376180e+00  6.37930734e+00  4.91490975e+00  2.15791055e+00
  2.70005800e-01  5.67807022e-01  8.00000000e-01  1.76578110e+00]
ecpbas  = []


******** <class 'pyscf.qmmm.itrf.mm_charge.<locals>.QMMM'> ********
method = QMMM-RHF
initial guess = minao
damping factor = 0
level shift factor = 0
DIIS = <class 'pyscf.scf.diis.CDIIS'>
DIIS start cycle = 1
DIIS space = 8
SCF tol = 1e-09
SCF gradient tol = None
max. SCF cycles = 50
direct_scf = True
direct_scf_tol = 1e-13
chkfile to save SCF result = /home/liwei01/wsr/dftpart/test_2body/w32/tmpwvzki1ap
max_memory 4000 MB (current use 299 MB)
** Add background charges for <class 'pyscf.scf.hf.RHF'> **
Charge      Location
-1.035697    [ 20.23144001 -20.50137794 -19.07019386]
0.520608    [ 21.7723038  -21.39222885 -18.74761761]
0.515624    [ 19.97024207 -19.49608333 -17.58928542]
-1.024266    [ 13.70105109 -18.63199472 -24.76194313]
0.515186    [ 13.45609723 -19.31578456 -26.41855264]
0.515422    [ 13.87339411 -20.08163576 -23.69387937]
-1.002885    [ 18.40539199 -27.51482622 -24.72543362]
0.521542    [ 17.83274639 -26.30664305 -23.50711585]
0.49877    [ 20.13069872 -27.06649815 -25.03241585]
-1.054902    [ 19.05772167 -18.14703431 -25.87868434]
0.517977    [ 18.59105569 -18.66655214 -27.54728983]
0.522623    [ 17.51229609 -18.19498233 -24.93991564]
-0.997115    [ 17.90283445 -15.11249509 -20.63210731]
0.530073    [ 18.89257472 -16.62132612 -20.50652934]
0.49195    [ 18.18557149 -14.25298717 -19.06582671]
-1.032188    [ 15.97118286 -20.09833149 -29.6421136 ]
0.47982    [ 15.3540909  -19.66610766 -31.28659296]
0.534069    [ 17.50300052 -21.00734455 -29.95701189]
-0.985176    [ 16.63195772 -23.48150439 -12.27810621]
0.500614    [ 17.11266814 -22.20236011 -11.09293235]
0.508291    [ 16.89319913 -25.03868407 -11.39557387]
-0.979947    [ 19.94097588 -17.12125506 -14.67509908]
0.500341    [ 18.95312155 -17.86288753 -13.35371942]
0.493696    [ 19.00620207 -15.6543646  -15.17143564]
-0.982261    [ 16.04742575 -26.75780005 -29.6895325 ]
0.479882    [ 16.71262824 -28.42851069 -29.88488293]
0.495008    [ 16.8532352  -26.12000803 -28.20097066]
-0.983713    [ 20.17321188 -22.53529584 -29.89394228]
0.505479    [ 21.06170253 -23.16751127 -28.4507471 ]
0.512532    [ 20.35114661 -23.83370776 -31.14069287]
-1.011239    [ 14.66303696 -31.18986921 -25.03135193]
0.492592    [ 13.80996545 -30.6346091  -23.53606456]
0.497341    [ 16.13314373 -30.14067248 -25.13086491]
-0.999332    [ 25.43111026 -22.24828235 -18.47023794]
0.512801    [ 26.28398524 -20.77981964 -19.09325419]
0.507583    [ 26.7410892  -23.47726762 -18.25698991]
-1.016163    [ 10.56617686 -29.35403808 -16.44102735]
0.483053    [ 11.92280935 -30.36927076 -15.8079521 ]
0.523726    [ 10.34862781 -29.90290525 -18.15080431]
-0.976012    [ 10.09067452 -21.18806662 -29.24260093]
0.486289    [ 11.11173701 -19.76402949 -29.69146191]
0.496485    [ 10.37375928 -22.38512875 -30.56881072]
-0.977833    [ 24.5589393  -27.80514674 -21.18389789]
0.50587    [ 23.21796885 -28.65180829 -20.31390388]
0.463809    [ 25.76766104 -27.42438582 -19.8931866 ]
-0.989717    [  8.77070649 -15.37911655 -23.94499373]
0.487556    [  8.68859978 -13.74216775 -23.17975481]
0.496916    [ 10.53805395 -15.75730555 -24.01835668]
-0.992057    [ 16.93410036 -32.15697813 -17.52810554]
0.50918    [ 16.39069828 -32.53931319 -15.84570882]
0.510293    [ 15.6895513  -32.92540692 -18.59231236]
-0.998393    [ 24.35861321 -18.31258187 -25.98586582]
0.466984    [ 25.48944989 -18.60606579 -24.60492389]
0.51604    [ 22.70911474 -18.4111103  -25.25008395]
-1.010464    [  9.27281806 -14.9477601  -17.25327322]
0.476424    [  7.6789399  -15.16789619 -18.07972415]
0.517552    [ 10.24747455 -16.38576609 -17.75736144]
-1.001943    [ 16.13613705 -11.83176802 -24.46883904]
0.509813    [ 16.78082846 -12.94299123 -23.1954641 ]
0.477312    [ 17.5304658  -11.57071369 -25.59117007]
-1.019724    [ 21.67798379 -29.0173418  -14.20699124]
0.475311    [ 20.53074618 -29.01816194 -15.60548117]
0.514632    [ 22.50198564 -27.40961194 -14.29731259]
-0.9959    [ 24.21450458 -24.60133719 -13.9203349 ]
0.499354    [ 23.58737251 -23.46499007 -12.66043371]
0.511038    [ 23.91476757 -23.75039163 -15.48812918]
-1.001922    [ 21.40011279 -32.14724982 -20.33868764]
0.487648    [ 22.14106118 -33.75675602 -19.97480576]
0.509505    [ 19.73399418 -32.24696878 -19.64152988]
Set gradient conv threshold to 3.16228e-05
Nelec from initial guess = 89.91238358048223
cond(S) = 194.24643303900055
E1 = -2057.5443521997963  E_coul = 810.155028862241
init E= -682.958841448171
    CPU time for initialize scf     12.78 sec, wall time      1.60 sec
  HOMO = -0.427121435383552  LUMO = 0.0392235906721869
  mo_energy =
[-20.8688973  -20.82923482 -20.82455599 -20.81366256 -20.8018349
 -20.79310458 -20.7857858  -20.77766283 -20.75489908  -1.69507047
  -1.67627967  -1.65706041  -1.634364    -1.62265379  -1.61393961
  -1.60387769  -1.58032865  -1.56899269  -0.8130369   -0.80690604
  -0.78524042  -0.76435825  -0.76067569  -0.74971285  -0.73668662
  -0.72156958  -0.69985789  -0.66167083  -0.64548005  -0.62742723
  -0.60972923  -0.59496229  -0.59210456  -0.57115102  -0.55239742
  -0.54590567  -0.54027981  -0.51442063  -0.50512192  -0.48441124
  -0.48307822  -0.47851906  -0.4671886   -0.43897812  -0.42712144
   0.03922359   0.09866986   0.11608681   0.13313063   0.16612454
   0.18597437   0.20217266   0.21023075   0.22041574   0.2422136
   0.25393299   0.25894057   0.2709026    0.30489419   0.30748373
   0.31650227   0.33604764   0.36148155   0.81700666   0.87021496
   0.89421375   0.89958617   0.91531162   0.93048069   0.93894524
   0.94402026   0.95387172   0.9646774    0.970574     0.97889719
   0.98889807   0.99301498   1.01167287   1.01896652   1.02856426
   1.04384481   1.04821817   1.0508823    1.05964386   1.07081037
   1.07735145   1.09737491   1.1091594    1.11215735   1.13273153
   1.14594226   1.1548803    1.1680557    1.181968     1.1922213
   1.20066695   1.20356665   1.22706305   1.2375756    1.24769344
   1.2552059    1.26800744   1.27872133   1.28723611   1.30910553
   1.31770688   1.37805704   1.40374416   1.47843748   1.49773418
   1.54014038   1.54985847   1.57302971   1.57938376   1.6192597
   1.6599661    1.66529403   1.67517472   1.69057971   1.69606485
   1.70384764   1.71585291   1.71905638   1.72530413   1.72888976
   1.73128917   1.73809116   1.75038442   1.7582883    1.77182501
   1.77593101   1.77982487   1.78359148   1.79123937   1.79746662
   1.82438792   1.85442358   1.86467095   1.86767952   1.88477418
   1.89488264   1.94741054   1.97054344   2.01660432   2.43456189
   2.46689734   2.48012735   2.48251213   2.49788388   2.51192755
   2.52407796   2.52814055   2.53575085   2.54224537   2.55023671
   2.56689365   2.57505586   2.57985314   2.60300585   2.61288428
   2.62027802   2.67223689   2.69505673   2.71282542   2.7337922
   2.74876377   2.75451546   2.76619091   2.79095027   2.7933114
   2.8415177    2.85926954   2.88839264   2.88980095   2.90771688
   2.91628816   2.92428177   2.92755052   2.93142227   2.9361384
   2.94455693   2.95573828   2.96023896   2.96678937   2.97898769
   2.9869435    2.99494357   3.00125214   3.02151375   3.28382985
   3.30890821   3.32380373   3.32754798   3.36054813   3.36241198
   3.36751542   3.3826894    3.38938659   3.65569296   3.70139127
   3.70406717   3.71492435   3.73892006   3.75749342   3.76083755
   3.76915661   3.79527843   3.82674889   3.84973847   3.87407588
   3.88739904   3.90604074   3.91729608   3.93043211   3.93808055
   3.99879239]
E1 = -2080.486750741269  E_coul = 831.9880817538783
cycle= 1 E= -684.068187098006  delta_E= -1.11  |g|= 1.28  |ddm|= 3.54
    CPU time for cycle= 1      2.34 sec, wall time      0.29 sec
diis-norm(errvec)=2.28284
diis-c [-5.21133645  1.        ]
  HOMO = -0.307712347929934  LUMO = 0.154348156684511
  mo_energy =
[-20.43254824 -20.4037392  -20.33657824 -20.33460122 -20.32198435
 -20.31512846 -20.29708403 -20.28370361 -20.20917898  -1.35099385
  -1.34074033  -1.28433324  -1.28302641  -1.2656928   -1.26381941
  -1.25523098  -1.22958758  -1.16415075  -0.73009889  -0.71542259
  -0.66643127  -0.66469749  -0.64761523  -0.64210847  -0.64158216
  -0.62407149  -0.56970135  -0.56517428  -0.54588839  -0.51700724
  -0.51280245  -0.50432418  -0.49834375  -0.48778147  -0.47804047
  -0.4699864   -0.46557156  -0.43856331  -0.42233449  -0.41971069
  -0.39778403  -0.3921798   -0.38440688  -0.37849535  -0.30771235
   0.15434816   0.21763505   0.22019981   0.24880786   0.27265778
   0.30979456   0.31653861   0.32151217   0.33415601   0.35394913
   0.35897568   0.36530777   0.39075593   0.39368665   0.42765134
   0.45235114   0.47376131   0.54310424   0.9424148    0.99019992
   0.99281311   1.01232685   1.01940386   1.03786072   1.05541197
   1.06141771   1.06820782   1.08330124   1.08854979   1.11688855
   1.12648532   1.14175561   1.14801588   1.16000459   1.16922742
   1.17724454   1.18827081   1.19594005   1.21091793   1.21635182
   1.22579748   1.24627493   1.26113471   1.27111305   1.27999884
   1.30247327   1.31866381   1.32711435   1.34759922   1.36013644
   1.36926548   1.37854649   1.39434915   1.3976235    1.4023754
   1.4271576    1.43727755   1.44941206   1.45644738   1.49035757
   1.5065972    1.5169645    1.55610616   1.62343408   1.65665636
   1.68497535   1.70899583   1.71913767   1.74673664   1.76997053
   1.77882472   1.7933913    1.8123546    1.8236592    1.82957025
   1.83889843   1.84456272   1.85421105   1.85994095   1.86274088
   1.87426286   1.88857143   1.89197467   1.89912697   1.90357051
   1.90571115   1.93624398   1.95428692   1.95870901   1.96326377
   1.97937573   2.00721497   2.02288075   2.03098789   2.05812507
   2.07524472   2.10114944   2.13609048   2.17386424   2.50128501
   2.52965654   2.55666705   2.57063567   2.57906735   2.584895
   2.59300643   2.61043029   2.61953022   2.62499059   2.63000446
   2.64470256   2.65697622   2.67980672   2.68340998   2.70233688
   2.74414844   2.79434872   2.81834322   2.84270889   2.84780567
   2.85798212   2.86704828   2.86987331   2.89191389   2.93720681
   2.94441606   2.95766139   2.96562371   2.97958098   2.9823999
   2.98919254   2.99851206   3.00322791   3.00446396   3.02305765
   3.02937603   3.03872478   3.04176003   3.06297946   3.07025891
   3.08840197   3.10803911   3.11770419   3.13440667   3.34964652
   3.36519042   3.39708444   3.40601998   3.41743515   3.44108701
   3.46252909   3.49168288   3.51286085   3.73251999   3.77178051
   3.77809334   3.78983538   3.8049762    3.81999923   3.84898333
   3.89157388   3.92732152   3.94765437   3.9641501    4.00777012
   4.01211506   4.02121463   4.02875213   4.08552839   4.09512146
   4.17060571]
E1 = -2066.9544554703257  E_coul = 818.2142568222476
cycle= 2 E= -684.309716758694  delta_E= -0.242  |g|= 0.613  |ddm|= 1.02
    CPU time for cycle= 2      2.28 sec, wall time      0.29 sec
diis-norm(errvec)=1.03506
diis-c [-0.25682378  0.28849165  0.71150835]
  HOMO = -0.407872023995832  LUMO = 0.153084969926505
  mo_energy =
[-20.63501003 -20.62116169 -20.60016736 -20.58300489 -20.57705473
 -20.5762222  -20.56678429 -20.54019341 -20.49337896  -1.40350008
  -1.3928391   -1.36648639  -1.34910181  -1.34559689  -1.3405981
  -1.33492943  -1.31098418  -1.25466483  -0.76867287  -0.75324452
  -0.72887802  -0.71595937  -0.70889327  -0.70548841  -0.6971684
  -0.68566513  -0.63373641  -0.6250208   -0.61697631  -0.60281972
  -0.58497081  -0.58348704  -0.57504254  -0.56042866  -0.54985714
  -0.54614229  -0.54189755  -0.52753367  -0.50946243  -0.4968984
  -0.4894041   -0.48207015  -0.47199695  -0.46509754  -0.40787202
   0.15308497   0.21022765   0.21203985   0.23818545   0.26466282
   0.29855377   0.30747173   0.31105784   0.31747682   0.33889751
   0.34590595   0.359089     0.36879367   0.38815909   0.40303957
   0.42718259   0.44572372   0.5069431    0.91663554   0.96293311
   0.97409911   0.98941304   0.99967149   1.01569004   1.02640904
   1.04389896   1.05114276   1.05874146   1.07418268   1.07826989
   1.08960911   1.09684702   1.10420283   1.10950116   1.12627913
   1.13296424   1.13813739   1.14364967   1.15236696   1.16066838
   1.19069219   1.19581392   1.20602022   1.21598177   1.22976527
   1.24923145   1.26104755   1.28123243   1.2848362    1.29844312
   1.31660633   1.32182124   1.33123844   1.33755704   1.35282496
   1.36791681   1.37710705   1.39404965   1.40084672   1.42155431
   1.4487788    1.45955291   1.50256702   1.57819666   1.60736304
   1.6391307    1.65731485   1.67142428   1.70180816   1.71800116
   1.75224912   1.75417975   1.77405001   1.7810378    1.79510869
   1.79955413   1.80870942   1.81375847   1.81651901   1.82418807
   1.83186031   1.83861148   1.84403117   1.85280303   1.85997795
   1.86300062   1.89108394   1.89923266   1.90746573   1.91972866
   1.92705031   1.95295832   1.9657412    1.98607321   2.00976461
   2.01369127   2.05011663   2.08102711   2.12167736   2.51134894
   2.53647222   2.54298082   2.55522089   2.55825788   2.57059661
   2.58428953   2.59181048   2.59260332   2.59543712   2.61193849
   2.61374069   2.63400046   2.64529561   2.66277687   2.6760706
   2.68422676   2.76623224   2.79024294   2.80213216   2.81542876
   2.8212438    2.83257736   2.8340757    2.8536125    2.91422439
   2.92074259   2.93834398   2.94046078   2.95743394   2.96200679
   2.9777646    2.9784018    2.97933101   2.98611974   3.00526168
   3.01223911   3.01876549   3.02167924   3.03171394   3.04049087
   3.05361096   3.08167694   3.08865913   3.09736339   3.34004214
   3.35993209   3.37871381   3.38226571   3.39397839   3.42282469
   3.43401569   3.45915802   3.48071781   3.72015769   3.74518437
   3.76051585   3.76654305   3.77883592   3.79766987   3.81440354
   3.85211394   3.88938888   3.91282937   3.93055946   3.95670673
   3.96794599   3.97959405   3.98833261   4.03162842   4.03580584
   4.11754772]
E1 = -2072.886891190693  E_coul = 824.0810597048333
cycle= 3 E= -684.375349596475  delta_E= -0.0656  |g|= 0.0891  |ddm|=  0.4
    CPU time for cycle= 3      2.29 sec, wall time      0.29 sec
diis-norm(errvec)=0.163391
diis-c [-0.01294911 -0.02604296  0.05990958  0.96613338]
  HOMO = -0.397966439781122  LUMO = 0.160170048441894
  mo_energy =
[-20.6013844  -20.59357569 -20.56884212 -20.54703369 -20.54318057
 -20.5427137  -20.53804805 -20.51462862 -20.4574354   -1.38869826
  -1.3784638   -1.35459191  -1.33510126  -1.33192014  -1.32730514
  -1.32187085  -1.30149331  -1.24161139  -0.7551187   -0.74008137
  -0.71836736  -0.70445747  -0.69730103  -0.69289785  -0.6852657
  -0.67634323  -0.62291534  -0.61490793  -0.60591807  -0.59470707
  -0.57468038  -0.57321119  -0.56505397  -0.55099978  -0.53960539
  -0.53707744  -0.53132008  -0.51796995  -0.49864076  -0.48667436
  -0.47875886  -0.47307995  -0.46269138  -0.45805751  -0.39796644
   0.16017005   0.21554764   0.21847853   0.24406246   0.270859
   0.30486122   0.31356405   0.31785449   0.32322018   0.34417374
   0.35233041   0.36664104   0.37486168   0.39637753   0.40826273
   0.43292783   0.4515893    0.51256002   0.92290106   0.97035723
   0.98329194   0.99811391   1.00783622   1.02372031   1.03299473
   1.05324301   1.06182547   1.06847163   1.08366235   1.08813632
   1.09980978   1.10527284   1.11402334   1.11836379   1.13526916
   1.1406444    1.14796907   1.15309429   1.16060724   1.16973027
   1.20039395   1.20373761   1.21607856   1.22487971   1.2370422
   1.25733167   1.27065358   1.29048715   1.29399656   1.30777017
   1.32596212   1.33082053   1.33950787   1.34667574   1.36087266
   1.3762318    1.38669324   1.40245165   1.41002873   1.42947077
   1.45559127   1.46882565   1.51159346   1.58901871   1.61707039
   1.64906841   1.66653969   1.6819127    1.71176246   1.7281945
   1.76328105   1.76534252   1.78443474   1.79070589   1.80545199
   1.80996765   1.82034919   1.82448029   1.82602065   1.83514485
   1.84234915   1.84781364   1.85424166   1.86146983   1.87030473
   1.8733584    1.90096515   1.90792272   1.91718929   1.92877005
   1.93758688   1.96236431   1.97592862   1.99658997   2.01801345
   2.02199976   2.05799323   2.08796723   2.12960316   2.5234552
   2.54871525   2.55497104   2.56494118   2.56987009   2.58072358
   2.5956464    2.60206715   2.60350336   2.60417862   2.62130583
   2.62443113   2.6431759    2.65415381   2.67225401   2.68482565
   2.69365096   2.77885322   2.8012515    2.81212896   2.82762738
   2.8335505    2.84431156   2.84578706   2.86321084   2.92509986
   2.93076652   2.94935962   2.95232912   2.96655018   2.97189106
   2.98510936   2.98909757   2.98957857   2.99784879   3.01557142
   3.02072959   3.02827717   3.03307622   3.03800452   3.04830929
   3.06061371   3.09094961   3.09566445   3.10574753   3.35145462
   3.37143105   3.38645128   3.39270729   3.40407611   3.43301172
   3.44230671   3.46603855   3.48809625   3.73558409   3.75750752
   3.77490897   3.78073298   3.79335698   3.81169512   3.82701304
   3.86470384   3.89933066   3.92572038   3.94232103   3.96730954
   3.98031754   3.99073112   4.00139422   4.0417355    4.04660954
   4.12505305]
E1 = -2072.2199584300897  E_coul = 823.4123297496393
cycle= 4 E= -684.377146791066  delta_E= -0.0018  |g|= 0.0146  |ddm|= 0.0574
    CPU time for cycle= 4      2.29 sec, wall time      0.29 sec
diis-norm(errvec)=0.0302073
diis-c [-2.82619559e-04 -9.40442686e-03 -3.78612951e-02 -1.39096261e-01
  1.18636198e+00]
  HOMO = -0.400152842968375  LUMO = 0.160090698090786
  mo_energy =
[-20.60409841 -20.59410965 -20.57001151 -20.55097502 -20.54514995
 -20.545104   -20.53954222 -20.51421229 -20.46169963  -1.38968094
  -1.37851926  -1.35531692  -1.33590424  -1.33304986  -1.32841993
  -1.3225998   -1.30164523  -1.24331114  -0.75529371  -0.73972129
  -0.71850087  -0.70448045  -0.69757384  -0.69347636  -0.68533797
  -0.67624905  -0.62357996  -0.6148195   -0.60666253  -0.59518877
  -0.57548214  -0.573684    -0.56580346  -0.55140067  -0.54075537
  -0.53769937  -0.53182076  -0.51893044  -0.50005156  -0.4879579
  -0.48026482  -0.47433352  -0.46407697  -0.45880334  -0.40015284
   0.1600907    0.2153924    0.21853577   0.24386626   0.27086889
   0.30496258   0.31339689   0.31790487   0.32313757   0.34413297
   0.35251276   0.36683436   0.37500084   0.39657721   0.40829244
   0.43304399   0.45159041   0.51282542   0.92274731   0.97016964
   0.98322208   0.99813347   1.00770504   1.02353512   1.03273165
   1.05306224   1.06150052   1.06801492   1.08327911   1.08800859
   1.0995507    1.10493685   1.11344404   1.11784877   1.13475196
   1.14010117   1.14753738   1.15265198   1.16016667   1.16907908
   1.19973028   1.20301094   1.21553303   1.2245723    1.23671049
   1.25682808   1.27046277   1.29021837   1.2935457    1.30743742
   1.32557076   1.33059523   1.33914715   1.34620548   1.36074847
   1.3756407    1.38627232   1.402067     1.40978364   1.42894798
   1.45542667   1.46851179   1.51149238   1.58839677   1.61674771
   1.64872673   1.6661997    1.68145318   1.71116216   1.7276086
   1.76319625   1.76505852   1.78425518   1.79041899   1.80522954
   1.80981423   1.82011796   1.824197     1.82568261   1.83500766
   1.84207046   1.84748578   1.85396645   1.86127429   1.87010177
   1.87304859   1.90065351   1.90758364   1.91649136   1.92804991
   1.93773486   1.96202934   1.97538947   1.99617183   2.01782466
   2.02137498   2.05787582   2.08782145   2.12932229   2.52361842
   2.54871892   2.55517      2.56495926   2.57024067   2.58078887
   2.5955503    2.60202095   2.60310254   2.60404072   2.62110776
   2.6246302    2.64313264   2.65405988   2.67205082   2.68473714
   2.69294993   2.77876519   2.8014102    2.81207855   2.82809809
   2.83330416   2.84439511   2.84587275   2.86337977   2.92460273
   2.93112867   2.94959842   2.95248714   2.9667318    2.97234904
   2.98493913   2.98899577   2.98969556   2.9980402    3.01539655
   3.02068818   3.02862258   3.03308889   3.03842061   3.04827231
   3.0605418    3.09049941   3.09554594   3.10581708   3.35153918
   3.37200231   3.38644867   3.39298227   3.40427636   3.43330728
   3.44226756   3.46605671   3.488063     3.7355056    3.75739887
   3.77489126   3.78078646   3.7935117    3.8117475    3.82674665
   3.86423936   3.89955728   3.92570681   3.94262178   3.96730075
   3.98058264   3.99096616   4.00157056   4.04170943   4.0463222
   4.12546484]
E1 = -2072.2518004519625  E_coul = 823.4440788075765
cycle= 5 E= -684.377239755001  delta_E= -9.3e-05  |g|= 0.00309  |ddm|= 0.0188
    CPU time for cycle= 5      2.28 sec, wall time      0.28 sec
diis-norm(errvec)=0.00584289
diis-c [-2.31432723e-05  1.26125219e-03  2.37749090e-03 -1.75880100e-02
 -7.06281643e-02  1.08457743e+00]
  HOMO = -0.399969815435415  LUMO = 0.160052575514419
  mo_energy =
[-20.60346534 -20.59454732 -20.57072988 -20.5494218  -20.5454387
 -20.5446346  -20.53962536 -20.51618423 -20.46021003  -1.38956144
  -1.3786722   -1.35562899  -1.33585247  -1.33292005  -1.32831689
  -1.32261422  -1.30231688  -1.24297142  -0.75511349  -0.73971581
  -0.71864034  -0.70452108  -0.69752456  -0.69304667  -0.68525358
  -0.67647398  -0.62352895  -0.61504728  -0.60633844  -0.59557603
  -0.57530309  -0.57370304  -0.56583294  -0.55159243  -0.54090167
  -0.5380073   -0.53212977  -0.51933091  -0.50003876  -0.48813326
  -0.48032246  -0.47409281  -0.46435408  -0.45959045  -0.39996982
   0.16005258   0.21534095   0.2184919    0.24385784   0.27084016
   0.30495338   0.31335399   0.31788279   0.32312251   0.34406275
   0.35249678   0.36686325   0.37502439   0.39666458   0.40811706
   0.43298367   0.45142692   0.51255765   0.92250578   0.96998482
   0.98315673   0.99801548   1.00758536   1.02353071   1.03257326
   1.05301679   1.06139513   1.06795984   1.08317096   1.08789432
   1.09946056   1.10477532   1.11345066   1.11770261   1.13464359
   1.13987114   1.14748239   1.15255613   1.16006768   1.16902803
   1.19972775   1.20294479   1.21556565   1.2246095    1.2365419
   1.25685869   1.27044415   1.29015904   1.29351179   1.30734553
   1.3255716    1.33054091   1.33912888   1.34614671   1.36069021
   1.37548886   1.38617761   1.40186056   1.40967571   1.42888728
   1.45511319   1.46843759   1.51125274   1.58839487   1.61660924
   1.64864099   1.66609388   1.68154446   1.71117634   1.7276145
   1.76313389   1.76503      1.78411654   1.79016893   1.80511365
   1.80967977   1.82012902   1.82416066   1.82565173   1.83486049
   1.84205342   1.84732811   1.85385334   1.86102448   1.87005738
   1.87296023   1.90056889   1.90732618   1.91651914   1.92815343
   1.937601     1.96190626   1.97553893   1.99620071   2.01759557
   2.02133288   2.05764868   2.08743668   2.12915219   2.52357322
   2.54871703   2.55513016   2.56477345   2.57012031   2.58067185
   2.59555171   2.60204592   2.60323931   2.60385382   2.62094107
   2.62461523   2.64301138   2.6539284    2.6719004    2.68464054
   2.69303144   2.77873716   2.80126978   2.81183843   2.82797098
   2.83347242   2.84421161   2.84589378   2.86310745   2.92470629
   2.93096057   2.94951965   2.95247869   2.96654935   2.97216829
   2.98471757   2.98904759   2.98971098   2.99805397   3.01540491
   3.02059858   3.02851744   3.03309968   3.03800347   3.0481165
   3.06035887   3.09052028   3.09539886   3.10566821   3.35154688
   3.37195658   3.38623778   3.3929943    3.40431237   3.43330937
   3.4420943    3.46581963   3.48792596   3.73554702   3.7572113
   3.77494527   3.78079075   3.7935211    3.81176059   3.82662933
   3.86429942   3.89926342   3.92570197   3.94252973   3.9671321
   3.98060599   3.99090822   4.00160885   4.04156099   4.04638997
   4.12495106]
E1 = -2072.246094745981  E_coul = 823.4383692356255
cycle= 6 E= -684.377243620971  delta_E= -3.87e-06  |g|= 0.00134  |ddm|= 0.00414
    CPU time for cycle= 6      2.27 sec, wall time      0.28 sec
diis-norm(errvec)=0.00240089
diis-c [-2.09224195e-06  1.20412675e-03  4.36933374e-03  6.77986490e-03
 -1.20548513e-01  2.44313032e-01  8.63882155e-01]
  HOMO = -0.400231356801618  LUMO = 0.160049343991263
  mo_energy =
[-20.60362966 -20.59421862 -20.57031939 -20.55000624 -20.54517925
 -20.54471759 -20.53950025 -20.5152215  -20.46082347  -1.3896122
  -1.37858924  -1.35551163  -1.33586152  -1.33298302  -1.32837983
  -1.32260253  -1.30205145  -1.24319188  -0.75510456  -0.73962358
  -0.7185149   -0.70444046  -0.69747357  -0.69315266  -0.68519327
  -0.67632894  -0.62358289  -0.61496661  -0.60644759  -0.59548861
  -0.57543885  -0.57372453  -0.56588862  -0.55155881  -0.54093901
  -0.53795329  -0.53207325  -0.51924392  -0.50014691  -0.48815147
  -0.48041842  -0.47431658  -0.46438163  -0.45939647  -0.40023136
   0.16004934   0.21534952   0.2184867    0.24384183   0.2708418
   0.30494728   0.31334709   0.31787514   0.32312119   0.34406727
   0.35251614   0.36686386   0.375013     0.39667532   0.40813784
   0.43297967   0.45144668   0.51263668   0.92253079   0.96999028
   0.98314692   0.99801554   1.00759015   1.02348657   1.03255937
   1.05301269   1.061401     1.06793469   1.08316839   1.08790598
   1.09946241   1.1047824    1.11338651   1.11769711   1.1346383
   1.13989916   1.14746189   1.15254836   1.16005499   1.16898607
   1.19965381   1.20286656   1.21551124   1.22455582   1.23655379
   1.25678556   1.27044073   1.29016874   1.29349646   1.30736891
   1.32553945   1.33054259   1.33908512   1.34613398   1.36070031
   1.37549487   1.38617168   1.40189467   1.40969089   1.42884528
   1.4551902    1.46844628   1.51134066   1.58838846   1.61665281
   1.64866971   1.66611524   1.68148054   1.71112924   1.72756688
   1.76312798   1.76501006   1.78413926   1.79022454   1.80512548
   1.80969764   1.82010365   1.82413535   1.82561417   1.83488764
   1.8420272    1.84734968   1.85387098   1.8610741    1.87004777
   1.87296471   1.90057865   1.90739376   1.91642047   1.928013
   1.93763569   1.96191373   1.97543784   1.99617788   2.01763837
   2.02126617   2.05769388   2.08755739   2.12917226   2.52357121
   2.54869279   2.55512823   2.56480457   2.57014405   2.58068636
   2.59552974   2.60199386   2.60312994   2.60387631   2.62095138
   2.6246095    2.64301159   2.65393191   2.67189954   2.68459762
   2.69289215   2.77871453   2.80129397   2.81188771   2.82800518
   2.83336613   2.84424611   2.84587493   2.86317081   2.92456855
   2.93100684   2.94949935   2.95248578   2.96658354   2.97221071
   2.98474481   2.98899389   2.98968975   2.99805245   3.01537487
   3.02057263   3.02851823   3.03310159   3.03810453   3.04810941
   3.06037129   3.09042554   3.09540972   3.10568021   3.35152096
   3.37196569   3.38627004   3.39297017   3.40426158   3.43329524
   3.44210482   3.46584193   3.48790116   3.73552386   3.75725164
   3.77490331   3.78078719   3.7935067    3.81175163   3.82664152
   3.86419839   3.89933392   3.92568391   3.94254244   3.96715898
   3.98056844   3.99090433   4.00159067   4.04156198   4.04628189
   4.12510795]
E1 = -2072.243599558035  E_coul = 823.4358735270332
cycle= 7 E= -684.377244141617  delta_E= -5.21e-07  |g|= 0.000292  |ddm|= 0.00137
    CPU time for cycle= 7      2.31 sec, wall time      0.29 sec
diis-norm(errvec)=0.000536986
diis-c [-9.01576326e-08 -1.07264224e-04 -1.13117560e-04  5.45167678e-04
  7.25349089e-03 -9.69750662e-02 -4.99912498e-03  1.09439591e+00]
  HOMO = -0.400216230042322  LUMO = 0.160047907200743
  mo_energy =
[-20.60357903 -20.59423071 -20.57034042 -20.54988883 -20.54520289
 -20.5446761  -20.53947483 -20.51534817 -20.46071267  -1.38960026
  -1.37858764  -1.35552789  -1.33585421  -1.33296824  -1.32836622
  -1.32259761  -1.30209241  -1.24316204  -0.75508315  -0.73960771
  -0.71851719  -0.70443335  -0.69746202  -0.69310842  -0.68517744
  -0.67633082  -0.62357804  -0.6149737   -0.60641578  -0.59551716
  -0.57542373  -0.57372332  -0.5658896   -0.55156943  -0.54094812
  -0.53797199  -0.53209041  -0.51926992  -0.50014389  -0.4881635
  -0.4804217   -0.47429864  -0.46439996  -0.45945358  -0.40021623
   0.16004791   0.21534531   0.2184933    0.24384516   0.27084414
   0.30495521   0.31334719   0.31788347   0.32312346   0.34406709
   0.35252243   0.36687257   0.37502501   0.396683     0.40813465
   0.43298706   0.45144866   0.51262666   0.92252684   0.96999087
   0.98315442   0.99802479   1.00759276   1.02349993   1.03256148
   1.05301672   1.06140005   1.06793699   1.08316631   1.08790713
   1.09946266   1.10477877   1.11339603   1.11769491   1.1346352
   1.13988886   1.14746503   1.15254816   1.16005487   1.16898909
   1.19966204   1.20287451   1.21552298   1.22456909   1.2365504
   1.25679858   1.27044929   1.29017372   1.29350237   1.30737109
   1.32555118   1.33055429   1.33909706   1.34614032   1.36070905
   1.37549155   1.38617781   1.40189173   1.40969757   1.4288533
   1.45517802   1.46844798   1.51133777   1.58839552   1.61665184
   1.64867064   1.66611576   1.68149903   1.71113797   1.72757747
   1.76313255   1.76501461   1.78413781   1.79021223   1.80512308
   1.80969684   1.82011159   1.82414254   1.82562135   1.83488529
   1.84203441   1.84734515   1.85386903   1.8610666    1.87005202
   1.87296673   1.90057763   1.90737931   1.91643052   1.92802927
   1.93764112   1.96191421   1.97545947   1.99618261   2.01763151
   2.02127045   2.05768797   2.08753656   2.12917182   2.52357761
   2.54870168   2.55513661   2.56480065   2.5701509    2.58068752
   2.5955375    2.60200984   2.60315292   2.60386704   2.62094901
   2.62461764   2.64301331   2.65393267   2.67189837   2.68460333
   2.69290846   2.77872148   2.80129512   2.81187807   2.82801195
   2.83339133   2.84424397   2.84588638   2.86316505   2.92458753
   2.93100594   2.94951153   2.95248825   2.96657939   2.97221479
   2.98473325   2.98900363   2.98970036   2.99805748   3.01537733
   3.02058307   3.02852915   3.03310511   3.03809376   3.04811756
   3.06036707   3.09042769   3.09540468   3.10568025   3.35152865
   3.37197761   3.38625951   3.39298325   3.40428066   3.43330523
   3.44210356   3.46583626   3.48790334   3.7355346    3.75724657
   3.77492096   3.78079731   3.79352143   3.81176386   3.82663858
   3.86421387   3.89932901   3.92569045   3.94254998   3.96715524
   3.98058748   3.99091393   4.00160319   4.04156596   4.04629916
   4.12508304]
E1 = -2072.2429974732963  E_coul = 823.43527140683
cycle= 8 E= -684.377244177082  delta_E= -3.55e-08  |g|= 4.74e-05  |ddm|= 0.000425
    CPU time for cycle= 8      2.27 sec, wall time      0.29 sec
diis-norm(errvec)=9.00297e-05
diis-c [-3.26493702e-09 -5.06550592e-05 -1.76504367e-04 -4.07220670e-04
  5.31327933e-03 -8.76681345e-03 -3.93799203e-02 -3.10098046e-02
  1.07447764e+00]
  HOMO = -0.400216438026702  LUMO = 0.160048476830017
  mo_energy =
[-20.60357453 -20.59422593 -20.57034459 -20.54988616 -20.54518445
 -20.54466825 -20.5394785  -20.51532607 -20.46070949  -1.38959865
  -1.37858662  -1.35552923  -1.3358518   -1.33296556  -1.32836342
  -1.32259557  -1.30208749  -1.24316162  -0.75508013  -0.73960457
  -0.71851646  -0.70442882  -0.69745697  -0.69310551  -0.68517292
  -0.67632561  -0.62357657  -0.61497149  -0.60641352  -0.59551919
  -0.57542343  -0.57372116  -0.56588823  -0.5515677   -0.54094676
  -0.53797005  -0.53209045  -0.51927203  -0.50014304  -0.4881611
  -0.48042056  -0.47429931  -0.46440016  -0.4594511   -0.40021644
   0.16004848   0.21534676   0.21849302   0.24384581   0.27084477
   0.30495608   0.31334802   0.31788339   0.32312467   0.34406793
   0.35252393   0.36687402   0.37502587   0.39668595   0.40813479
   0.43298772   0.45144965   0.51263008   0.92252732   0.96999113
   0.98315543   0.9980251    1.00759361   1.02350068   1.03256237
   1.05301871   1.06140078   1.06793777   1.08316777   1.08790774
   1.09946352   1.10477933   1.11339679   1.11769508   1.13463602
   1.13988839   1.1474665    1.15254946   1.16005581   1.16898974
   1.19966222   1.2028742    1.21552373   1.22456955   1.23655224
   1.25679953   1.27045151   1.29017612   1.29350376   1.30737231
   1.32555308   1.33055591   1.33909869   1.34614214   1.36071162
   1.37549372   1.38617903   1.40189232   1.40969931   1.42885447
   1.45518014   1.46845021   1.5113408    1.58839718   1.61665271
   1.64867291   1.66611621   1.68149937   1.71113906   1.72757813
   1.76313389   1.76501594   1.78413889   1.79021185   1.80512442
   1.80969878   1.82011363   1.82414395   1.82562272   1.83488724
   1.84203588   1.84734585   1.85387088   1.86106851   1.87005395
   1.87296821   1.90058017   1.90737828   1.91643085   1.92802938
   1.93764198   1.96191612   1.97545997   1.99618508   2.01763286
   2.0212712    2.05768925   2.0875394    2.12917311   2.52357897
   2.54870323   2.55513839   2.56480133   2.57015177   2.58068872
   2.59554016   2.60201081   2.60315351   2.60386727   2.62095084
   2.62462066   2.64301508   2.65393441   2.67189998   2.6846033
   2.69290868   2.77872314   2.80129745   2.81187807   2.82801373
   2.83339277   2.84424641   2.84588929   2.86316737   2.92458797
   2.93100885   2.94951134   2.95249062   2.96657942   2.97221518
   2.98473285   2.98900528   2.98970234   2.99805999   3.01537944
   3.02058363   3.02853019   3.0331082    3.03809421   3.04811787
   3.0603695    3.09042778   3.09540791   3.10568294   3.35153053
   3.3719793    3.38625972   3.3929856    3.40428182   3.43330846
   3.44210553   3.46583802   3.48790455   3.73553639   3.75724661
   3.77492238   3.78079986   3.79352275   3.81176647   3.82664125
   3.86421409   3.89933128   3.92569275   3.94255195   3.96715565
   3.9805889    3.99091636   4.00160654   4.04156798   4.04630043
   4.12508734]
E1 = -2072.2428955954124  E_coul = 823.4351695278898
cycle= 9 E= -684.377244178138  delta_E= -1.06e-09  |g|= 1.37e-05  |ddm|= 7.55e-05
    CPU time for cycle= 9      2.28 sec, wall time      0.29 sec
diis-norm(errvec)=2.46206e-05
diis-c [-5.02478310e-10  1.02040105e+00 -6.75706849e-06 -1.73277114e-05
  6.96354088e-06  2.85676918e-03 -1.01890630e-03 -3.53959588e-02
  1.31741668e-02]
  HOMO = -0.40021627772906  LUMO = 0.16004848460928
  mo_energy =
[-20.60357453 -20.59422422 -20.57033693 -20.54988738 -20.54519069
 -20.5446692  -20.53947041 -20.51533137 -20.4607115   -1.38959839
  -1.37858594  -1.35552677  -1.33585062  -1.33296641  -1.32836433
  -1.32259409  -1.30208856  -1.24316183  -0.75507996  -0.73960414
  -0.71851463  -0.7044285   -0.6974573   -0.69310535  -0.68517238
  -0.67632514  -0.62357681  -0.61497085  -0.60641378  -0.59551722
  -0.57542396  -0.57372014  -0.56588895  -0.5515671   -0.54094653
  -0.53796984  -0.53209003  -0.51926925  -0.50014368  -0.48815996
  -0.4804214   -0.47429992  -0.46439833  -0.45945234  -0.40021628
   0.16004848   0.21534695   0.21849307   0.24384586   0.27084498
   0.30495643   0.3133479    0.3178835    0.32312462   0.34406824
   0.35252416   0.36687414   0.37502597   0.39668595   0.40813488
   0.43298758   0.45144953   0.51263023   0.92252726   0.96999108
   0.9831559    0.99802543   1.00759373   1.02350076   1.03256279
   1.05301887   1.06140092   1.06793777   1.08316742   1.08790811
   1.09946364   1.10477967   1.11339697   1.11769578   1.13463665
   1.13988926   1.14746647   1.15254943   1.16005654   1.16898991
   1.1996621    1.20287403   1.21552368   1.22456958   1.2365519
   1.25679972   1.27045164   1.29017624   1.29350375   1.30737288
   1.32555298   1.33055647   1.33909877   1.34614261   1.36071215
   1.37549348   1.38617955   1.40189333   1.40969917   1.42885413
   1.45517954   1.46845062   1.51134076   1.5883971    1.61665349
   1.64867304   1.66611704   1.68149947   1.71113931   1.72757811
   1.7631343    1.76501614   1.78413943   1.79021286   1.80512457
   1.80969859   1.82011423   1.82414424   1.82562269   1.83488689
   1.84203598   1.8473463    1.85387088   1.86106824   1.87005526
   1.87296829   1.90058073   1.90737983   1.91643066   1.92802929
   1.93764236   1.96191547   1.97545982   1.99618576   2.0176328
   2.02127097   2.05768974   2.08753921   2.12917295   2.52357885
   2.54870332   2.55513863   2.5648021    2.57015214   2.58068963
   2.59554074   2.602011     2.60315351   2.60386758   2.62095038
   2.62462104   2.64301566   2.65393496   2.67189956   2.6846032
   2.6929085    2.77872318   2.80129798   2.81187919   2.82801446
   2.8333928    2.84424605   2.8458896    2.86316733   2.92458772
   2.93100927   2.94951105   2.95249061   2.96657998   2.97221556
   2.98473354   2.98900512   2.98970253   2.99806009   3.01537909
   3.02058357   3.02853133   3.03310811   3.03809382   3.04811777
   3.06036949   3.09042752   3.09540821   3.10568323   3.35153042
   3.37197958   3.38626033   3.39298614   3.40428212   3.4333093
   3.44210505   3.46583781   3.48790438   3.73553632   3.75724734
   3.77492245   3.78080055   3.7935229    3.81176718   3.8266406
   3.86421382   3.8993311    3.92569274   3.94255239   3.96715656
   3.98058922   3.99091772   4.00160659   4.04156756   4.04630012
   4.12508664]
E1 = -2072.242903471301  E_coul = 823.435177403693
cycle= 10 E= -684.377244178223  delta_E= -8.5e-11  |g|= 6.18e-06  |ddm|= 2.08e-05
    CPU time for cycle= 10      2.28 sec, wall time      0.28 sec
  HOMO = -0.400215650662093  LUMO = 0.160048366151321
  mo_energy =
[-20.60357511 -20.59422575 -20.57034188 -20.54988686 -20.54518765
 -20.54466892 -20.53947502 -20.51532852 -20.46071062  -1.38959861
  -1.37858644  -1.35552836  -1.33585104  -1.33296579  -1.32836368
  -1.32259465  -1.30208782  -1.2431614   -0.75508028  -0.73960456
  -0.71851597  -0.70442854  -0.69745703  -0.69310518  -0.68517261
  -0.67632513  -0.62357689  -0.61497114  -0.60641351  -0.59551862
  -0.57542365  -0.5737205   -0.56588856  -0.55156735  -0.54094639
  -0.53796978  -0.53209037  -0.51927075  -0.50014304  -0.48815997
  -0.48042066  -0.47429964  -0.46439888  -0.45945157  -0.40021565
   0.16004837   0.21534672   0.21849299   0.24384588   0.27084475
   0.30495633   0.31334792   0.31788346   0.32312458   0.34406814
   0.35252404   0.36687408   0.375026     0.39668583   0.4081349
   0.43298771   0.45144978   0.51263038   0.9225273    0.96999106
   0.98315561   0.99802534   1.00759358   1.02350079   1.03256278
   1.05301876   1.0614006    1.06793762   1.08316752   1.08790778
   1.09946341   1.10477946   1.11339698   1.11769542   1.13463627
   1.1398887    1.14746651   1.15254943   1.1600562    1.16898986
   1.19966219   1.20287425   1.21552372   1.22456955   1.23655216
   1.25679976   1.27045153   1.29017621   1.29350366   1.30737243
   1.32555316   1.33055634   1.33909885   1.34614251   1.36071203
   1.37549375   1.3861794    1.40189286   1.40969926   1.42885437
   1.45517994   1.46845049   1.5113409    1.58839713   1.61665306
   1.64867307   1.66611659   1.68149951   1.71113934   1.72757823
   1.76313411   1.76501597   1.78413913   1.79021211   1.80512443
   1.80969876   1.82011407   1.82414429   1.82562287   1.83488706
   1.84203606   1.84734604   1.8538709    1.86106858   1.87005476
   1.87296828   1.90058065   1.90737877   1.9164309    1.92802956
   1.93764223   1.96191596   1.9754601    1.99618559   2.01763299
   2.0212713    2.05768963   2.0875395    2.12917314   2.52357868
   2.54870313   2.55513844   2.56480161   2.57015184   2.58068912
   2.59554057   2.60201107   2.60315368   2.60386707   2.62095068
   2.62462096   2.64301555   2.65393484   2.6718998    2.6846033
   2.69290877   2.77872296   2.80129774   2.81187832   2.82801407
   2.83339292   2.84424623   2.84588948   2.86316747   2.92458792
   2.93100919   2.94951099   2.95249043   2.96657936   2.97221524
   2.9847331    2.98900522   2.9897025    2.99805992   3.01537922
   3.02058387   3.02853104   3.03310814   3.03809418   3.04811811
   3.06036977   3.09042758   3.09540836   3.10568333   3.35153025
   3.37197937   3.38625971   3.39298598   3.40428211   3.43330903
   3.44210538   3.4658381    3.48790461   3.73553603   3.75724657
   3.77492239   3.78080017   3.79352271   3.81176688   3.82664082
   3.86421396   3.89933138   3.92569256   3.94255218   3.96715587
   3.98058911   3.9909172    4.00160659   4.04156789   4.04630037
   4.12508723]
E1 = -2072.2429138327993  E_coul = 823.435187765181
Extra cycle  E= -684.377244178234  delta_E= -1.05e-11  |g|= 3.33e-06  |ddm|= 7.64e-06
    CPU time for scf_cycle     37.93 sec, wall time      4.75 sec
    CPU time for SCF     38.00 sec, wall time      4.76 sec
converged SCF energy = -684.377244178234
