 Entering Gaussian System, Link 0=g16
 Input=w32_61.gjf
 Output=w32_61.log
 Initial command:
 /home/soft/g16/l1.exe "/tmp/liwei01/gaussian/wsr/Gau-7944.inp" -scrdir="/tmp/liwei01/gaussian/wsr/"
 Entering Link 1 = /home/soft/g16/l1.exe PID=      7945.
  
 Copyright (c) 1988,1990,1992,1993,1995,1998,2003,2009,2016,
            Gaussian, Inc.  All Rights Reserved.
  
 This is part of the Gaussian(R) 16 program.  It is based on
 the Gaussian(R) 09 system (copyright 2009, Gaussian, Inc.),
 the Gaussian(R) 03 system (copyright 2003, Gaussian, Inc.),
 the Gaussian(R) 98 system (copyright 1998, Gaussian, Inc.),
 the Gaussian(R) 94 system (copyright 1995, Gaussian, Inc.),
 the Gaussian 92(TM) system (copyright 1992, Gaussian, Inc.),
 the Gaussian 90(TM) system (copyright 1990, Gaussian, Inc.),
 the Gaussian 88(TM) system (copyright 1988, Gaussian, Inc.),
 the Gaussian 86(TM) system (copyright 1986, Carnegie Mellon
 University), and the Gaussian 82(TM) system (copyright 1983,
 Carnegie Mellon University). Gaussian is a federally registered
 trademark of Gaussian, Inc.
  
 This software contains proprietary and confidential information,
 including trade secrets, belonging to Gaussian, Inc.
  
 This software is provided under written license and may be
 used, copied, transmitted, or stored only in accord with that
 written license.
  
 The following legend is applicable only to US Government
 contracts under FAR:
  
                    RESTRICTED RIGHTS LEGEND
  
 Use, reproduction and disclosure by the US Government is
 subject to restrictions as set forth in subparagraphs (a)
 and (c) of the Commercial Computer Software - Restricted
 Rights clause in FAR 52.227-19.
  
 Gaussian, Inc.
 340 Quinnipiac St., Bldg. 40, Wallingford CT 06492
  
  
 ---------------------------------------------------------------
 Warning -- This program may not be used in any manner that
 competes with the business of Gaussian, Inc. or will provide
 assistance to any competitor of Gaussian, Inc.  The licensee
 of this program is prohibited from giving any competitor of
 Gaussian, Inc. access to this program.  By using this program,
 the user acknowledges that Gaussian, Inc. is engaged in the
 business of creating and licensing software in the field of
 computational chemistry and represents and warrants to the
 licensee that it is not a competitor of Gaussian, Inc. and that
 it will not use this program in any manner prohibited above.
 ---------------------------------------------------------------
  

 Cite this work as:
 Gaussian 16, Revision A.03,
 M. J. Frisch, G. W. Trucks, H. B. Schlegel, G. E. Scuseria, 
 M. A. Robb, J. R. Cheeseman, G. Scalmani, V. Barone, 
 G. A. Petersson, H. Nakatsuji, X. Li, M. Caricato, A. V. Marenich, 
 J. Bloino, B. G. Janesko, R. Gomperts, B. Mennucci, H. P. Hratchian, 
 J. V. Ortiz, A. F. Izmaylov, J. L. Sonnenberg, D. Williams-Young, 
 F. Ding, F. Lipparini, F. Egidi, J. Goings, B. Peng, A. Petrone, 
 T. Henderson, D. Ranasinghe, V. G. Zakrzewski, J. Gao, N. Rega, 
 G. Zheng, W. Liang, M. Hada, M. Ehara, K. Toyota, R. Fukuda, 
 J. Hasegawa, M. Ishida, T. Nakajima, Y. Honda, O. Kitao, H. Nakai, 
 T. Vreven, K. Throssell, J. A. Montgomery, Jr., J. E. Peralta, 
 F. Ogliaro, M. J. Bearpark, J. J. Heyd, E. N. Brothers, K. N. Kudin, 
 V. N. Staroverov, T. A. Keith, R. Kobayashi, J. Normand, 
 K. Raghavachari, A. P. Rendell, J. C. Burant, S. S. Iyengar, 
 J. Tomasi, M. Cossi, J. M. Millam, M. Klene, C. Adamo, R. Cammi, 
 J. W. Ochterski, R. L. Martin, K. Morokuma, O. Farkas, 
 J. B. Foresman, and D. J. Fox, Gaussian, Inc., Wallingford CT, 2016.
 
 ******************************************
 Gaussian 16:  ES64L-G16RevA.03 25-Dec-2016
                15-May-2020 
 ******************************************
 %chk=w32_61.chk
 %nproc=4
 Will use up to    4 processors via shared memory.
 %mem=1gb
 -----------------------------------------
 #p hf/6-31g** 5d 7f pop=npa charge nosymm
 -----------------------------------------
 1/18=10,28=-2,38=1,125=101,172=1/1;
 2/12=2,15=1,17=6,18=5,40=1/2;
 3/5=1,6=6,7=101,8=11,11=9,25=1,30=1/1,2,3;
 4//1;
 5/5=2,38=5/2;
 6/7=2,8=2,9=2,10=2,28=1,40=-1/1,7;
 99/5=1,9=1/99;
 Leave Link    1 at Fri May 15 22:36:05 2020, MaxMem=   134217728 cpu:               0.3 elap:               0.1
 (Enter /home/soft/g16/l101.exe)
 -------------
 Atom number=9
 -------------
 Symbolic Z-matrix:
 Charge =  0 Multiplicity = 1
 o                     5.57039  -12.76004  -10.73381 
 o                     6.94264  -11.82938  -8.37104 
 o                     5.59138  -15.53349  -8.70022 
 h                     4.64271  -12.82783  -10.50789 
 h                     5.98375  -12.40517  -9.94677 
 h                     7.49557  -12.09105  -7.63482 
 h                     7.30746  -10.99284  -8.65973 
 h                     6.30928  -16.07073  -8.36521 
 h                     5.47626  -15.82394  -9.60499 
 
 ITRead=  0  0  0  0  0  0  0  0  0
 MicOpt= -1 -1 -1 -1 -1 -1 -1 -1 -1
 NAtoms=      9 NQM=        9 NQMF=       0 NMMI=      0 NMMIF=      0
                NMic=       0 NMicF=      0.
                    Isotopes and Nuclear Properties:
 (Nuclear quadrupole moments (NQMom) in fm**2, nuclear magnetic moments (NMagM)
  in nuclear magnetons)

  Atom         1           2           3           4           5           6           7           8           9
 IAtWgt=          16          16          16           1           1           1           1           1           1
 AtmWgt=  15.9949146  15.9949146  15.9949146   1.0078250   1.0078250   1.0078250   1.0078250   1.0078250   1.0078250
 NucSpn=           0           0           0           1           1           1           1           1           1
 AtZEff=  -0.0000000  -0.0000000  -0.0000000  -0.0000000  -0.0000000  -0.0000000  -0.0000000  -0.0000000  -0.0000000
 NQMom=    0.0000000   0.0000000   0.0000000   0.0000000   0.0000000   0.0000000   0.0000000   0.0000000   0.0000000
 NMagM=    0.0000000   0.0000000   0.0000000   2.7928460   2.7928460   2.7928460   2.7928460   2.7928460   2.7928460
 AtZNuc=   8.0000000   8.0000000   8.0000000   1.0000000   1.0000000   1.0000000   1.0000000   1.0000000   1.0000000
 Background charge distribution read from input stream:
 Point Charges:
 XYZ=    8.3923  -11.8129  -11.2005 Q=   -1.0561 A=    0.0000 R=    0.0000 C=    0.0000
 XYZ=    8.1753  -12.5378  -10.6142 Q=    0.5233 A=    0.0000 R=    0.0000 C=    0.0000
 XYZ=    9.2522  -11.5141  -10.9045 Q=    0.5177 A=    0.0000 R=    0.0000 C=    0.0000
 XYZ=   10.7060  -10.8489  -10.0915 Q=   -1.0357 A=    0.0000 R=    0.0000 C=    0.0000
 XYZ=   11.5214  -11.3203   -9.9208 Q=    0.5206 A=    0.0000 R=    0.0000 C=    0.0000
 XYZ=   10.5678  -10.3169   -9.3078 Q=    0.5156 A=    0.0000 R=    0.0000 C=    0.0000
 XYZ=    8.6932  -14.0693   -9.5471 Q=   -1.0099 A=    0.0000 R=    0.0000 C=    0.0000
 XYZ=    8.2201  -13.7327   -8.7861 Q=    0.4999 A=    0.0000 R=    0.0000 C=    0.0000
 XYZ=    8.5528  -15.0157   -9.5178 Q=    0.5079 A=    0.0000 R=    0.0000 C=    0.0000
 XYZ=    7.2503   -9.8596  -13.1035 Q=   -1.0243 A=    0.0000 R=    0.0000 C=    0.0000
 XYZ=    7.1207  -10.2215  -13.9801 Q=    0.5152 A=    0.0000 R=    0.0000 C=    0.0000
 XYZ=    7.3415  -10.6267  -12.5383 Q=    0.5154 A=    0.0000 R=    0.0000 C=    0.0000
 XYZ=    6.9662   -9.2478  -10.2743 Q=   -1.0324 A=    0.0000 R=    0.0000 C=    0.0000
 XYZ=    6.9752   -9.8450  -11.0223 Q=    0.5142 A=    0.0000 R=    0.0000 C=    0.0000
 XYZ=    7.6844   -8.6385  -10.4451 Q=    0.5185 A=    0.0000 R=    0.0000 C=    0.0000
 XYZ=    9.7397  -14.5602  -13.0841 Q=   -1.0029 A=    0.0000 R=    0.0000 C=    0.0000
 XYZ=    9.4367  -13.9209  -12.4394 Q=    0.5215 A=    0.0000 R=    0.0000 C=    0.0000
 XYZ=   10.6527  -14.3230  -13.2466 Q=    0.4988 A=    0.0000 R=    0.0000 C=    0.0000
 XYZ=   10.0849   -9.6030  -13.6944 Q=   -1.0549 A=    0.0000 R=    0.0000 C=    0.0000
 XYZ=    9.8380   -9.8779  -14.5774 Q=    0.5180 A=    0.0000 R=    0.0000 C=    0.0000
 XYZ=    9.2671   -9.6284  -13.1976 Q=    0.5226 A=    0.0000 R=    0.0000 C=    0.0000
 XYZ=    9.4738   -7.9972  -10.9180 Q=   -0.9971 A=    0.0000 R=    0.0000 C=    0.0000
 XYZ=    9.9975   -8.7956  -10.8516 Q=    0.5301 A=    0.0000 R=    0.0000 C=    0.0000
 XYZ=    9.6234   -7.5424  -10.0892 Q=    0.4920 A=    0.0000 R=    0.0000 C=    0.0000
 XYZ=    8.4516  -10.6356  -15.6859 Q=   -1.0322 A=    0.0000 R=    0.0000 C=    0.0000
 XYZ=    8.1250  -10.4069  -16.5562 Q=    0.4798 A=    0.0000 R=    0.0000 C=    0.0000
 XYZ=    9.2622  -11.1166  -15.8526 Q=    0.5341 A=    0.0000 R=    0.0000 C=    0.0000
 XYZ=    4.0391  -11.2243  -12.8044 Q=   -0.9921 A=    0.0000 R=    0.0000 C=    0.0000
 XYZ=    4.5248  -12.0476  -12.7552 Q=    0.4802 A=    0.0000 R=    0.0000 C=    0.0000
 XYZ=    4.4321  -10.7575  -13.5420 Q=    0.5046 A=    0.0000 R=    0.0000 C=    0.0000
 XYZ=    5.5848  -15.5922  -11.4699 Q=   -1.0129 A=    0.0000 R=    0.0000 C=    0.0000
 XYZ=    4.6785  -15.3483  -11.6582 Q=    0.5050 A=    0.0000 R=    0.0000 C=    0.0000
 XYZ=    6.0031  -14.7735  -11.2032 Q=    0.5257 A=    0.0000 R=    0.0000 C=    0.0000
 XYZ=    8.8013  -12.4259   -6.4973 Q=   -0.9852 A=    0.0000 R=    0.0000 C=    0.0000
 XYZ=    9.0556  -11.7490   -5.8701 Q=    0.5006 A=    0.0000 R=    0.0000 C=    0.0000
 XYZ=    8.9395  -13.2499   -6.0303 Q=    0.5083 A=    0.0000 R=    0.0000 C=    0.0000
 XYZ=   10.5523   -9.0602   -7.7657 Q=   -0.9799 A=    0.0000 R=    0.0000 C=    0.0000
 XYZ=   10.0296   -9.4526   -7.0665 Q=    0.5003 A=    0.0000 R=    0.0000 C=    0.0000
 XYZ=   10.0576   -8.2839   -8.0284 Q=    0.4937 A=    0.0000 R=    0.0000 C=    0.0000
 XYZ=    8.4919  -14.1596  -15.7110 Q=   -0.9823 A=    0.0000 R=    0.0000 C=    0.0000
 XYZ=    8.8439  -15.0437  -15.8144 Q=    0.4799 A=    0.0000 R=    0.0000 C=    0.0000
 XYZ=    8.9183  -13.8221  -14.9233 Q=    0.4950 A=    0.0000 R=    0.0000 C=    0.0000
 XYZ=   10.6752  -11.9252  -15.8192 Q=   -0.9837 A=    0.0000 R=    0.0000 C=    0.0000
 XYZ=   11.1454  -12.2597  -15.0555 Q=    0.5055 A=    0.0000 R=    0.0000 C=    0.0000
 XYZ=   10.7694  -12.6123  -16.4789 Q=    0.5125 A=    0.0000 R=    0.0000 C=    0.0000
 XYZ=    7.7593  -16.5050  -13.2460 Q=   -1.0112 A=    0.0000 R=    0.0000 C=    0.0000
 XYZ=    7.3079  -16.2111  -12.4547 Q=    0.4926 A=    0.0000 R=    0.0000 C=    0.0000
 XYZ=    8.5373  -15.9498  -13.2987 Q=    0.4973 A=    0.0000 R=    0.0000 C=    0.0000
 XYZ=   13.4576  -11.7733   -9.7740 Q=   -0.9993 A=    0.0000 R=    0.0000 C=    0.0000
 XYZ=   13.9089  -10.9962  -10.1037 Q=    0.5128 A=    0.0000 R=    0.0000 C=    0.0000
 XYZ=   14.1508  -12.4236   -9.6612 Q=    0.5076 A=    0.0000 R=    0.0000 C=    0.0000
 XYZ=    5.3398  -11.2122  -15.4745 Q=   -0.9760 A=    0.0000 R=    0.0000 C=    0.0000
 XYZ=    5.8801  -10.4587  -15.7120 Q=    0.4863 A=    0.0000 R=    0.0000 C=    0.0000
 XYZ=    5.4896  -11.8457  -16.1763 Q=    0.4965 A=    0.0000 R=    0.0000 C=    0.0000
 XYZ=   12.9960  -14.7139  -11.2100 Q=   -0.9778 A=    0.0000 R=    0.0000 C=    0.0000
 XYZ=   12.2864  -15.1619  -10.7497 Q=    0.5059 A=    0.0000 R=    0.0000 C=    0.0000
 XYZ=   13.6357  -14.5124  -10.5270 Q=    0.4638 A=    0.0000 R=    0.0000 C=    0.0000
 XYZ=    4.6413   -8.1383  -12.6711 Q=   -0.9897 A=    0.0000 R=    0.0000 C=    0.0000
 XYZ=    4.5978   -7.2720  -12.2662 Q=    0.4876 A=    0.0000 R=    0.0000 C=    0.0000
 XYZ=    5.5765   -8.3384  -12.7100 Q=    0.4969 A=    0.0000 R=    0.0000 C=    0.0000
 XYZ=    8.9611  -17.0167   -9.2755 Q=   -0.9921 A=    0.0000 R=    0.0000 C=    0.0000
 XYZ=    8.6736  -17.2191   -8.3852 Q=    0.5092 A=    0.0000 R=    0.0000 C=    0.0000
 XYZ=    8.3026  -17.4234   -9.8386 Q=    0.5103 A=    0.0000 R=    0.0000 C=    0.0000
 XYZ=   12.8900   -9.6906  -13.7511 Q=   -0.9984 A=    0.0000 R=    0.0000 C=    0.0000
 XYZ=   13.4884   -9.8459  -13.0204 Q=    0.4670 A=    0.0000 R=    0.0000 C=    0.0000
 XYZ=   12.0171   -9.7427  -13.3618 Q=    0.5160 A=    0.0000 R=    0.0000 C=    0.0000
 XYZ=    4.9070   -7.9100   -9.1300 Q=   -1.0105 A=    0.0000 R=    0.0000 C=    0.0000
 XYZ=    4.0635   -8.0265   -9.5674 Q=    0.4764 A=    0.0000 R=    0.0000 C=    0.0000
 XYZ=    5.4227   -8.6710   -9.3968 Q=    0.5176 A=    0.0000 R=    0.0000 C=    0.0000
 XYZ=    2.9547  -12.7024   -9.8757 Q=   -0.9915 A=    0.0000 R=    0.0000 C=    0.0000
 XYZ=    3.0641  -13.5048   -9.3654 Q=    0.5019 A=    0.0000 R=    0.0000 C=    0.0000
 XYZ=    2.7384  -12.0329   -9.2268 Q=    0.5105 A=    0.0000 R=    0.0000 C=    0.0000
 XYZ=    4.2108  -13.3306   -7.5546 Q=   -1.0293 A=    0.0000 R=    0.0000 C=    0.0000
 XYZ=    4.9638  -12.7453   -7.4735 Q=    0.4979 A=    0.0000 R=    0.0000 C=    0.0000
 XYZ=    4.5835  -14.1618   -7.8486 Q=    0.5197 A=    0.0000 R=    0.0000 C=    0.0000
 XYZ=    8.5389   -6.2611  -12.9484 Q=   -1.0019 A=    0.0000 R=    0.0000 C=    0.0000
 XYZ=    8.8800   -6.8491  -12.2745 Q=    0.5098 A=    0.0000 R=    0.0000 C=    0.0000
 XYZ=    9.2767   -6.1230  -13.5423 Q=    0.4773 A=    0.0000 R=    0.0000 C=    0.0000
 XYZ=   11.4715  -15.3553   -7.5180 Q=   -1.0197 A=    0.0000 R=    0.0000 C=    0.0000
 XYZ=   10.8644  -15.3558   -8.2581 Q=    0.4753 A=    0.0000 R=    0.0000 C=    0.0000
 XYZ=   11.9075  -14.5045   -7.5658 Q=    0.5146 A=    0.0000 R=    0.0000 C=    0.0000
 XYZ=   12.8138  -13.0185   -7.3663 Q=   -0.9959 A=    0.0000 R=    0.0000 C=    0.0000
 XYZ=   12.4819  -12.4171   -6.6996 Q=    0.4994 A=    0.0000 R=    0.0000 C=    0.0000
 XYZ=   12.6552  -12.5682   -8.1960 Q=    0.5110 A=    0.0000 R=    0.0000 C=    0.0000
 XYZ=   11.3245  -17.0116  -10.7628 Q=   -1.0019 A=    0.0000 R=    0.0000 C=    0.0000
 XYZ=   11.7165  -17.8633  -10.5702 Q=    0.4876 A=    0.0000 R=    0.0000 C=    0.0000
 XYZ=   10.4428  -17.0644  -10.3939 Q=    0.5095 A=    0.0000 R=    0.0000 C=    0.0000
 Pt Chg Charge=              0.0378 electrons
 Pt Chg Dipole moment (Debye):
    X=             15.4439    Y=             -9.6805    Z=             12.2629  Tot=             21.9683
 Pt Chg Quadrupole moment (Debye-Ang):
   XX=            229.6592   YY=            194.8550   ZZ=           -221.3440
   XY=           -203.0334   XZ=            -50.4479   YZ=            -63.6254
 Pt Chg Traceless Quadrupole moment (Debye-Ang):
   XX=            161.9358   YY=            127.1316   ZZ=           -289.0674
   XY=           -203.0334   XZ=            -50.4479   YZ=            -63.6254
 Pt Chg Octapole moment (Debye-Ang**2):
  XXX=           3061.1548  YYY=          -3388.0557  ZZZ=           2547.3707  XYY=           2622.6833
  XXY=          -2561.0194  XXZ=          -1426.6717  XZZ=           -149.6905  YZZ=           1761.1887
  YYZ=             99.9298  XYZ=            988.4735
 Pt Chg Hexadecapole moment (Debye-Ang**3):
 XXXX=          42199.2345 YYYY=          58155.4176 ZZZZ=         -15723.9647 XXXY=         -32057.0528
 XXXZ=         -22738.4449 YYYX=         -35097.4634 YYYZ=           4741.2466 ZZZX=           2422.2705
 ZZZY=         -21291.1907 XXYY=          28694.1603 XXZZ=           8432.1880 YYZZ=         -16519.8126
 XXYZ=          18560.2858 YYXZ=         -14527.2120 ZZXY=          -4127.6254
 Leave Link  101 at Fri May 15 22:36:05 2020, MaxMem=   134217728 cpu:               0.5 elap:               0.1
 (Enter /home/soft/g16/l202.exe)
                          Input orientation:                          
 ---------------------------------------------------------------------
 Center     Atomic      Atomic             Coordinates (Angstroms)
 Number     Number       Type             X           Y           Z
 ---------------------------------------------------------------------
      1          8           0        5.570392  -12.760041  -10.733807
      2          8           0        6.942642  -11.829381   -8.371044
      3          8           0        5.591380  -15.533488   -8.700217
      4          1           0        4.642708  -12.827827  -10.507888
      5          1           0        5.983752  -12.405170   -9.946767
      6          1           0        7.495574  -12.091052   -7.634819
      7          1           0        7.307461  -10.992840   -8.659728
      8          1           0        6.309279  -16.070726   -8.365208
      9          1           0        5.476258  -15.823936   -9.604992
 ---------------------------------------------------------------------
                    Distance matrix (angstroms):
                    1          2          3          4          5
     1  O    0.000000
     2  O    2.886494   0.000000
     3  O    3.439177   3.956599   0.000000
     4  H    0.957200   3.294343   3.389433   0.000000
     5  H    0.957200   1.932332   3.390312   1.513901   0.000000
     6  H    3.709124   0.957200   4.075708   4.115362   2.780176
     7  H    3.231441   0.957200   4.854282   3.726095   2.324511
     8  H    4.137252   4.288378   0.957201   4.229058   4.005446
     9  H    3.266579   4.430506   0.957200   3.238317   3.473085
                    6          7          8          9
     6  H    0.000000
     7  H    1.513900   0.000000
     8  H    4.216464   5.183439   0.000000
     9  H    4.679064   5.252268   1.513900   0.000000
 Symmetry turned off by external request.
 Stoichiometry    H6O3
 Framework group  C1[X(H6O3)]
 Deg. of freedom    21
 Full point group                 C1      NOp   1
 Rotational constants (GHZ):           6.9480874           3.2901170           2.2585101
 Leave Link  202 at Fri May 15 22:36:05 2020, MaxMem=   134217728 cpu:               0.0 elap:               0.0
 (Enter /home/soft/g16/l301.exe)
 Standard basis: 6-31G(d,p) (5D, 7F)
 Ernie: Thresh=  0.10000D-02 Tol=  0.10000D-05 Strict=F.
    72 basis functions,   126 primitive gaussians,    75 cartesian basis functions
    15 alpha electrons       15 beta electrons
       nuclear repulsion energy        74.0259211927 Hartrees.
 IExCor=    0 DFT=F Ex=HF Corr=None ExCW=0 ScaHFX=  1.000000
 ScaDFX=  1.000000  1.000000  1.000000  1.000000 ScalE2=  1.000000  1.000000
 IRadAn=      5 IRanWt=     -1 IRanGd=            0 ICorTp=0 IEmpDi=  4
 NAtoms=    9 NActive=    9 NUniq=    9 SFac= 1.00D+00 NAtFMM=   60 NAOKFM=F Big=F
 Integral buffers will be    131072 words long.
 Raffenetti 1 integral format.
 Two-electron integral symmetry is turned off.
 Background charge distribution read from rwf.
 PtFMM for NChg=        96 BoxLen=    40.00 Levels= 1 LMax=20 SMax=    22.2 ICnFMM=     1:
 Self energy of the charges =       -14.0049749517 a.u.
 MM   energy of the charges =         0.0000000000 a.u.
 Nuclei-charges interaction =         1.3711658798 a.u.
 Nuclear repulsion after external point charges =       61.3921121209 Hartrees.
 Leave Link  301 at Fri May 15 22:36:05 2020, MaxMem=   134217728 cpu:               0.3 elap:               0.1
 (Enter /home/soft/g16/l302.exe)
 NPDir=0 NMtPBC=     1 NCelOv=     1 NCel=       1 NClECP=     1 NCelD=      1
         NCelK=      1 NCelE2=     1 NClLst=     1 CellRange=     0.0.
 One-electron integrals computed using PRISM.
 NBasis=    72 RedAO= T EigKep=  2.82D-02  NBF=    72
 NBsUse=    72 1.00D-06 EigRej= -1.00D+00 NBFU=    72
 Leave Link  302 at Fri May 15 22:36:05 2020, MaxMem=   134217728 cpu:               0.5 elap:               0.1
 (Enter /home/soft/g16/l303.exe)
 DipDrv:  MaxL=1.
 Leave Link  303 at Fri May 15 22:36:06 2020, MaxMem=   134217728 cpu:               0.1 elap:               0.0
 (Enter /home/soft/g16/l401.exe)
 ExpMin= 1.61D-01 ExpMax= 5.48D+03 ExpMxC= 8.25D+02 IAcc=3 IRadAn=         5 AccDes= 0.00D+00
 Harris functional with IExCor=  205 and IRadAn=       5 diagonalized for initial guess.
 HarFok:  IExCor=  205 AccDes= 0.00D+00 IRadAn=         5 IDoV= 1 UseB2=F ITyADJ=14
 ICtDFT=  3500011 ScaDFX=  1.000000  1.000000  1.000000  1.000000
 FoFCou: FMM=F IPFlag=           0 FMFlag=      100000 FMFlg1=           0
         NFxFlg=           0 DoJE=T BraDBF=F KetDBF=T FulRan=T
         wScrn=  0.000000 ICntrl=       500 IOpCl=  0 I1Cent=   200000004 NGrid=           0
         NMat0=    1 NMatS0=      1 NMatT0=    0 NMatD0=    1 NMtDS0=    0 NMtDT0=    0
 Symmetry not used in FoFCou.
 Harris En= -242.444098709390    
 JPrj=0 DoOrth=F DoCkMO=F.
 Leave Link  401 at Fri May 15 22:36:06 2020, MaxMem=   134217728 cpu:               1.4 elap:               0.4
 (Enter /home/soft/g16/l502.exe)
 Keep R1 ints in memory in canonical form, NReq=4306097.
 FoFCou: FMM=F IPFlag=           0 FMFlag=           0 FMFlg1=           0
         NFxFlg=           0 DoJE=F BraDBF=F KetDBF=F FulRan=T
         wScrn=  0.000000 ICntrl=       600 IOpCl=  0 I1Cent=           0 NGrid=           0
         NMat0=    1 NMatS0=   2628 NMatT0=    0 NMatD0=    1 NMtDS0=    0 NMtDT0=    0
 Symmetry not used in FoFCou.
 Two-electron integral symmetry not used.
 Closed shell SCF:
 Using DIIS extrapolation, IDIIS=  1040.
 NGot=   134217728 LenX=   130750732 LenY=   130744666
 Requested convergence on RMS density matrix=1.00D-08 within 128 cycles.
 Requested convergence on MAX density matrix=1.00D-06.
 Requested convergence on             energy=1.00D-06.
 No special actions if energy rises.

 Cycle   1  Pass 1  IDiag  1:
 E= -241.909055929825    
 DIIS: error= 5.65D-02 at cycle   1 NSaved=   1.
 NSaved= 1 IEnMin= 1 EnMin= -241.909055929825     IErMin= 1 ErrMin= 5.65D-02
 ErrMax= 5.65D-02  0.00D+00 EMaxC= 1.00D-01 BMatC= 3.73D-01 BMatP= 3.73D-01
 IDIUse=3 WtCom= 4.35D-01 WtEn= 5.65D-01
 Coeff-Com:  0.100D+01
 Coeff-En:   0.100D+01
 Coeff:      0.100D+01
 Gap=     0.503 Goal=   None    Shift=    0.000
 GapD=    0.503 DampG=2.000 DampE=0.500 DampFc=1.0000 IDamp=-1.
 RMSDP=6.88D-03 MaxDP=1.23D-01              OVMax= 1.28D-01

 Cycle   2  Pass 1  IDiag  1:
 E= -242.083467738936     Delta-E=       -0.174411809110 Rises=F Damp=F
 DIIS: error= 2.95D-02 at cycle   2 NSaved=   2.
 NSaved= 2 IEnMin= 2 EnMin= -242.083467738936     IErMin= 2 ErrMin= 2.95D-02
 ErrMax= 2.95D-02  0.00D+00 EMaxC= 1.00D-01 BMatC= 1.13D-01 BMatP= 3.73D-01
 IDIUse=3 WtCom= 7.05D-01 WtEn= 2.95D-01
 Coeff-Com:  0.343D+00 0.657D+00
 Coeff-En:   0.721D-01 0.928D+00
 Coeff:      0.263D+00 0.737D+00
 Gap=     0.639 Goal=   None    Shift=    0.000
 RMSDP=3.07D-03 MaxDP=5.14D-02 DE=-1.74D-01 OVMax= 4.65D-02

 Cycle   3  Pass 1  IDiag  1:
 E= -242.158178973988     Delta-E=       -0.074711235052 Rises=F Damp=F
 DIIS: error= 6.02D-03 at cycle   3 NSaved=   3.
 NSaved= 3 IEnMin= 3 EnMin= -242.158178973988     IErMin= 3 ErrMin= 6.02D-03
 ErrMax= 6.02D-03  0.00D+00 EMaxC= 1.00D-01 BMatC= 2.87D-03 BMatP= 1.13D-01
 IDIUse=3 WtCom= 9.40D-01 WtEn= 6.02D-02
 Coeff-Com: -0.313D-01 0.937D-01 0.938D+00
 Coeff-En:   0.000D+00 0.000D+00 0.100D+01
 Coeff:     -0.294D-01 0.881D-01 0.941D+00
 Gap=     0.626 Goal=   None    Shift=    0.000
 RMSDP=4.36D-04 MaxDP=8.18D-03 DE=-7.47D-02 OVMax= 9.64D-03

 Cycle   4  Pass 1  IDiag  1:
 E= -242.160393297536     Delta-E=       -0.002214323548 Rises=F Damp=F
 DIIS: error= 4.18D-04 at cycle   4 NSaved=   4.
 NSaved= 4 IEnMin= 4 EnMin= -242.160393297536     IErMin= 4 ErrMin= 4.18D-04
 ErrMax= 4.18D-04  0.00D+00 EMaxC= 1.00D-01 BMatC= 2.49D-05 BMatP= 2.87D-03
 IDIUse=3 WtCom= 9.96D-01 WtEn= 4.18D-03
 Coeff-Com:  0.474D-02-0.398D-01-0.243D+00 0.128D+01
 Coeff-En:   0.000D+00 0.000D+00 0.000D+00 0.100D+01
 Coeff:      0.472D-02-0.396D-01-0.242D+00 0.128D+01
 Gap=     0.627 Goal=   None    Shift=    0.000
 RMSDP=9.24D-05 MaxDP=1.19D-03 DE=-2.21D-03 OVMax= 2.04D-03

 Cycle   5  Pass 1  IDiag  1:
 E= -242.160432627727     Delta-E=       -0.000039330191 Rises=F Damp=F
 DIIS: error= 1.37D-04 at cycle   5 NSaved=   5.
 NSaved= 5 IEnMin= 5 EnMin= -242.160432627727     IErMin= 5 ErrMin= 1.37D-04
 ErrMax= 1.37D-04  0.00D+00 EMaxC= 1.00D-01 BMatC= 1.64D-06 BMatP= 2.49D-05
 IDIUse=3 WtCom= 9.99D-01 WtEn= 1.37D-03
 Coeff-Com:  0.245D-02-0.129D-01-0.931D-01 0.252D+00 0.851D+00
 Coeff-En:   0.000D+00 0.000D+00 0.000D+00 0.000D+00 0.100D+01
 Coeff:      0.245D-02-0.129D-01-0.930D-01 0.252D+00 0.851D+00
 Gap=     0.629 Goal=   None    Shift=    0.000
 RMSDP=1.96D-05 MaxDP=3.97D-04 DE=-3.93D-05 OVMax= 4.10D-04

 Cycle   6  Pass 1  IDiag  1:
 E= -242.160434645647     Delta-E=       -0.000002017920 Rises=F Damp=F
 DIIS: error= 3.30D-05 at cycle   6 NSaved=   6.
 NSaved= 6 IEnMin= 6 EnMin= -242.160434645647     IErMin= 6 ErrMin= 3.30D-05
 ErrMax= 3.30D-05  0.00D+00 EMaxC= 1.00D-01 BMatC= 1.31D-07 BMatP= 1.64D-06
 IDIUse=1 WtCom= 1.00D+00 WtEn= 0.00D+00
 Coeff-Com: -0.118D-03 0.202D-02 0.117D-01-0.955D-01 0.958D-01 0.986D+00
 Coeff:     -0.118D-03 0.202D-02 0.117D-01-0.955D-01 0.958D-01 0.986D+00
 Gap=     0.629 Goal=   None    Shift=    0.000
 RMSDP=7.22D-06 MaxDP=8.11D-05 DE=-2.02D-06 OVMax= 1.36D-04

 Cycle   7  Pass 1  IDiag  1:
 E= -242.160434844774     Delta-E=       -0.000000199127 Rises=F Damp=F
 DIIS: error= 7.16D-06 at cycle   7 NSaved=   7.
 NSaved= 7 IEnMin= 7 EnMin= -242.160434844774     IErMin= 7 ErrMin= 7.16D-06
 ErrMax= 7.16D-06  0.00D+00 EMaxC= 1.00D-01 BMatC= 4.16D-09 BMatP= 1.31D-07
 IDIUse=1 WtCom= 1.00D+00 WtEn= 0.00D+00
 Coeff-Com: -0.115D-03 0.486D-03 0.392D-02-0.487D-02-0.581D-01-0.991D-01
 Coeff-Com:  0.116D+01
 Coeff:     -0.115D-03 0.486D-03 0.392D-02-0.487D-02-0.581D-01-0.991D-01
 Coeff:      0.116D+01
 Gap=     0.629 Goal=   None    Shift=    0.000
 RMSDP=1.79D-06 MaxDP=2.52D-05 DE=-1.99D-07 OVMax= 3.74D-05

 Cycle   8  Pass 1  IDiag  1:
 E= -242.160434853833     Delta-E=       -0.000000009059 Rises=F Damp=F
 DIIS: error= 1.50D-06 at cycle   8 NSaved=   8.
 NSaved= 8 IEnMin= 8 EnMin= -242.160434853833     IErMin= 8 ErrMin= 1.50D-06
 ErrMax= 1.50D-06  0.00D+00 EMaxC= 1.00D-01 BMatC= 1.85D-10 BMatP= 4.16D-09
 IDIUse=1 WtCom= 1.00D+00 WtEn= 0.00D+00
 Coeff-Com:  0.309D-04-0.186D-03-0.137D-02 0.452D-02 0.120D-01-0.472D-02
 Coeff-Com: -0.290D+00 0.128D+01
 Coeff:      0.309D-04-0.186D-03-0.137D-02 0.452D-02 0.120D-01-0.472D-02
 Coeff:     -0.290D+00 0.128D+01
 Gap=     0.629 Goal=   None    Shift=    0.000
 RMSDP=2.92D-07 MaxDP=5.00D-06 DE=-9.06D-09 OVMax= 7.92D-06

 Cycle   9  Pass 1  IDiag  1:
 E= -242.160434854215     Delta-E=       -0.000000000382 Rises=F Damp=F
 DIIS: error= 7.01D-07 at cycle   9 NSaved=   9.
 NSaved= 9 IEnMin= 9 EnMin= -242.160434854215     IErMin= 9 ErrMin= 7.01D-07
 ErrMax= 7.01D-07  0.00D+00 EMaxC= 1.00D-01 BMatC= 2.00D-11 BMatP= 1.85D-10
 IDIUse=1 WtCom= 1.00D+00 WtEn= 0.00D+00
 Coeff-Com:  0.144D-04-0.738D-04-0.565D-03 0.127D-02 0.672D-02 0.635D-02
 Coeff-Com: -0.142D+00 0.293D+00 0.836D+00
 Coeff:      0.144D-04-0.738D-04-0.565D-03 0.127D-02 0.672D-02 0.635D-02
 Coeff:     -0.142D+00 0.293D+00 0.836D+00
 Gap=     0.629 Goal=   None    Shift=    0.000
 RMSDP=5.97D-08 MaxDP=1.32D-06 DE=-3.82D-10 OVMax= 1.50D-06

 Cycle  10  Pass 1  IDiag  1:
 E= -242.160434854241     Delta-E=       -0.000000000026 Rises=F Damp=F
 DIIS: error= 1.27D-07 at cycle  10 NSaved=  10.
 NSaved=10 IEnMin=10 EnMin= -242.160434854241     IErMin=10 ErrMin= 1.27D-07
 ErrMax= 1.27D-07  0.00D+00 EMaxC= 1.00D-01 BMatC= 1.21D-12 BMatP= 2.00D-11
 IDIUse=1 WtCom= 1.00D+00 WtEn= 0.00D+00
 Coeff-Com: -0.257D-05 0.163D-04 0.121D-03-0.455D-03-0.822D-03 0.113D-02
 Coeff-Com:  0.214D-01-0.114D+00 0.343D-01 0.106D+01
 Coeff:     -0.257D-05 0.163D-04 0.121D-03-0.455D-03-0.822D-03 0.113D-02
 Coeff:      0.214D-01-0.114D+00 0.343D-01 0.106D+01
 Gap=     0.629 Goal=   None    Shift=    0.000
 RMSDP=2.07D-08 MaxDP=3.06D-07 DE=-2.55D-11 OVMax= 6.40D-07

 Cycle  11  Pass 1  IDiag  1:
 E= -242.160434854243     Delta-E=       -0.000000000002 Rises=F Damp=F
 DIIS: error= 2.66D-08 at cycle  11 NSaved=  11.
 NSaved=11 IEnMin=11 EnMin= -242.160434854243     IErMin=11 ErrMin= 2.66D-08
 ErrMax= 2.66D-08  0.00D+00 EMaxC= 1.00D-01 BMatC= 4.21D-14 BMatP= 1.21D-12
 IDIUse=1 WtCom= 1.00D+00 WtEn= 0.00D+00
 Coeff-Com: -0.367D-06 0.157D-05 0.125D-04-0.965D-05-0.211D-03-0.436D-03
 Coeff-Com:  0.396D-02 0.183D-02-0.484D-01-0.163D+00 0.121D+01
 Coeff:     -0.367D-06 0.157D-05 0.125D-04-0.965D-05-0.211D-03-0.436D-03
 Coeff:      0.396D-02 0.183D-02-0.484D-01-0.163D+00 0.121D+01
 Gap=     0.629 Goal=   None    Shift=    0.000
 RMSDP=6.23D-09 MaxDP=8.95D-08 DE=-2.39D-12 OVMax= 1.72D-07

 SCF Done:  E(RHF) =  -242.160434854     A.U. after   11 cycles
            NFock= 11  Conv=0.62D-08     -V/T= 2.0635
 KE= 2.276983493148D+02 PE=-6.919355965286D+02 EE= 1.606847002386D+02
 Leave Link  502 at Fri May 15 22:36:06 2020, MaxMem=   134217728 cpu:               0.8 elap:               0.3
 (Enter /home/soft/g16/l601.exe)
 Copying SCF densities to generalized density rwf, IOpCl= 0 IROHF=0.

 **********************************************************************

            Population analysis using the SCF density.

 **********************************************************************

 Alpha  occ. eigenvalues --  -20.62213 -20.60006 -20.52767  -1.40417  -1.38464
 Alpha  occ. eigenvalues --   -1.31290  -0.76566  -0.74545  -0.68537  -0.64347
 Alpha  occ. eigenvalues --   -0.61581  -0.56223  -0.54901  -0.54134  -0.47402
 Alpha virt. eigenvalues --    0.15461   0.20330   0.27302   0.31225   0.32369
 Alpha virt. eigenvalues --    0.43887   0.93715   0.96989   1.02133   1.03615
 Alpha virt. eigenvalues --    1.07379   1.08501   1.10602   1.11664   1.14899
 Alpha virt. eigenvalues --    1.20166   1.21246   1.23196   1.26359   1.34555
 Alpha virt. eigenvalues --    1.38358   1.53830   1.56036   1.74071   1.74923
 Alpha virt. eigenvalues --    1.76131   1.77331   1.80736   1.83406   1.85932
 Alpha virt. eigenvalues --    1.87109   1.94598   1.98413   2.52041   2.53011
 Alpha virt. eigenvalues --    2.53663   2.55355   2.62100   2.71366   2.75099
 Alpha virt. eigenvalues --    2.78081   2.88323   2.91396   2.93938   2.95373
 Alpha virt. eigenvalues --    2.96507   3.01825   3.03395   3.31688   3.36270
 Alpha virt. eigenvalues --    3.41721   3.69076   3.73248   3.81116   3.86836
 Alpha virt. eigenvalues --    3.90846   4.00232
          Condensed to atoms (all electrons):
               1          2          3          4          5          6
     1  O    8.190235  -0.009125  -0.000248   0.316672   0.311128   0.000274
     2  O   -0.009125   8.126101   0.000002   0.000321   0.019345   0.311874
     3  O   -0.000248   0.000002   8.108375   0.000265   0.000750   0.000033
     4  H    0.316672   0.000321   0.000265   0.295772  -0.021303  -0.000010
     5  H    0.311128   0.019345   0.000750  -0.021303   0.308921  -0.000384
     6  H    0.000274   0.311874   0.000033  -0.000010  -0.000384   0.311733
     7  H    0.000616   0.313819   0.000001  -0.000003  -0.002166  -0.018183
     8  H    0.000037   0.000012   0.311300  -0.000008  -0.000008   0.000001
     9  H    0.002016   0.000005   0.317912   0.000019  -0.000072  -0.000002
               7          8          9
     1  O    0.000616   0.000037   0.002016
     2  O    0.313819   0.000012   0.000005
     3  O    0.000001   0.311300   0.317912
     4  H   -0.000003  -0.000008   0.000019
     5  H   -0.002166  -0.000008  -0.000072
     6  H   -0.018183   0.000001  -0.000002
     7  H    0.316815  -0.000000  -0.000000
     8  H   -0.000000   0.383103  -0.024558
     9  H   -0.000000  -0.024558   0.298283
 Mulliken charges:
               1
     1  O   -0.811605
     2  O   -0.762353
     3  O   -0.738390
     4  H    0.408274
     5  H    0.383790
     6  H    0.394664
     7  H    0.389102
     8  H    0.330121
     9  H    0.406396
 Sum of Mulliken charges =  -0.00000
 Mulliken charges with hydrogens summed into heavy atoms:
               1
     1  O   -0.019540
     2  O    0.021413
     3  O   -0.001873
 Electronic spatial extent (au):  <R**2>=          32757.8051
 Charge=             -0.0000 electrons
 Dipole moment (field-independent basis, Debye):
    X=              1.9151    Y=              0.4658    Z=              1.8916  Tot=              2.7318
 Quadrupole moment (field-independent basis, Debye-Ang):
   XX=             11.0007   YY=            -18.0481   ZZ=            -56.4811
   XY=            -21.0038   XZ=              0.5308   YZ=            -24.8289
 Traceless Quadrupole moment (field-independent basis, Debye-Ang):
   XX=             32.1768   YY=              3.1281   ZZ=            -35.3049
   XY=            -21.0038   XZ=              0.5308   YZ=            -24.8289
 Octapole moment (field-independent basis, Debye-Ang**2):
  XXX=             -9.7527  YYY=            466.6834  ZZZ=           1099.0006  XYY=            202.8995
  XXY=            -97.7862  XXZ=             50.9868  XZZ=           -296.8373  YZZ=            704.8120
  YYZ=            378.1780  XYZ=            -20.5411
 Hexadecapole moment (field-independent basis, Debye-Ang**3):
 XXXX=          -1005.3072 YYYY=         -10241.0734 ZZZZ=         -17802.6518 XXXY=            590.6757
 XXXZ=           1269.6663 YYYX=          -1520.7847 YYYZ=          -6280.5585 ZZZX=           6674.8612
 ZZZY=         -13759.0189 XXYY=            608.1032 XXZZ=          -2607.7053 YYZZ=          -9310.6066
 XXYZ=           -946.1174 YYXZ=            622.6510 ZZXY=           3804.2528
 N-N= 6.139211212089D+01 E-N=-6.919355964556D+02  KE= 2.276983493148D+02
 No NMR shielding tensors so no spin-rotation constants.
 Leave Link  601 at Fri May 15 22:36:06 2020, MaxMem=   134217728 cpu:               0.6 elap:               0.2
 (Enter /home/soft/g16/l607.exe)
 ******************************Gaussian NBO Version 3.1******************************
             N A T U R A L   A T O M I C   O R B I T A L   A N D
          N A T U R A L   B O N D   O R B I T A L   A N A L Y S I S
 ******************************Gaussian NBO Version 3.1******************************
       /RESON  / : Allow strongly delocalized NBO set

 Analyzing the SCF density

 Job title: Atom number=9                                                   

 Storage needed:     15894 in NPA ( 134217269 available)
 GSVD:  LWork=        2304 too small for GESVD, short by        3132 words or        3132 for optimal perf.


 NATURAL POPULATIONS:  Natural atomic orbital occupancies 
                                                          
   NAO  Atom  No  lang   Type(AO)    Occupancy      Energy
 ----------------------------------------------------------
     1    O    1  S      Cor( 1S)     1.99985     -20.35634
     2    O    1  S      Val( 2S)     1.75115      -1.13717
     3    O    1  S      Ryd( 3S)     0.00071       1.94337
     4    O    1  px     Val( 2p)     1.58688      -0.33417
     5    O    1  px     Ryd( 3p)     0.00176       1.34600
     6    O    1  py     Val( 2p)     1.94523      -0.45602
     7    O    1  py     Ryd( 3p)     0.00092       1.20407
     8    O    1  pz     Val( 2p)     1.76674      -0.40677
     9    O    1  pz     Ryd( 3p)     0.00043       1.23412
    10    O    1  dxy    Ryd( 3d)     0.00026       2.37289
    11    O    1  dxz    Ryd( 3d)     0.00139       2.75156
    12    O    1  dyz    Ryd( 3d)     0.00154       2.46482
    13    O    1  dx2y2  Ryd( 3d)     0.00070       2.72751
    14    O    1  dz2    Ryd( 3d)     0.00176       2.63393

    15    O    2  S      Cor( 1S)     1.99986     -20.43805
    16    O    2  S      Val( 2S)     1.75710      -1.20614
    17    O    2  S      Ryd( 3S)     0.00093       1.66676
    18    O    2  px     Val( 2p)     1.84578      -0.49728
    19    O    2  px     Ryd( 3p)     0.00034       1.21684
    20    O    2  py     Val( 2p)     1.68574      -0.44109
    21    O    2  py     Ryd( 3p)     0.00150       1.21614
    22    O    2  pz     Val( 2p)     1.74324      -0.45634
    23    O    2  pz     Ryd( 3p)     0.00118       1.33050
    24    O    2  dxy    Ryd( 3d)     0.00144       2.54082
    25    O    2  dxz    Ryd( 3d)     0.00153       2.64712
    26    O    2  dyz    Ryd( 3d)     0.00044       2.50296
    27    O    2  dx2y2  Ryd( 3d)     0.00121       2.46152
    28    O    2  dz2    Ryd( 3d)     0.00080       2.42832

    29    O    3  S      Cor( 1S)     1.99986     -20.46004
    30    O    3  S      Val( 2S)     1.75733      -1.22277
    31    O    3  S      Ryd( 3S)     0.00113       1.61592
    32    O    3  px     Val( 2p)     1.76444      -0.48506
    33    O    3  px     Ryd( 3p)     0.00093       1.15156
    34    O    3  py     Val( 2p)     1.85645      -0.52018
    35    O    3  py     Ryd( 3p)     0.00061       1.12366
    36    O    3  pz     Val( 2p)     1.62735      -0.43970
    37    O    3  pz     Ryd( 3p)     0.00171       1.20265
    38    O    3  dxy    Ryd( 3d)     0.00156       2.55892
    39    O    3  dxz    Ryd( 3d)     0.00062       2.42249
    40    O    3  dyz    Ryd( 3d)     0.00109       2.48903
    41    O    3  dx2y2  Ryd( 3d)     0.00132       2.22133
    42    O    3  dz2    Ryd( 3d)     0.00100       2.77076

    43    H    4  S      Val( 1S)     0.46015       0.43447
    44    H    4  S      Ryd( 2S)     0.00065       0.79066
    45    H    4  px     Ryd( 2p)     0.00176       3.42016
    46    H    4  py     Ryd( 2p)     0.00068       2.65019
    47    H    4  pz     Ryd( 2p)     0.00061       2.73420

    48    H    5  S      Val( 1S)     0.48516       0.38988
    49    H    5  S      Ryd( 2S)     0.00091       0.85805
    50    H    5  px     Ryd( 2p)     0.00067       2.84350
    51    H    5  py     Ryd( 2p)     0.00097       2.74384
    52    H    5  pz     Ryd( 2p)     0.00133       3.19704

    53    H    6  S      Val( 1S)     0.46803       0.35081
    54    H    6  S      Ryd( 2S)     0.00056       0.69393
    55    H    6  px     Ryd( 2p)     0.00114       2.85221
    56    H    6  py     Ryd( 2p)     0.00062       2.69042
    57    H    6  pz     Ryd( 2p)     0.00139       3.05231

    58    H    7  S      Val( 1S)     0.47052       0.34260
    59    H    7  S      Ryd( 2S)     0.00063       0.71275
    60    H    7  px     Ryd( 2p)     0.00076       2.71693
    61    H    7  py     Ryd( 2p)     0.00144       3.18558
    62    H    7  pz     Ryd( 2p)     0.00073       2.71951

    63    H    8  S      Val( 1S)     0.51870       0.24610
    64    H    8  S      Ryd( 2S)     0.00107       0.64878
    65    H    8  px     Ryd( 2p)     0.00127       2.97053
    66    H    8  py     Ryd( 2p)     0.00115       2.77869
    67    H    8  pz     Ryd( 2p)     0.00068       2.67206

    68    H    9  S      Val( 1S)     0.45839       0.34521
    69    H    9  S      Ryd( 2S)     0.00113       0.69459
    70    H    9  px     Ryd( 2p)     0.00061       2.59581
    71    H    9  py     Ryd( 2p)     0.00076       2.64737
    72    H    9  pz     Ryd( 2p)     0.00166       3.28912


 Summary of Natural Population Analysis:                  
                                                          
                                       Natural Population 
                Natural  -----------------------------------------------
    Atom  No    Charge         Core      Valence    Rydberg      Total
 -----------------------------------------------------------------------
      O    1   -1.05933      1.99985     7.05000    0.00948     9.05933
      O    2   -1.04109      1.99986     7.03185    0.00938     9.04109
      O    3   -1.01541      1.99986     7.00557    0.00998     9.01541
      H    4    0.53615      0.00000     0.46015    0.00370     0.46385
      H    5    0.51096      0.00000     0.48516    0.00388     0.48904
      H    6    0.52825      0.00000     0.46803    0.00372     0.47175
      H    7    0.52592      0.00000     0.47052    0.00356     0.47408
      H    8    0.47712      0.00000     0.51870    0.00418     0.52288
      H    9    0.53743      0.00000     0.45839    0.00418     0.46257
 =======================================================================
   * Total *   -0.00000      5.99958    23.94838    0.05204    30.00000

                                 Natural Population      
 --------------------------------------------------------
   Core                       5.99958 ( 99.9929% of   6)
   Valence                   23.94838 ( 99.7849% of  24)
   Natural Minimal Basis     29.94796 ( 99.8265% of  30)
   Natural Rydberg Basis      0.05204 (  0.1735% of  30)
 --------------------------------------------------------

    Atom  No          Natural Electron Configuration
 ----------------------------------------------------------------------------
      O    1      [core]2S( 1.75)2p( 5.30)3d( 0.01)
      O    2      [core]2S( 1.76)2p( 5.27)3d( 0.01)
      O    3      [core]2S( 1.76)2p( 5.25)3d( 0.01)
      H    4            1S( 0.46)
      H    5            1S( 0.49)
      H    6            1S( 0.47)
      H    7            1S( 0.47)
      H    8            1S( 0.52)
      H    9            1S( 0.46)


 NBO analysis skipped by request.
 Leave Link  607 at Fri May 15 22:36:06 2020, MaxMem=   134217728 cpu:               0.5 elap:               0.2
 (Enter /home/soft/g16/l9999.exe)

 Test job not archived.
 1\1\GINC-MASTER\SP\RHF\6-31G(d,p)\H6O3\LIWEI01\15-May-2020\0\\#p hf/6-
 31g** 5d 7f pop=npa charge nosymm\\Atom number=9\\0,1\O,0,5.570392,-12
 .760041,-10.733807\O,0,6.942642,-11.829381,-8.371044\O,0,5.59138,-15.5
 33488,-8.700217\H,0,4.642708,-12.827827,-10.507888\H,0,5.983752,-12.40
 517,-9.946767\H,0,7.495574,-12.091052,-7.634819\H,0,7.307461,-10.99284
 ,-8.659728\H,0,6.309279,-16.070726,-8.365208\H,0,5.476258,-15.823936,-
 9.604992\\Version=ES64L-G16RevA.03\HF=-242.1604349\RMSD=6.234e-09\Dipo
 le=0.7534474,0.1832614,0.744213\Quadrupole=23.9226968,2.3256609,-26.24
 83577,-15.6157799,0.3946101,-18.459685\PG=C01 [X(H6O3)]\\@


 This summer one third of the nation will be ill-housed
 ill-nourished and ill-clad. Only they call it a vacation.
 -- Jonas Salk
 Job cpu time:       0 days  0 hours  0 minutes  5.2 seconds.
 Elapsed time:       0 days  0 hours  0 minutes  1.5 seconds.
 File lengths (MBytes):  RWF=     72 Int=      0 D2E=      0 Chk=      8 Scr=      8
 Normal termination of Gaussian 16 at Fri May 15 22:36:07 2020.
