Atom number=15                                                          
SP        RHF                                                         6-31G(d,p)          
Number of atoms                            I               15
Info1-9                                    I   N=           9
         107         106           0           0           0         111
           1           1           2
Full Title                                 C   N=           2
Atom number=15          
Route                                      C   N=           4
#p hf/6-31g** 5d 7f pop=npa charge nosymm       
Charge                                     I                0
Multiplicity                               I                1
Number of electrons                        I               50
Number of alpha electrons                  I               25
Number of beta electrons                   I               25
Number of basis functions                  I              120
Number of independent functions            I              120
Number of point charges in /Mol/           I                0
Number of translation vectors              I                0
Atomic numbers                             I   N=          15
           8           8           8           8           8           1
           1           1           1           1           1           1
           1           1           1
Nuclear charges                            R   N=          15
  8.00000000E+00  8.00000000E+00  8.00000000E+00  8.00000000E+00  8.00000000E+00
  1.00000000E+00  1.00000000E+00  1.00000000E+00  1.00000000E+00  1.00000000E+00
  1.00000000E+00  1.00000000E+00  1.00000000E+00  1.00000000E+00  1.00000000E+00
Current cartesian coordinates              R   N=          45
  1.64278541E+01 -2.65870709E+01 -1.80414289E+01  1.05536555E+01 -2.94649215E+01
 -2.16748884E+01  1.05661769E+01 -2.93540381E+01 -1.64410274E+01  1.69341004E+01
 -3.21569781E+01 -1.75281055E+01  7.95719829E+00 -2.51911925E+01 -1.42761212E+01
  1.55337188E+01 -2.59511213E+01 -1.66033699E+01  1.61624534E+01 -2.83754831E+01
 -1.79860013E+01  8.84108934E+00 -2.90041213E+01 -2.20308448E+01  1.13441828E+01
 -2.79179445E+01 -2.11710515E+01  1.19228094E+01 -3.03692708E+01 -1.58079521E+01
  1.03486278E+01 -2.99029053E+01 -1.81508043E+01  1.63906983E+01 -3.25393132E+01
 -1.58457088E+01  1.56895513E+01 -3.29254069E+01 -1.85923124E+01  9.38018663E+00
 -2.40850659E+01 -1.41227926E+01  8.66153702E+00 -2.67619008E+01 -1.48317423E+01
Number of symbols in /Mol/                 I                0
Force Field                                I                0
Atom Types                                 C   N=          15
                                                            
                                                            
                                                            
Int Atom Types                             I   N=          15
           0           0           0           0           0           0
           0           0           0           0           0           0
           0           0           0
MM charges                                 R   N=          15
  0.00000000E+00  0.00000000E+00  0.00000000E+00  0.00000000E+00  0.00000000E+00
  0.00000000E+00  0.00000000E+00  0.00000000E+00  0.00000000E+00  0.00000000E+00
  0.00000000E+00  0.00000000E+00  0.00000000E+00  0.00000000E+00  0.00000000E+00
Integer atomic weights                     I   N=          15
          16          16          16          16          16           1
           1           1           1           1           1           1
           1           1           1
Real atomic weights                        R   N=          15
  1.59949146E+01  1.59949146E+01  1.59949146E+01  1.59949146E+01  1.59949146E+01
  1.00782504E+00  1.00782504E+00  1.00782504E+00  1.00782504E+00  1.00782504E+00
  1.00782504E+00  1.00782504E+00  1.00782504E+00  1.00782504E+00  1.00782504E+00
Atom fragment info                         I   N=          15
           0           0           0           0           0           0
           0           0           0           0           0           0
           0           0           0
Atom residue num                           I   N=          15
           0           0           0           0           0           0
           0           0           0           0           0           0
           0           0           0
Nuclear spins                              I   N=          15
           0           0           0           0           0           1
           1           1           1           1           1           1
           1           1           1
Nuclear ZEff                               R   N=          15
 -5.60000000E+00 -5.60000000E+00 -5.60000000E+00 -5.60000000E+00 -5.60000000E+00
 -1.00000000E+00 -1.00000000E+00 -1.00000000E+00 -1.00000000E+00 -1.00000000E+00
 -1.00000000E+00 -1.00000000E+00 -1.00000000E+00 -1.00000000E+00 -1.00000000E+00
Nuclear ZNuc                               R   N=          15
  8.00000000E+00  8.00000000E+00  8.00000000E+00  8.00000000E+00  8.00000000E+00
  1.00000000E+00  1.00000000E+00  1.00000000E+00  1.00000000E+00  1.00000000E+00
  1.00000000E+00  1.00000000E+00  1.00000000E+00  1.00000000E+00  1.00000000E+00
Nuclear QMom                               R   N=          15
  0.00000000E+00  0.00000000E+00  0.00000000E+00  0.00000000E+00  0.00000000E+00
  0.00000000E+00  0.00000000E+00  0.00000000E+00  0.00000000E+00  0.00000000E+00
  0.00000000E+00  0.00000000E+00  0.00000000E+00  0.00000000E+00  0.00000000E+00
Nuclear GFac                               R   N=          15
  0.00000000E+00  0.00000000E+00  0.00000000E+00  0.00000000E+00  0.00000000E+00
  2.79284600E+00  2.79284600E+00  2.79284600E+00  2.79284600E+00  2.79284600E+00
  2.79284600E+00  2.79284600E+00  2.79284600E+00  2.79284600E+00  2.79284600E+00
MicOpt                                     I   N=          15
          -1          -1          -1          -1          -1          -1
          -1          -1          -1          -1          -1          -1
          -1          -1          -1
Number of residues                         I                0
Number of secondary structures             I                0
Number of contracted shells                I               50
Number of primitive shells                 I              105
Pure/Cartesian d shells                    I                0
Pure/Cartesian f shells                    I                0
Highest angular momentum                   I                2
Largest degree of contraction              I                6
Shell types                                I   N=          50
           0          -1          -1          -2           0          -1
          -1          -2           0          -1          -1          -2
           0          -1          -1          -2           0          -1
          -1          -2           0           0           1           0
           0           1           0           0           1           0
           0           1           0           0           1           0
           0           1           0           0           1           0
           0           1           0           0           1           0
           0           1
Number of primitives per shell             I   N=          50
           6           3           1           1           6           3
           1           1           6           3           1           1
           6           3           1           1           6           3
           1           1           3           1           1           3
           1           1           3           1           1           3
           1           1           3           1           1           3
           1           1           3           1           1           3
           1           1           3           1           1           3
           1           1
Shell to atom map                          I   N=          50
           1           1           1           1           2           2
           2           2           3           3           3           3
           4           4           4           4           5           5
           5           5           6           6           6           7
           7           7           8           8           8           9
           9           9          10          10          10          11
          11          11          12          12          12          13
          13          13          14          14          14          15
          15          15
Primitive exponents                        R   N=         105
  5.48467166E+03  8.25234946E+02  1.88046958E+02  5.29645000E+01  1.68975704E+01
  5.79963534E+00  1.55396162E+01  3.59993359E+00  1.01376175E+00  2.70005823E-01
  8.00000000E-01  5.48467166E+03  8.25234946E+02  1.88046958E+02  5.29645000E+01
  1.68975704E+01  5.79963534E+00  1.55396162E+01  3.59993359E+00  1.01376175E+00
  2.70005823E-01  8.00000000E-01  5.48467166E+03  8.25234946E+02  1.88046958E+02
  5.29645000E+01  1.68975704E+01  5.79963534E+00  1.55396162E+01  3.59993359E+00
  1.01376175E+00  2.70005823E-01  8.00000000E-01  5.48467166E+03  8.25234946E+02
  1.88046958E+02  5.29645000E+01  1.68975704E+01  5.79963534E+00  1.55396162E+01
  3.59993359E+00  1.01376175E+00  2.70005823E-01  8.00000000E-01  5.48467166E+03
  8.25234946E+02  1.88046958E+02  5.29645000E+01  1.68975704E+01  5.79963534E+00
  1.55396162E+01  3.59993359E+00  1.01376175E+00  2.70005823E-01  8.00000000E-01
  1.87311370E+01  2.82539436E+00  6.40121692E-01  1.61277759E-01  1.10000000E+00
  1.87311370E+01  2.82539436E+00  6.40121692E-01  1.61277759E-01  1.10000000E+00
  1.87311370E+01  2.82539436E+00  6.40121692E-01  1.61277759E-01  1.10000000E+00
  1.87311370E+01  2.82539436E+00  6.40121692E-01  1.61277759E-01  1.10000000E+00
  1.87311370E+01  2.82539436E+00  6.40121692E-01  1.61277759E-01  1.10000000E+00
  1.87311370E+01  2.82539436E+00  6.40121692E-01  1.61277759E-01  1.10000000E+00
  1.87311370E+01  2.82539436E+00  6.40121692E-01  1.61277759E-01  1.10000000E+00
  1.87311370E+01  2.82539436E+00  6.40121692E-01  1.61277759E-01  1.10000000E+00
  1.87311370E+01  2.82539436E+00  6.40121692E-01  1.61277759E-01  1.10000000E+00
  1.87311370E+01  2.82539436E+00  6.40121692E-01  1.61277759E-01  1.10000000E+00
Contraction coefficients                   R   N=         105
  1.83107443E-03  1.39501722E-02  6.84450781E-02  2.32714336E-01  4.70192898E-01
  3.58520853E-01 -1.10777550E-01 -1.48026263E-01  1.13076702E+00  1.00000000E+00
  1.00000000E+00  1.83107443E-03  1.39501722E-02  6.84450781E-02  2.32714336E-01
  4.70192898E-01  3.58520853E-01 -1.10777550E-01 -1.48026263E-01  1.13076702E+00
  1.00000000E+00  1.00000000E+00  1.83107443E-03  1.39501722E-02  6.84450781E-02
  2.32714336E-01  4.70192898E-01  3.58520853E-01 -1.10777550E-01 -1.48026263E-01
  1.13076702E+00  1.00000000E+00  1.00000000E+00  1.83107443E-03  1.39501722E-02
  6.84450781E-02  2.32714336E-01  4.70192898E-01  3.58520853E-01 -1.10777550E-01
 -1.48026263E-01  1.13076702E+00  1.00000000E+00  1.00000000E+00  1.83107443E-03
  1.39501722E-02  6.84450781E-02  2.32714336E-01  4.70192898E-01  3.58520853E-01
 -1.10777550E-01 -1.48026263E-01  1.13076702E+00  1.00000000E+00  1.00000000E+00
  3.34946043E-02  2.34726953E-01  8.13757326E-01  1.00000000E+00  1.00000000E+00
  3.34946043E-02  2.34726953E-01  8.13757326E-01  1.00000000E+00  1.00000000E+00
  3.34946043E-02  2.34726953E-01  8.13757326E-01  1.00000000E+00  1.00000000E+00
  3.34946043E-02  2.34726953E-01  8.13757326E-01  1.00000000E+00  1.00000000E+00
  3.34946043E-02  2.34726953E-01  8.13757326E-01  1.00000000E+00  1.00000000E+00
  3.34946043E-02  2.34726953E-01  8.13757326E-01  1.00000000E+00  1.00000000E+00
  3.34946043E-02  2.34726953E-01  8.13757326E-01  1.00000000E+00  1.00000000E+00
  3.34946043E-02  2.34726953E-01  8.13757326E-01  1.00000000E+00  1.00000000E+00
  3.34946043E-02  2.34726953E-01  8.13757326E-01  1.00000000E+00  1.00000000E+00
  3.34946043E-02  2.34726953E-01  8.13757326E-01  1.00000000E+00  1.00000000E+00
P(S=P) Contraction coefficients            R   N=         105
  0.00000000E+00  0.00000000E+00  0.00000000E+00  0.00000000E+00  0.00000000E+00
  0.00000000E+00  7.08742682E-02  3.39752839E-01  7.27158577E-01  1.00000000E+00
  0.00000000E+00  0.00000000E+00  0.00000000E+00  0.00000000E+00  0.00000000E+00
  0.00000000E+00  0.00000000E+00  7.08742682E-02  3.39752839E-01  7.27158577E-01
  1.00000000E+00  0.00000000E+00  0.00000000E+00  0.00000000E+00  0.00000000E+00
  0.00000000E+00  0.00000000E+00  0.00000000E+00  7.08742682E-02  3.39752839E-01
  7.27158577E-01  1.00000000E+00  0.00000000E+00  0.00000000E+00  0.00000000E+00
  0.00000000E+00  0.00000000E+00  0.00000000E+00  0.00000000E+00  7.08742682E-02
  3.39752839E-01  7.27158577E-01  1.00000000E+00  0.00000000E+00  0.00000000E+00
  0.00000000E+00  0.00000000E+00  0.00000000E+00  0.00000000E+00  0.00000000E+00
  7.08742682E-02  3.39752839E-01  7.27158577E-01  1.00000000E+00  0.00000000E+00
  0.00000000E+00  0.00000000E+00  0.00000000E+00  0.00000000E+00  0.00000000E+00
  0.00000000E+00  0.00000000E+00  0.00000000E+00  0.00000000E+00  0.00000000E+00
  0.00000000E+00  0.00000000E+00  0.00000000E+00  0.00000000E+00  0.00000000E+00
  0.00000000E+00  0.00000000E+00  0.00000000E+00  0.00000000E+00  0.00000000E+00
  0.00000000E+00  0.00000000E+00  0.00000000E+00  0.00000000E+00  0.00000000E+00
  0.00000000E+00  0.00000000E+00  0.00000000E+00  0.00000000E+00  0.00000000E+00
  0.00000000E+00  0.00000000E+00  0.00000000E+00  0.00000000E+00  0.00000000E+00
  0.00000000E+00  0.00000000E+00  0.00000000E+00  0.00000000E+00  0.00000000E+00
  0.00000000E+00  0.00000000E+00  0.00000000E+00  0.00000000E+00  0.00000000E+00
  0.00000000E+00  0.00000000E+00  0.00000000E+00  0.00000000E+00  0.00000000E+00
Coordinates of each shell                  R   N=         150
  1.64278541E+01 -2.65870709E+01 -1.80414289E+01  1.64278541E+01 -2.65870709E+01
 -1.80414289E+01  1.64278541E+01 -2.65870709E+01 -1.80414289E+01  1.64278541E+01
 -2.65870709E+01 -1.80414289E+01  1.05536555E+01 -2.94649215E+01 -2.16748884E+01
  1.05536555E+01 -2.94649215E+01 -2.16748884E+01  1.05536555E+01 -2.94649215E+01
 -2.16748884E+01  1.05536555E+01 -2.94649215E+01 -2.16748884E+01  1.05661769E+01
 -2.93540381E+01 -1.64410274E+01  1.05661769E+01 -2.93540381E+01 -1.64410274E+01
  1.05661769E+01 -2.93540381E+01 -1.64410274E+01  1.05661769E+01 -2.93540381E+01
 -1.64410274E+01  1.69341004E+01 -3.21569781E+01 -1.75281055E+01  1.69341004E+01
 -3.21569781E+01 -1.75281055E+01  1.69341004E+01 -3.21569781E+01 -1.75281055E+01
  1.69341004E+01 -3.21569781E+01 -1.75281055E+01  7.95719829E+00 -2.51911925E+01
 -1.42761212E+01  7.95719829E+00 -2.51911925E+01 -1.42761212E+01  7.95719829E+00
 -2.51911925E+01 -1.42761212E+01  7.95719829E+00 -2.51911925E+01 -1.42761212E+01
  1.55337188E+01 -2.59511213E+01 -1.66033699E+01  1.55337188E+01 -2.59511213E+01
 -1.66033699E+01  1.55337188E+01 -2.59511213E+01 -1.66033699E+01  1.61624534E+01
 -2.83754831E+01 -1.79860013E+01  1.61624534E+01 -2.83754831E+01 -1.79860013E+01
  1.61624534E+01 -2.83754831E+01 -1.79860013E+01  8.84108934E+00 -2.90041213E+01
 -2.20308448E+01  8.84108934E+00 -2.90041213E+01 -2.20308448E+01  8.84108934E+00
 -2.90041213E+01 -2.20308448E+01  1.13441828E+01 -2.79179445E+01 -2.11710515E+01
  1.13441828E+01 -2.79179445E+01 -2.11710515E+01  1.13441828E+01 -2.79179445E+01
 -2.11710515E+01  1.19228094E+01 -3.03692708E+01 -1.58079521E+01  1.19228094E+01
 -3.03692708E+01 -1.58079521E+01  1.19228094E+01 -3.03692708E+01 -1.58079521E+01
  1.03486278E+01 -2.99029053E+01 -1.81508043E+01  1.03486278E+01 -2.99029053E+01
 -1.81508043E+01  1.03486278E+01 -2.99029053E+01 -1.81508043E+01  1.63906983E+01
 -3.25393132E+01 -1.58457088E+01  1.63906983E+01 -3.25393132E+01 -1.58457088E+01
  1.63906983E+01 -3.25393132E+01 -1.58457088E+01  1.56895513E+01 -3.29254069E+01
 -1.85923124E+01  1.56895513E+01 -3.29254069E+01 -1.85923124E+01  1.56895513E+01
 -3.29254069E+01 -1.85923124E+01  9.38018663E+00 -2.40850659E+01 -1.41227926E+01
  9.38018663E+00 -2.40850659E+01 -1.41227926E+01  9.38018663E+00 -2.40850659E+01
 -1.41227926E+01  8.66153702E+00 -2.67619008E+01 -1.48317423E+01  8.66153702E+00
 -2.67619008E+01 -1.48317423E+01  8.66153702E+00 -2.67619008E+01 -1.48317423E+01
Num ILSW                                   I              100
ILSW                                       I   N=         100
           0           0           0           0           2           0
           0           0           0           0           0          -1
           5           0           0           0           0           0
           0           0           0           0           0           0
           1           1           0           0           0           0
           0           0      100000           0          -1           0
           0           0           0           0           0           0
           0           0           0           1           0           0
           0 -2000000000           1           0           0           0
           0           0           4          52           0           0
           0           1           0           0           0           0
           0           0           0          15           0           1
           0           0           0           0           0           0
           0           0           0           0           0           0
           0           0           0           0           0           0
           0           0           0           0           0           0
           0           0           0           0
Num RLSW                                   I               52
RLSW                                       R   N=          52
  1.00000000E+00  1.00000000E+00  1.00000000E+00  1.00000000E+00  1.00000000E+00
  0.00000000E+00  0.00000000E+00  1.00000000E+00  0.00000000E+00  0.00000000E+00
  0.00000000E+00  0.00000000E+00  1.00000000E+00  0.00000000E+00  0.00000000E+00
  0.00000000E+00  0.00000000E+00  1.00000000E+00  0.00000000E+00  0.00000000E+00
  0.00000000E+00  0.00000000E+00  1.00000000E+00  0.00000000E+00  0.00000000E+00
  0.00000000E+00  0.00000000E+00  1.00000000E+00  0.00000000E+00  0.00000000E+00
  0.00000000E+00  0.00000000E+00  1.00000000E+00  0.00000000E+00  0.00000000E+00
  0.00000000E+00  0.00000000E+00  0.00000000E+00  1.00000000E+00  1.00000000E+00
  0.00000000E+00  1.00000000E+00  0.00000000E+00  0.00000000E+00  0.00000000E+00
  0.00000000E+00  0.00000000E+00  0.00000000E+00  0.00000000E+00  0.00000000E+00
  0.00000000E+00  0.00000000E+00
MxBond                                     I                2
NBond                                      I   N=          15
           2           2           2           2           2           1
           1           1           1           1           1           1
           1           1           1
IBond                                      I   N=          30
           6           7           8           9          10          11
          12          13          14          15           1           0
           1           0           2           0           2           0
           3           0           3           0           4           0
           4           0           5           0           5           0
RBond                                      R   N=          30
  1.00000000E+00  1.00000000E+00  1.00000000E+00  1.00000000E+00  1.00000000E+00
  1.00000000E+00  1.00000000E+00  1.00000000E+00  1.00000000E+00  1.00000000E+00
  1.00000000E+00  0.00000000E+00  1.00000000E+00  0.00000000E+00  1.00000000E+00
  0.00000000E+00  1.00000000E+00  0.00000000E+00  1.00000000E+00  0.00000000E+00
  1.00000000E+00  0.00000000E+00  1.00000000E+00  0.00000000E+00  1.00000000E+00
  0.00000000E+00  1.00000000E+00  0.00000000E+00  1.00000000E+00  0.00000000E+00
Virial Ratio                               R      2.036251926268559E+00
SCF Energy                                 R     -3.933023813004652E+02
Total Energy                               R     -3.933023813004652E+02
RMS Density                                R      6.903364640016776E-09
Job Status                                 I                1
Nuclear derivative order                   I                0
External E-field                           R   N=          35
  0.00000000E+00  0.00000000E+00  0.00000000E+00  0.00000000E+00  0.00000000E+00
  0.00000000E+00  0.00000000E+00  0.00000000E+00  0.00000000E+00  0.00000000E+00
  0.00000000E+00  0.00000000E+00  0.00000000E+00  0.00000000E+00  0.00000000E+00
  0.00000000E+00  0.00000000E+00  0.00000000E+00  0.00000000E+00  0.00000000E+00
  0.00000000E+00  0.00000000E+00  0.00000000E+00  0.00000000E+00  0.00000000E+00
  0.00000000E+00  0.00000000E+00  0.00000000E+00  0.00000000E+00  0.00000000E+00
  0.00000000E+00  0.00000000E+00  0.00000000E+00  0.00000000E+00  0.00000000E+00
IOpCl                                      I                0
IROHF                                      I                0
Alpha Orbital Energies                     R   N=         120
 -2.06518914E+01 -2.05932781E+01 -2.05918575E+01 -2.05799654E+01 -2.05397309E+01
 -1.43372331E+00 -1.38416236E+00 -1.37595024E+00 -1.36043342E+00 -1.32555898E+00
 -7.93486903E-01 -7.48878179E-01 -7.43378913E-01 -7.23196576E-01 -6.99666693E-01
 -6.68028242E-01 -6.22260063E-01 -6.16837691E-01 -5.95621274E-01 -5.83270473E-01
 -5.53373346E-01 -5.39260054E-01 -5.32280002E-01 -5.14427732E-01 -4.85865365E-01
  1.09704282E-01  2.03830092E-01  2.22803486E-01  2.40139009E-01  2.63473295E-01
  2.79982466E-01  3.30689814E-01  3.65914613E-01  3.82117215E-01  4.29350809E-01
  9.11610787E-01  9.44840008E-01  9.68258611E-01  9.92825763E-01  1.00302299E+00
  1.01572257E+00  1.03744286E+00  1.06336625E+00  1.08686212E+00  1.10137269E+00
  1.10692235E+00  1.12324930E+00  1.14006327E+00  1.15276476E+00  1.17544906E+00
  1.18401842E+00  1.20723855E+00  1.22115360E+00  1.23831593E+00  1.28383399E+00
  1.30238460E+00  1.30846927E+00  1.33416433E+00  1.35421533E+00  1.39101307E+00
  1.51261077E+00  1.56769374E+00  1.66543632E+00  1.67463445E+00  1.71557933E+00
  1.74683820E+00  1.75425739E+00  1.76307097E+00  1.77342682E+00  1.79243879E+00
  1.80423721E+00  1.81777440E+00  1.82505539E+00  1.85507387E+00  1.88098357E+00
  1.89692756E+00  1.93118080E+00  1.95903213E+00  1.97307437E+00  1.98833441E+00
  2.49159009E+00  2.50176525E+00  2.53224053E+00  2.55191560E+00  2.56551084E+00
  2.57764308E+00  2.60116724E+00  2.60490590E+00  2.62607665E+00  2.66930651E+00
  2.72562276E+00  2.77483129E+00  2.78733599E+00  2.80398286E+00  2.88432608E+00
  2.89067109E+00  2.93073497E+00  2.93555887E+00  2.94467309E+00  2.95568869E+00
  2.97886750E+00  2.98756871E+00  3.00096621E+00  3.02651993E+00  3.12566683E+00
  3.29588361E+00  3.33861671E+00  3.35014308E+00  3.38850869E+00  3.41387727E+00
  3.66894204E+00  3.74262239E+00  3.75327811E+00  3.77845653E+00  3.79533920E+00
  3.84455998E+00  3.91623826E+00  3.94948072E+00  3.96324051E+00  3.99201794E+00
Alpha MO coefficients                      R   N=       14400
  1.09602980E-04  3.00849971E-04 -6.69164445E-06 -4.57749128E-05 -2.32387950E-05
 -1.10053352E-03  5.06760891E-05  7.13300293E-04  7.65868746E-05  7.48550735E-05
  3.76067234E-06  2.07827378E-05  1.30467768E-04 -2.30984816E-05 -1.16693048E-05
 -3.25429595E-05  9.42814415E-06 -6.59048169E-06 -2.04147058E-07  1.54878905E-04
 -4.46442087E-05  6.91755060E-05  1.90453086E-05 -8.62584492E-06  4.41673568E-06
  9.27330060E-07  7.82798210E-06 -5.71606115E-06 -2.01959387E-05 -3.61167295E-05
  1.77877006E-05  6.38492966E-06 -1.21265697E-05  1.96222554E-04 -1.85252431E-05
 -5.09923907E-05  1.27145662E-05  4.85009651E-06  1.03611573E-05  3.71519916E-07
 -7.99933416E-06  1.48344486E-06  9.95707254E-01  2.21340379E-02 -1.66379635E-03
 -9.09649030E-04  5.41490022E-04 -6.18292450E-03  8.04447336E-04  6.03422575E-05
 -1.96370780E-04  3.65640637E-04  8.95622973E-05  5.05373677E-05  1.48315620E-04
  2.58826572E-04  2.25968677E-06  8.33313915E-06 -1.38422764E-06  6.93848646E-07
  8.36500576E-07 -3.85348830E-05 -9.03706899E-06  5.04009203E-06  1.53156681E-06
  2.19763434E-06  3.88402423E-07 -1.55676623E-06  9.96139421E-07  4.07496675E-07
  5.81432449E-05 -2.90559097E-04 -1.98617483E-05 -1.41019134E-05  1.84451218E-05
  1.17213404E-04  1.49592737E-03  8.45247094E-05  1.01124672E-04  1.42736291E-05
 -5.67809650E-05  5.64535903E-06 -1.56832499E-05  4.25946030E-07 -4.67360379E-06
  1.44993942E-05 -1.43728268E-04  1.52103280E-05  1.61948488E-05  7.14601765E-06
  3.18188420E-05 -2.32062930E-04 -1.50152171E-06 -6.44724388E-06  1.24388710E-05
  2.51611668E-05 -1.06553465E-04  7.98692887E-06 -3.29267027E-06 -1.90653447E-05
 -4.97767062E-04  1.17957610E-03 -4.13460179E-04 -2.29243382E-04  1.06589517E-03
 -4.69232456E-04  1.13568919E-03 -8.48369009E-04 -4.70171147E-04 -6.48050732E-04
 -6.62097545E-07  1.80185122E-05 -3.11575291E-06 -3.02607573E-06 -3.34937415E-07
 -8.82058001E-07  2.77653246E-05 -1.74438738E-06  7.44747408E-06  2.40389447E-06
  3.45290996E-04  4.15728218E-05 -5.85476200E-06 -1.35762881E-06 -1.17180247E-06
 -1.17986204E-04  4.29178626E-05  6.53737030E-06 -3.57524191E-05 -8.85837619E-07
  1.18158197E-05 -6.99202814E-06  2.01580025E-06  1.89618952E-06  2.63012981E-04
  2.54099373E-04 -8.52802676E-06 -5.94568047E-05  1.05768385E-04 -5.60233154E-04
 -2.12577011E-05  1.45055175E-04 -5.68393239E-04 -9.29580608E-05  1.87317205E-05
  1.97946192E-05 -5.36598879E-06 -1.83867607E-05  9.95712831E-01  2.23578844E-02
  9.91435943E-04 -1.35886691E-03 -8.43566705E-04 -6.98207921E-03 -1.22170848E-04
  4.65408202E-04  6.58800098E-04  1.41766548E-04  2.77858569E-04 -2.34768600E-05
  7.91548908E-05 -2.27450528E-04  1.33384063E-05 -4.32800192E-05 -3.16982136E-05
  2.08141303E-05  4.44420964E-06  2.70924045E-04  2.47897504E-05 -9.73523804E-05
  2.38809326E-05  1.55222427E-05  4.45693979E-06 -3.59671161E-06 -1.10834377E-05
  1.38115732E-05  9.44925779E-05  2.56147292E-04 -3.91421486E-06 -5.82046334E-05
 -7.83522874E-06 -8.69290046E-04 -1.09751662E-04  5.35832498E-04  1.65433837E-04
  2.40348957E-05  2.91453015E-05 -5.28750625E-05  4.17034290E-05  7.86254515E-05
  1.34927700E-05  7.07783755E-05  1.12069756E-05 -5.82136242E-06 -1.91188378E-05
  1.13429649E-05  1.85285921E-05  1.32425872E-05  4.62718995E-06 -1.19747648E-06
  8.74131698E-05 -2.45950816E-04 -3.74594444E-05 -1.53283007E-05  3.65541236E-05
  3.63762439E-05  3.22924886E-05 -1.19131101E-05 -3.70345873E-05  2.48290255E-05
 -5.44313093E-04  1.05678521E-03  8.93471670E-04 -6.89757102E-04  3.88554406E-04
 -4.67584775E-04  2.25497651E-03 -9.82563150E-05 -2.76082093E-04 -9.85522120E-04
  4.29974914E-05 -2.45937486E-04 -1.41476379E-05 -4.51690268E-06  3.74970723E-05
  4.51618203E-05 -2.02701356E-04 -2.57137976E-05 -8.47970193E-06 -1.90957268E-05
  1.59714946E-05 -2.26809203E-04  3.05477613E-05 -6.93322914E-07 -7.77688241E-07
  1.12303327E-04  1.21155340E-03  2.18836096E-05  3.59949628E-05 -3.26399543E-05
  9.95719121E-01  2.22134935E-02 -1.08709713E-03 -1.04202414E-03  1.34795787E-03
 -6.84551213E-03  5.51915681E-04  1.06330473E-03 -5.81621183E-04  3.84310202E-05
 -2.51961049E-04  2.07404643E-04 -1.74024692E-04 -7.03695308E-05  6.79309773E-06
  1.74583533E-06  8.61545699E-06 -2.45143669E-06  2.02478091E-06  1.28103223E-05
 -7.35039202E-05 -1.50116088E-05 -1.73770871E-05  1.23734928E-06 -2.83047240E-07
 -8.31079302E-06  1.83847106E-05 -1.79889801E-05 -3.43407449E-04  7.77647539E-06
  3.61071611E-05  2.34813056E-05 -1.39008479E-05  6.98684408E-05 -8.59408973E-05
 -7.85450902E-05  5.46829042E-05  4.72296523E-06  1.09070387E-05  4.14030211E-06
 -1.78123982E-05 -3.06481955E-06 -8.19091833E-05  2.38668453E-04 -2.64772829E-05
  1.44601432E-04 -2.11021623E-05 -4.37281493E-04  1.21386521E-04 -5.97525112E-04
  1.16917345E-04  4.12902261E-05 -2.80200662E-05  9.49998694E-07  5.64312873E-05
  4.82466428E-05 -1.29231382E-05 -2.23884139E-05  3.16725315E-07 -2.48634756E-07
 -1.85416327E-07  8.75314664E-05  3.37603105E-05  1.51965006E-05  6.78881927E-07
 -6.96355652E-06  7.05067811E-07  2.26293460E-06  1.01774857E-06  7.77715513E-06
 -4.82065938E-04  1.07102692E-03 -6.04228945E-04  3.28416306E-04  9.50184575E-04
 -4.21579061E-04  2.44539619E-03 -1.51190122E-04 -9.58085481E-04  8.97548722E-05
 -3.50037394E-05 -2.62094740E-05 -1.33019977E-05  7.47148351E-06 -2.26950110E-06
  2.82587254E-05  1.21547831E-06 -9.27979839E-06 -1.42242703E-05 -7.51443758E-06
  7.56147556E-05 -2.27999777E-04  1.17671900E-05 -1.40664381E-05  6.21707639E-06
  2.90256288E-05 -2.97283231E-05  2.11311453E-05  6.72214369E-06 -1.14834629E-05
  3.98819432E-05 -1.33789916E-04 -3.20962201E-05  5.96611631E-05  2.43074436E-05
  1.14586808E-04 -1.68337967E-04 -2.72477095E-05  6.27641370E-05 -2.06928431E-05
 -6.88081775E-06 -7.11765949E-05  1.35697521E-05  1.18679975E-05  2.00022507E-06
 -2.89228684E-06 -1.85791969E-05  2.22717913E-06 -2.54091673E-06 -1.83667260E-06
 -8.63564957E-06 -5.55128477E-06 -2.22167448E-05  1.78126817E-06 -1.39904551E-05
  8.51263314E-05  5.34836609E-05 -3.78754717E-05  4.18081625E-05  3.91732568E-06
 -3.08115184E-06 -2.94318116E-06 -1.02956286E-05 -4.19154589E-06  9.95705887E-01
  2.21955114E-02 -8.56127233E-04  1.73819855E-03  3.57574008E-04 -6.30310757E-03
  3.97635813E-04 -7.37984518E-04 -6.04497510E-04 -3.83946786E-04  2.28452547E-04
  1.29423170E-04  1.22143820E-04  9.32649402E-05 -2.33379163E-04  2.90497869E-04
 -3.11064246E-05 -4.00630207E-05 -6.80737223E-05 -1.08118750E-03  1.22194684E-04
  2.06315393E-04  7.06754561E-04 -1.22208824E-04 -1.68932610E-05 -1.25948930E-05
 -2.23053629E-06  1.49928722E-06  7.57499011E-06 -1.68651223E-05  1.65914836E-06
 -9.46804881E-06  1.40252712E-06  3.01212354E-05 -1.77536111E-05  3.42313967E-05
 -4.32741690E-05 -6.43582387E-06  6.65938631E-06  3.59071807E-06 -1.99395980E-06