#INFO: **** input file is /home/liwei01/wsr/dftpart/test_2body/w32/gfea_c8.py ****
from dftpart import gfea3
from pyscf import lib

par = 8
with lib.with_omp_threads(par):
    fr0 = gfea3.GFEA()
    fr0.inputstyle = 'frg'
    fr0.method = ['hf', '6-31gss','charge']
    fr0.gjfname = 'w32'
    fr0.output = 'w32'
    fr0.verbose = 9
    fr0.showinter = True
    #fr0.do_deriv = True
    fr0.kernel()

#INFO: ******************** input file end ********************


System: uname_result(system='Linux', node='master', release='3.10.0-693.el7.x86_64', version='#1 SMP Tue Aug 22 21:09:27 UTC 2017', machine='x86_64', processor='x86_64')  Threads 8
Python 3.7.6 (default, Jan  8 2020, 19:59:22) 
[GCC 7.3.0]
numpy 1.18.1  scipy 1.4.1
Date: Tue Jun 16 20:58:42 2020
PySCF version 1.6.1
PySCF path  /home/liwei01/zcheng/pyscf/pyscf
GIT HEAD      ref: refs/heads/master
GIT master branch  3adc7fd25839fe674469a52b764c3661e32d7318

[CONFIG] DEBUG = False
[CONFIG] MAX_MEMORY = 4000
[CONFIG] TMPDIR = .
[CONFIG] UNIT = angstrom
[CONFIG] VERBOSE = 3
[CONFIG] conf_file = None
[INPUT] verbose = 9
[INPUT] max_memory = 4000 
[INPUT] num. atoms = 12
[INPUT] num. electrons = 40
[INPUT] charge = 0
[INPUT] spin (= nelec alpha-beta = 2S) = 0
[INPUT] symmetry False subgroup None
[INPUT] Mole.unit = angstrom
[INPUT]  1 O     10.706017000000 -10.848862000000 -10.091512000000 AA   20.231440014938 -20.501377943201 -19.070193862762 Bohr
[INPUT]  2 O     13.457564000000 -11.773284000000  -9.774029000000 AA   25.431110263806 -22.248282346724 -18.470237943557 Bohr
[INPUT]  3 O     11.471495000000 -15.355316000000  -7.518016000000 AA   21.677983789317 -29.017341796152 -14.206991240098 Bohr
[INPUT]  4 O     12.813764000000 -13.018467000000  -7.366324000000 AA   24.214504584811 -24.601337191688 -13.920334904811 Bohr
[INPUT]  5 H     11.521407000000 -11.320280000000  -9.920812000000 AA   21.772303799647 -21.392228853391 -18.747617613299 Bohr
[INPUT]  6 H     10.567797000000 -10.316883000000  -9.307849000000 AA   19.970242070000 -19.496083329181 -17.589285418807 Bohr
[INPUT]  7 H     13.908886000000 -10.996207000000 -10.103715000000 AA   26.283985237797 -20.779819639025 -19.093254190660 Bohr
[INPUT]  8 H     14.150775000000 -12.423635000000  -9.661183000000 AA   26.741089200342 -23.477267621561 -18.256989909304 Bohr
[INPUT]  9 H     10.864403000000 -15.355750000000  -8.258065000000 AA   20.530746176903 -29.018161937290 -15.605481168856 Bohr
[INPUT] 10 H     11.907538000000 -14.504542000000  -7.565812000000 AA   22.501985637851 -27.409611942251 -14.297312589948 Bohr
[INPUT] 11 H     12.481900000000 -12.417138000000  -6.699613000000 AA   23.587372514209 -23.464990070930 -12.660433710576 Bohr
[INPUT] 12 H     12.655150000000 -12.568166000000  -8.195965000000 AA   23.914767565290 -23.750391628070 -15.488129176521 Bohr
[INPUT] ---------------- BASIS SET ---------------- 
[INPUT] l, kappa, [nprim/nctr], expnt,             c_1 c_2 ...
[INPUT] H
[INPUT] 0    0    [3    /1   ]  18.731137         0.0334946
                                2.8253937         0.23472695
                                0.6401217         0.81375733
[INPUT] 0    0    [1    /1   ]  0.1612778            1
[INPUT] 1    0    [1    /1   ]  1.1                  1
[INPUT] O
[INPUT] 0    0    [6    /1   ]  5484.6717         0.0018311
                                825.23495         0.0139501
                                188.04696         0.0684451
                                52.9645           0.2327143
                                16.89757          0.470193
                                5.7996353         0.3585209
[INPUT] 0    0    [3    /1   ]  15.539616         -0.1107775
                                3.5999336         -0.1480263
                                1.0137618         1.130767
[INPUT] 0    0    [1    /1   ]  0.2700058            1
[INPUT] 1    0    [3    /1   ]  15.539616         0.0708743
                                3.5999336         0.3397528
                                1.0137618         0.7271586
[INPUT] 1    0    [1    /1   ]  0.2700058            1
[INPUT] 2    0    [1    /1   ]  0.8                  1

nuclear repulsion = 129.21114474763
number of shells = 48
number of NR pGTOs = 164
number of NR cGTOs = 96
basis = 6-31gss
ecp = {}
bas 0, expnt(s) = [5484.6717     825.23495    188.04696     52.9645      16.89757
    5.7996353]
bas 1, expnt(s) = [15.539616   3.5999336  1.0137618]
bas 2, expnt(s) = [0.2700058]
bas 3, expnt(s) = [15.539616   3.5999336  1.0137618]
bas 4, expnt(s) = [0.2700058]
bas 5, expnt(s) = [0.8]
bas 6, expnt(s) = [5484.6717     825.23495    188.04696     52.9645      16.89757
    5.7996353]
bas 7, expnt(s) = [15.539616   3.5999336  1.0137618]
bas 8, expnt(s) = [0.2700058]
bas 9, expnt(s) = [15.539616   3.5999336  1.0137618]
bas 10, expnt(s) = [0.2700058]
bas 11, expnt(s) = [0.8]
bas 12, expnt(s) = [5484.6717     825.23495    188.04696     52.9645      16.89757
    5.7996353]
bas 13, expnt(s) = [15.539616   3.5999336  1.0137618]
bas 14, expnt(s) = [0.2700058]
bas 15, expnt(s) = [15.539616   3.5999336  1.0137618]
bas 16, expnt(s) = [0.2700058]
bas 17, expnt(s) = [0.8]
bas 18, expnt(s) = [5484.6717     825.23495    188.04696     52.9645      16.89757
    5.7996353]
bas 19, expnt(s) = [15.539616   3.5999336  1.0137618]
bas 20, expnt(s) = [0.2700058]
bas 21, expnt(s) = [15.539616   3.5999336  1.0137618]
bas 22, expnt(s) = [0.2700058]
bas 23, expnt(s) = [0.8]
bas 24, expnt(s) = [18.731137   2.8253937  0.6401217]
bas 25, expnt(s) = [0.1612778]
bas 26, expnt(s) = [1.1]
bas 27, expnt(s) = [18.731137   2.8253937  0.6401217]
bas 28, expnt(s) = [0.1612778]
bas 29, expnt(s) = [1.1]
bas 30, expnt(s) = [18.731137   2.8253937  0.6401217]
bas 31, expnt(s) = [0.1612778]
bas 32, expnt(s) = [1.1]
bas 33, expnt(s) = [18.731137   2.8253937  0.6401217]
bas 34, expnt(s) = [0.1612778]
bas 35, expnt(s) = [1.1]
bas 36, expnt(s) = [18.731137   2.8253937  0.6401217]
bas 37, expnt(s) = [0.1612778]
bas 38, expnt(s) = [1.1]
bas 39, expnt(s) = [18.731137   2.8253937  0.6401217]
bas 40, expnt(s) = [0.1612778]
bas 41, expnt(s) = [1.1]
bas 42, expnt(s) = [18.731137   2.8253937  0.6401217]
bas 43, expnt(s) = [0.1612778]
bas 44, expnt(s) = [1.1]
bas 45, expnt(s) = [18.731137   2.8253937  0.6401217]
bas 46, expnt(s) = [0.1612778]
bas 47, expnt(s) = [1.1]
CPU time:       864.63
arg.atm = [[ 8 20  1 23  0  0]
 [ 8 24  1 27  0  0]
 [ 8 28  1 31  0  0]
 [ 8 32  1 35  0  0]
 [ 1 36  1 39  0  0]
 [ 1 40  1 43  0  0]
 [ 1 44  1 47  0  0]
 [ 1 48  1 51  0  0]
 [ 1 52  1 55  0  0]
 [ 1 56  1 59  0  0]
 [ 1 60  1 63  0  0]
 [ 1 64  1 67  0  0]]
arg.bas = [[  0   0   6   1   0  78  84   0]
 [  0   0   3   1   0  90  93   0]
 [  0   0   1   1   0  96  97   0]
 [  0   1   3   1   0  98 101   0]
 [  0   1   1   1   0 104 105   0]
 [  0   2   1   1   0 106 107   0]
 [  1   0   6   1   0  78  84   0]
 [  1   0   3   1   0  90  93   0]
 [  1   0   1   1   0  96  97   0]
 [  1   1   3   1   0  98 101   0]
 [  1   1   1   1   0 104 105   0]
 [  1   2   1   1   0 106 107   0]
 [  2   0   6   1   0  78  84   0]
 [  2   0   3   1   0  90  93   0]
 [  2   0   1   1   0  96  97   0]
 [  2   1   3   1   0  98 101   0]
 [  2   1   1   1   0 104 105   0]
 [  2   2   1   1   0 106 107   0]
 [  3   0   6   1   0  78  84   0]
 [  3   0   3   1   0  90  93   0]
 [  3   0   1   1   0  96  97   0]
 [  3   1   3   1   0  98 101   0]
 [  3   1   1   1   0 104 105   0]
 [  3   2   1   1   0 106 107   0]
 [  4   0   3   1   0  68  71   0]
 [  4   0   1   1   0  74  75   0]
 [  4   1   1   1   0  76  77   0]
 [  5   0   3   1   0  68  71   0]
 [  5   0   1   1   0  74  75   0]
 [  5   1   1   1   0  76  77   0]
 [  6   0   3   1   0  68  71   0]
 [  6   0   1   1   0  74  75   0]
 [  6   1   1   1   0  76  77   0]
 [  7   0   3   1   0  68  71   0]
 [  7   0   1   1   0  74  75   0]
 [  7   1   1   1   0  76  77   0]
 [  8   0   3   1   0  68  71   0]
 [  8   0   1   1   0  74  75   0]
 [  8   1   1   1   0  76  77   0]
 [  9   0   3   1   0  68  71   0]
 [  9   0   1   1   0  74  75   0]
 [  9   1   1   1   0  76  77   0]
 [ 10   0   3   1   0  68  71   0]
 [ 10   0   1   1   0  74  75   0]
 [ 10   1   1   1   0  76  77   0]
 [ 11   0   3   1   0  68  71   0]
 [ 11   0   1   1   0  74  75   0]
 [ 11   1   1   1   0  76  77   0]]
arg.env = [ 1.37036000e+02  0.00000000e+00  0.00000000e+00  0.00000000e+00
  0.00000000e+00  0.00000000e+00  0.00000000e+00  0.00000000e+00
  0.00000000e+00  0.00000000e+00  0.00000000e+00  0.00000000e+00
  0.00000000e+00  0.00000000e+00  0.00000000e+00  0.00000000e+00
  0.00000000e+00  0.00000000e+00  0.00000000e+00  0.00000000e+00
  2.02314400e+01 -2.05013779e+01 -1.90701939e+01  0.00000000e+00
  2.54311103e+01 -2.22482823e+01 -1.84702379e+01  0.00000000e+00
  2.16779838e+01 -2.90173418e+01 -1.42069912e+01  0.00000000e+00
  2.42145046e+01 -2.46013372e+01 -1.39203349e+01  0.00000000e+00
  2.17723038e+01 -2.13922289e+01 -1.87476176e+01  0.00000000e+00
  1.99702421e+01 -1.94960833e+01 -1.75892854e+01  0.00000000e+00
  2.62839852e+01 -2.07798196e+01 -1.90932542e+01  0.00000000e+00
  2.67410892e+01 -2.34772676e+01 -1.82569899e+01  0.00000000e+00
  2.05307462e+01 -2.90181619e+01 -1.56054812e+01  0.00000000e+00
  2.25019856e+01 -2.74096119e+01 -1.42973126e+01  0.00000000e+00
  2.35873725e+01 -2.34649901e+01 -1.26604337e+01  0.00000000e+00
  2.39147676e+01 -2.37503916e+01 -1.54881292e+01  0.00000000e+00
  1.87311370e+01  2.82539370e+00  6.40121700e-01  7.61926220e-01
  1.29237100e+00  1.47131900e+00  1.61277800e-01  6.42977783e-01
  1.10000000e+00  3.28643653e+00  5.48467170e+03  8.25234950e+02
  1.88046960e+02  5.29645000e+01  1.68975700e+01  5.79963530e+00
  2.94842455e+00  5.42657124e+00  8.78126489e+00  1.15432129e+01
  9.90055015e+00  3.38516599e+00  1.55396160e+01  3.59993360e+00
  1.01376180e+00 -2.19051792e+00 -9.77405528e-01  2.88629094e+00
  2.70005800e-01  9.46334873e-01  1.55396160e+01  3.59993360e+00
  1.01376180e+00  6.37930734e+00  4.91490975e+00  2.15791055e+00
  2.70005800e-01  5.67807022e-01  8.00000000e-01  1.76578110e+00]
ecpbas  = []


******** <class 'pyscf.qmmm.itrf.mm_charge.<locals>.QMMM'> ********
method = QMMM-RHF
initial guess = minao
damping factor = 0
level shift factor = 0
DIIS = <class 'pyscf.scf.diis.CDIIS'>
DIIS start cycle = 1
DIIS space = 8
SCF tol = 1e-09
SCF gradient tol = None
max. SCF cycles = 50
direct_scf = True
direct_scf_tol = 1e-13
chkfile to save SCF result = /home/liwei01/wsr/dftpart/test_2body/w32/tmpxbeumns6
max_memory 4000 MB (current use 299 MB)
** Add background charges for <class 'pyscf.scf.hf.RHF'> **
Charge      Location
-1.056075    [ 15.8591958  -22.32322322 -21.16584533]
0.523264    [ 15.44903263 -23.69303655 -20.05800473]
0.517699    [ 17.48403712 -21.75849557 -20.60647128]
-1.009926    [ 16.42785407 -26.58707085 -18.04142885]
0.499922    [ 15.53371882 -25.95112132 -16.60336995]
0.507893    [ 16.16245338 -28.37548309 -17.98600129]
-1.024266    [ 13.70105109 -18.63199472 -24.76194313]
0.515186    [ 13.45609723 -19.31578456 -26.41855264]
0.515422    [ 13.87339411 -20.08163576 -23.69387937]
-1.050024    [ 10.52651529 -24.11298283 -20.2839555 ]
0.521386    [  8.7734466  -24.2410798  -19.85703047]
0.506414    [ 11.30765248 -23.44237383 -18.79666545]
-1.032359    [ 13.1641969  -17.47579981 -19.41562257]
0.514165    [ 13.18112696 -18.60438393 -20.82910748]
0.518479    [ 14.52136419 -16.32434621 -19.73837456]
-1.052762    [ 13.11969196 -22.35429031 -15.81898054]
0.521035    [ 14.16458201 -22.84877684 -14.42771692]
0.525545    [ 13.80909996 -20.77345693 -16.36451423]
-1.002885    [ 18.40539199 -27.51482622 -24.72543362]
0.521542    [ 17.83274639 -26.30664305 -23.50711585]
0.49877    [ 20.13069872 -27.06649815 -25.03241585]
-1.054902    [ 19.05772167 -18.14703431 -25.87868434]
0.517977    [ 18.59105569 -18.66655214 -27.54728983]
0.522623    [ 17.51229609 -18.19498233 -24.93991564]
-0.997115    [ 17.90283445 -15.11249509 -20.63210731]
0.530073    [ 18.89257472 -16.62132612 -20.50652934]
0.49195    [ 18.18557149 -14.25298717 -19.06582671]
-1.032188    [ 15.97118286 -20.09833149 -29.6421136 ]
0.47982    [ 15.3540909  -19.66610766 -31.28659296]
0.534069    [ 17.50300052 -21.00734455 -29.95701189]
-0.992133    [  7.63287216 -21.21078113 -24.19682809]
0.480184    [  8.55071592 -22.76668147 -24.10379498]
0.504586    [  8.37549106 -20.32880248 -25.59058803]
-1.012936    [ 10.55365553 -29.46492154 -21.67488842]
0.504954    [  8.84108934 -29.00412127 -22.03084479]
0.525721    [ 11.34418277 -27.91794449 -21.17105153]
-0.985176    [ 16.63195772 -23.48150439 -12.27810621]
0.500614    [ 17.11266814 -22.20236011 -11.09293235]
0.508291    [ 16.89319913 -25.03868407 -11.39557387]
-0.979947    [ 19.94097588 -17.12125506 -14.67509908]
0.500341    [ 18.95312155 -17.86288753 -13.35371942]
0.493696    [ 19.00620207 -15.6543646  -15.17143564]
-0.982261    [ 16.04742575 -26.75780005 -29.6895325 ]
0.479882    [ 16.71262824 -28.42851069 -29.88488293]
0.495008    [ 16.8532352  -26.12000803 -28.20097066]
-0.983713    [ 20.17321188 -22.53529584 -29.89394228]
0.505479    [ 21.06170253 -23.16751127 -28.4507471 ]
0.512532    [ 20.35114661 -23.83370776 -31.14069287]
-1.011239    [ 14.66303696 -31.18986921 -25.03135193]
0.492592    [ 13.80996545 -30.6346091  -23.53606456]
0.497341    [ 16.13314373 -30.14067248 -25.13086491]
-1.016163    [ 10.56617686 -29.35403808 -16.44102735]
0.483053    [ 11.92280935 -30.36927076 -15.8079521 ]
0.523726    [ 10.34862781 -29.90290525 -18.15080431]
-0.976012    [ 10.09067452 -21.18806662 -29.24260093]
0.486289    [ 11.11173701 -19.76402949 -29.69146191]
0.496485    [ 10.37375928 -22.38512875 -30.56881072]
-0.977833    [ 24.5589393  -27.80514674 -21.18389789]
0.50587    [ 23.21796885 -28.65180829 -20.31390388]
0.463809    [ 25.76766104 -27.42438582 -19.8931866 ]
-0.989717    [  8.77070649 -15.37911655 -23.94499373]
0.487556    [  8.68859978 -13.74216775 -23.17975481]
0.496916    [ 10.53805395 -15.75730555 -24.01835668]
-0.992057    [ 16.93410036 -32.15697813 -17.52810554]
0.50918    [ 16.39069828 -32.53931319 -15.84570882]
0.510293    [ 15.6895513  -32.92540692 -18.59231236]
-0.998393    [ 24.35861321 -18.31258187 -25.98586582]
0.466984    [ 25.48944989 -18.60606579 -24.60492389]
0.51604    [ 22.70911474 -18.4111103  -25.25008395]
-1.010464    [  9.27281806 -14.9477601  -17.25327322]
0.476424    [  7.6789399  -15.16789619 -18.07972415]
0.517552    [ 10.24747455 -16.38576609 -17.75736144]
-0.991473    [  5.5836248  -24.00414405 -18.66237963]
0.501887    [  5.79022289 -25.52045085 -17.69798247]
0.510487    [  5.17491673 -22.73885336 -17.43603619]
-1.029267    [  7.95719829 -25.19119252 -14.2761212 ]
0.497876    [  9.38018663 -24.0850659  -14.1227926 ]
0.519667    [  8.66153702 -26.76190075 -14.83174226]
-1.001943    [ 16.13613705 -11.83176802 -24.46883904]
0.509813    [ 16.78082846 -12.94299123 -23.1954641 ]
0.477312    [ 17.5304658  -11.57071369 -25.59117007]
-1.001922    [ 21.40011279 -32.14724982 -20.33868764]
0.487648    [ 22.14106118 -33.75675602 -19.97480576]
0.509505    [ 19.73399418 -32.24696878 -19.64152988]
Set gradient conv threshold to 3.16228e-05
Nelec from initial guess = 39.95214281981006
cond(S) = 186.40052281670413
E1 = -672.6704588421726  E_coul = 238.31439163680977
init E= -303.538710251181
    CPU time for initialize scf      1.13 sec, wall time      0.15 sec
  HOMO = -0.497468767127399  LUMO = 0.0371364928165108
  mo_energy =
[-20.87726202 -20.8503732  -20.83895387 -20.82652159  -1.70749634
  -1.68843577  -1.6566868   -1.63023701  -0.8255929   -0.82013328
  -0.8123928   -0.76334961  -0.67761138  -0.65148041  -0.62567646
  -0.60390428  -0.54978675  -0.52675496  -0.51877516  -0.49746877
   0.03713649   0.10583662   0.13578395   0.14266029   0.1976605
   0.22600479   0.27611347   0.31668718   0.87506763   0.88501177
   0.8989711    0.90924301   0.93070521   0.94663853   0.95249715
   0.9757463    0.99108531   1.00943421   1.0279331    1.04065855
   1.0825563    1.09646407   1.13836879   1.17530417   1.19832196
   1.22052286   1.24289566   1.25736615   1.43343827   1.55591819
   1.58310059   1.6445929    1.65249749   1.66035183   1.66862314
   1.67491514   1.69592398   1.72513242   1.73909161   1.74654936
   1.77688673   1.7986467    1.85282046   1.92923928   2.44529852
   2.44899231   2.4822101    2.49067957   2.51422896   2.52212269
   2.56496544   2.59221727   2.67591976   2.70273474   2.72751026
   2.79815888   2.8471744    2.86255833   2.87485265   2.88662872
   2.90809759   2.91337531   2.94542252   3.01168177   3.26953286
   3.28525461   3.29187544   3.33761136   3.66064181   3.67032437
   3.68139652   3.70988495   3.81687792   3.84889685   3.86985674
   3.90369002]
E1 = -682.0811552921901  E_coul = 247.2624812938731
cycle= 1 E= -304.001317044135  delta_E= -0.463  |g|= 0.856  |ddm|= 2.37
    CPU time for cycle= 1      0.16 sec, wall time      0.02 sec
diis-norm(errvec)=1.53498
diis-c [-2.35615083  1.        ]
  HOMO = -0.400082131678474  LUMO = 0.124012850752899
  mo_energy =
[-20.48357522 -20.42960611 -20.35203096 -20.27979999  -1.39937483
  -1.3596098   -1.31873552  -1.25301717  -0.78152138  -0.73718612
  -0.70449581  -0.65724399  -0.62515619  -0.56935567  -0.54361381
  -0.54119926  -0.50942108  -0.46774919  -0.45752738  -0.40008213
   0.12401285   0.18319018   0.22067669   0.23270106   0.2506807
   0.31123548   0.40630886   0.47228931   0.91784856   0.96996402
   0.98408274   1.00393233   1.02091336   1.03999162   1.08340691
   1.10147209   1.14208587   1.17069625   1.18251832   1.18730877
   1.25529041   1.2711745    1.2939159    1.31822577   1.33126865
   1.34287536   1.38711664   1.4006445    1.52834763   1.67594834
   1.69283216   1.72737804   1.76515153   1.77060732   1.7915505
   1.80612396   1.81758368   1.86212063   1.87828009   1.91201745
   1.9371351    1.98590699   2.00928394   2.03565429   2.44759558
   2.49380832   2.52697323   2.5311885    2.57154356   2.62662469
   2.64027365   2.72888867   2.75924926   2.78615848   2.82522964
   2.86925278   2.89093486   2.89858689   2.94923431   2.98976059
   2.99714867   3.00256076   3.06642999   3.06842614   3.29857899
   3.35181936   3.35616785   3.42858749   3.67680424   3.73509005
   3.76077664   3.82352368   3.88547069   3.94462552   4.01628161
   4.055266  ]
E1 = -676.2368353872159  E_coul = 241.30902433013912
cycle= 2 E= -304.110454102895  delta_E= -0.109  |g|= 0.411  |ddm|= 0.683
    CPU time for cycle= 2      0.16 sec, wall time      0.02 sec
diis-norm(errvec)=0.688354
diis-c [-0.11166541  0.28657748  0.71342252]
  HOMO = -0.500275922303858  LUMO = 0.121714244510774
  mo_energy =
[-20.67477012 -20.64496615 -20.64013325 -20.57869631  -1.44701709
  -1.41734873  -1.40264143  -1.34520987  -0.81591316  -0.78147182
  -0.76456722  -0.72547073  -0.68056488  -0.63770134  -0.63128654
  -0.59787089  -0.58727757  -0.55991062  -0.54568976  -0.50027592
   0.12171424   0.18152533   0.21489302   0.23144886   0.24032405
   0.30004057   0.38372855   0.44034729   0.90802748   0.95062851
   0.96681957   0.99493128   1.00566918   1.01866639   1.04197503
   1.06677419   1.09041448   1.10487271   1.12423263   1.13526482
   1.18068586   1.20116444   1.239339     1.27521242   1.28244117
   1.29562215   1.33515967   1.33671592   1.49256822   1.63552108
   1.65841902   1.70297124   1.72778199   1.73473391   1.75758223
   1.76206268   1.77609175   1.81316536   1.83191166   1.85636164
   1.88489478   1.92295669   1.9548312    1.99349762   2.45602808
   2.47935586   2.51831512   2.53099452   2.55602106   2.59049832
   2.60914484   2.70631307   2.71219051   2.76275266   2.7816011
   2.85560738   2.88193107   2.8985985    2.93109406   2.95199114
   2.96856293   2.97853145   3.03218454   3.04539434   3.2934729
   3.32748918   3.34600818   3.39360867   3.66842589   3.71293996
   3.73319075   3.7846664    3.86027046   3.90523643   3.97117603
   3.99165879]
E1 = -678.833435374824  E_coul = 243.8762363360355
cycle= 3 E= -304.139842084606  delta_E= -0.0294  |g|= 0.0596  |ddm|= 0.267
    CPU time for cycle= 3      0.15 sec, wall time      0.02 sec
diis-norm(errvec)=0.110234
diis-c [-0.00589026 -0.02636142  0.06010659  0.96625483]
  HOMO = -0.490664542913583  LUMO = 0.128672638528975
  mo_energy =
[-20.6465394  -20.61591289 -20.60255238 -20.54395845  -1.43268768
  -1.40415673  -1.38786442  -1.33288796  -0.80249701  -0.76899285
  -0.75180356  -0.71516402  -0.6695886   -0.62774117  -0.62070183
  -0.586795    -0.57762123  -0.54802821  -0.53650181  -0.49066454
   0.12867264   0.18823286   0.2213703    0.2390545    0.24565022
   0.30730459   0.39121029   0.44717207   0.91766236   0.95876714
   0.97511711   1.00535664   1.01606589   1.02748931   1.05245108
   1.07609036   1.09899336   1.11503864   1.13226326   1.14470416
   1.18927752   1.20771135   1.24888484   1.28648143   1.29250927
   1.30556208   1.34417413   1.34677036   1.50420985   1.64594543
   1.66996153   1.71537628   1.73843454   1.74627832   1.76786735
   1.77344858   1.7870236    1.82274301   1.84232043   1.86623771
   1.89515475   1.93160341   1.96352543   2.00345836   2.46854491
   2.49144669   2.52986276   2.54146065   2.56551715   2.60192962
   2.61900661   2.71677182   2.72490608   2.77519758   2.79383194
   2.86648341   2.89299652   2.91111607   2.94195918   2.96184435
   2.97804325   2.98774316   3.03947115   3.05526457   3.30515125
   3.33752678   3.35690064   3.4011707    3.68413217   3.72692402
   3.74723329   3.79719481   3.87383458   3.91756358   3.98275474
   4.001388  ]
E1 = -678.5450204127479  E_coul = 243.58700119709115
cycle= 4 E= -304.140662261475  delta_E= -0.00082  |g|= 0.00998  |ddm|= 0.0393
    CPU time for cycle= 4      0.16 sec, wall time      0.02 sec
diis-norm(errvec)=0.0205942
diis-c [-1.13269796e-04 -9.32223761e-03 -3.93851678e-02 -1.58885858e-01
  1.20759326e+00]
  HOMO = -0.492437234215352  LUMO = 0.128880459647044
  mo_energy =
[-20.64723004 -20.61699046 -20.60567354 -20.54630513  -1.43264019
  -1.40460366  -1.3891999   -1.3342626   -0.80180294  -0.7688972
  -0.75208611  -0.7158041   -0.66961338  -0.62807555  -0.62141192
  -0.58736177  -0.57844269  -0.54972674  -0.53791005  -0.49243723
   0.12888046   0.18835097   0.22124518   0.23980699   0.24533941
   0.30745281   0.39136391   0.44699386   0.91801598   0.95855156
   0.97505304   1.00546136   1.01581359   1.02746701   1.05201593
   1.0755611    1.09853802   1.11396054   1.13175123   1.14435115
   1.1884648    1.20695243   1.24898831   1.28626623   1.29248316
   1.30532505   1.34378162   1.34634827   1.50406336   1.64566046
   1.66991543   1.71569641   1.73826901   1.74616742   1.76759143
   1.77313936   1.78692651   1.82199144   1.84204754   1.86562207
   1.89464528   1.93076272   1.96309472   2.0033773    2.46932824
   2.49201081   2.53020522   2.54134      2.56543306   2.60143957
   2.61897827   2.7163282    2.72543376   2.77572736   2.79360168
   2.86703814   2.89347676   2.91209534   2.94169324   2.96153242
   2.97790499   2.98735429   3.03911423   3.05533506   3.30599208
   3.33741459   3.3575733    3.40079154   3.68509011   3.72685767
   3.7470968    3.79671783   3.87469156   3.91783492   3.98281227
   4.00096646]
E1 = -678.5582022977076  E_coul = 243.6001381178172
cycle= 5 E= -304.140707225708  delta_E= -4.5e-05  |g|= 0.00183  |ddm|= 0.013
    CPU time for cycle= 5      0.16 sec, wall time      0.02 sec
diis-norm(errvec)=0.00344186
diis-c [-4.70514398e-06  2.74795490e-03  8.86954564e-03  8.30353282e-03
 -2.51567135e-01  1.23164610e+00]
  HOMO = -0.492764064300987  LUMO = 0.128816757885307
  mo_energy =
[-20.64733205 -20.61738605 -20.60468767 -20.54647584  -1.43276253
  -1.40480535  -1.38891483  -1.33444409  -0.80176908  -0.76882142
  -0.75184486  -0.71591272  -0.66968946  -0.62821083  -0.62134518
  -0.58762751  -0.57871032  -0.54956188  -0.53830582  -0.49276406
   0.12881676   0.18830423   0.2212769    0.23982905   0.24528737
   0.30745849   0.39133396   0.44681225   0.91788876   0.95853146
   0.97493901   1.00529747   1.01572696   1.02733024   1.05201029
   1.07540197   1.09839041   1.11403995   1.13167732   1.14420767
   1.18822602   1.20673746   1.24896032   1.28615694   1.29240276
   1.30510037   1.34364793   1.34635327   1.5040375    1.64556685
   1.66985652   1.71557411   1.73809354   1.74618188   1.76742459
   1.77312983   1.78682413   1.82179677   1.84197773   1.86555942
   1.89465193   1.93056431   1.96292468   2.0032771    2.46923402
   2.49187099   2.5300795    2.54131656   2.56527015   2.60153433
   2.61880671   2.71614234   2.72531622   2.77556482   2.7936693
   2.86689631   2.89335335   2.91200636   2.94179375   2.96131662
   2.97790397   2.98725128   3.03886229   3.05519434   3.30588038
   3.33746405   3.35743727   3.40058145   3.68497155   3.72682879
   3.74710392   3.79657181   3.87457768   3.91777485   3.98276768
   4.00072787]
E1 = -678.5555053097406  E_coul = 243.59743945482344
cycle= 6 E= -304.140708900735  delta_E= -1.68e-06  |g|= 0.000543  |ddm|= 0.00289
    CPU time for cycle= 6      0.16 sec, wall time      0.02 sec
diis-norm(errvec)=0.0010008
diis-c [-5.75760648e-07  8.47010511e-04  3.27464927e-03  6.29941482e-03
 -8.83161587e-02  1.76453195e-01  9.01441889e-01]
  HOMO = -0.492761956784761  LUMO = 0.128833216997526
  mo_energy =
[-20.64713271 -20.61701577 -20.60513837 -20.54631353  -1.43269218
  -1.4046968   -1.38907023  -1.33441328  -0.80167695  -0.76876974
  -0.75187332  -0.71586597  -0.66967074  -0.62817134  -0.62143839
  -0.58757501  -0.57867444  -0.54974514  -0.53826153  -0.49276196
   0.12883322   0.18833064   0.22126323   0.23986625   0.24528677
   0.30746705   0.39133843   0.44683941   0.91792863   0.95850219
   0.97495229   1.00533138   1.01572946   1.02735378   1.05196172
   1.07540529   1.09839374   1.11392725   1.13165876   1.14423508
   1.18825511   1.20674713   1.24898309   1.28618511   1.29243832
   1.30515449   1.34368398   1.34634      1.5040588    1.64559222
   1.66986923   1.71561188   1.73814082   1.7461428    1.7674544
   1.77309989   1.78684034   1.82180983   1.84197049   1.86553751
   1.89461251   1.93057711   1.96295767   2.00330064   2.46926817
   2.49191886   2.53011914   2.54129636   2.56528905   2.60143993
   2.61883354   2.71615264   2.72535792   2.77562562   2.79359238
   2.86694084   2.89339366   2.9120528    2.94172737   2.96135005
   2.97785319   2.98723956   3.03888733   3.05522978   3.30592749
   3.33740135   3.3574873    3.40058774   3.68503122   3.72682542
   3.74708196   3.79658769   3.87462801   3.91777808   3.98275362
   4.0007495 ]
E1 = -678.5545453798263  E_coul = 243.59647943179067
cycle= 7 E= -304.140708993853  delta_E= -9.31e-08  |g|= 0.000177  |ddm|= 0.00061
    CPU time for cycle= 7      0.17 sec, wall time      0.02 sec
diis-norm(errvec)=0.000302255
diis-c [-1.91722006e-08 -2.11986099e-04 -5.64246389e-04 -8.76833027e-04
  1.93308735e-02 -1.24567039e-01  1.21245387e-01  9.85643844e-01]
  HOMO = -0.492787184307289  LUMO = 0.12883658357515
  mo_energy =
[-20.64714769 -20.6170884  -20.60498727 -20.54633062  -1.43269378
  -1.40472184  -1.38902441  -1.33442892  -0.80166765  -0.76876153
  -0.75184472  -0.71587608  -0.66967025  -0.62817915  -0.62141668
  -0.58759267  -0.57869574  -0.54970543  -0.53829503  -0.49278718
   0.12883658   0.18833123   0.22127056   0.23987744   0.24528013
   0.30747143   0.3913475    0.44683497   0.91793269   0.95851534
   0.97495447   1.00533337   1.01573451   1.02735414   1.05197513
   1.07539935   1.09839273   1.11395698   1.13166477   1.14423193
   1.18824195   1.20673598   1.24899258   1.28618601   1.29244117
   1.30514481   1.34367803   1.34635157   1.50406693   1.64559178
   1.66987647   1.71561495   1.73813111   1.74616011   1.76744762
   1.77311213   1.78684246   1.82179719   1.84197498   1.86554225
   1.89462548   1.9305652    1.96294996   2.00330238   2.46927979
   2.4919216    2.53011874   2.54130367   2.56528446   2.60146789
   2.61882779   2.71614171   2.72536334   2.77562276   2.79361894
   2.86694201   2.8933937    2.91206439   2.94174334   2.96134177
   2.9778727    2.98722776   3.03888062   3.05522573   3.30593373
   3.33742143   3.35748878   3.40057939   3.68504359   3.72683291
   3.74709312   3.7965777    3.87463535   3.91778822   3.98276409
   4.00074285]
E1 = -678.5544314998037  E_coul = 243.59636554228797
cycle= 8 E= -304.140709003334  delta_E= -9.48e-09  |g|= 2.1e-05  |ddm|= 0.000206
    CPU time for cycle= 8      0.16 sec, wall time      0.02 sec
diis-norm(errvec)=3.95223e-05
diis-c [-7.11254858e-10 -2.59478251e-05 -9.83578744e-05 -2.35252596e-04
  2.79188286e-03 -4.55150330e-03 -3.64333445e-02 -1.33949093e-02
  1.05194743e+00]
  HOMO = -0.492788322864609  LUMO = 0.128837905837727
  mo_energy =
[-20.64713903 -20.61707673 -20.60498855 -20.54632975  -1.43269032
  -1.40471718  -1.38902339  -1.33442921  -0.80166303  -0.76875666
  -0.75184122  -0.71587458  -0.66966697  -0.62817632  -0.62141552
  -0.58758945  -0.57869463  -0.54970474  -0.53829378  -0.49278832
   0.12883791   0.18833236   0.22127186   0.23987896   0.24528043
   0.30747398   0.39134933   0.44683557   0.91793456   0.95851673
   0.97495567   1.00533412   1.01573648   1.02735477   1.0519762
   1.07539936   1.09839399   1.11395752   1.13166613   1.14423324
   1.18824228   1.20673601   1.24899527   1.2861887    1.29244432
   1.30514726   1.34367893   1.34635364   1.50406928   1.64559413
   1.66987873   1.7156174    1.73813339   1.74616192   1.76744899
   1.77311394   1.78684437   1.82179702   1.84197663   1.86554309
   1.89462704   1.93056447   1.96295118   2.00330469   2.46928169
   2.49192452   2.53012213   2.54130571   2.56528562   2.60146905
   2.61882933   2.71614218   2.72536583   2.77562639   2.79362051
   2.86694429   2.89339589   2.91206586   2.94174521   2.96134226
   2.97787382   2.98722833   3.03887983   3.05522895   3.30593656
   3.33742307   3.35749214   3.40057888   3.68504523   3.72683576
   3.74709555   3.79657852   3.87463842   3.91779113   3.98276686
   4.00074196]
E1 = -678.5544064748916  E_coul = 243.59634051717742
cycle= 9 E= -304.140709003532  delta_E= -1.98e-10  |g|= 5.68e-06  |ddm|= 3.16e-05
    CPU time for cycle= 9      0.16 sec, wall time      0.02 sec
  HOMO = -0.492787489269291  LUMO = 0.128837945220961
  mo_energy =
[-20.64714122 -20.61707794 -20.60498992 -20.54632803  -1.4326907
  -1.4047174   -1.38902361  -1.33442853  -0.80166333  -0.76875685
  -0.75184148  -0.71587415  -0.66966748  -0.62817638  -0.62141589
  -0.58758964  -0.57869453  -0.54970465  -0.53829351  -0.49278749
   0.12883795   0.18833231   0.22127173   0.23987894   0.24528011
   0.30747384   0.39134934   0.44683591   0.91793446   0.9585166
   0.97495559   1.00533415   1.01573638   1.02735467   1.0519759
   1.07539941   1.09839386   1.11395747   1.13166615   1.1442333
   1.18824254   1.20673638   1.2489951    1.28618842   1.29244408
   1.30514715   1.34367905   1.34635349   1.50406908   1.64559409
   1.66987864   1.71561727   1.73813345   1.74616173   1.76744912
   1.77311382   1.78684433   1.8217973    1.84197661   1.86554321
   1.89462697   1.93056493   1.96295138   2.00330464   2.46928173
   2.49192438   2.53012205   2.54130552   2.56528563   2.60146885
   2.61882934   2.71614219   2.72536569   2.77562625   2.79362026
   2.86694433   2.89339592   2.91206586   2.9417449    2.96134261
   2.97787374   2.9872279    3.03888043   3.05522912   3.30593651
   3.33742286   3.35749212   3.40057911   3.68504508   3.72683554
   3.74709528   3.79657845   3.87463816   3.91779096   3.98276673
   4.00074254]
E1 = -678.554419249873  E_coul = 243.59635329214174
Extra cycle  E= -304.140709003549  delta_E= -1.71e-11  |g|= 2.66e-06  |ddm|= 8.51e-06
    CPU time for scf_cycle      2.72 sec, wall time      0.35 sec
    CPU time for SCF      2.75 sec, wall time      0.37 sec
converged SCF energy = -304.140709003549
