#INFO: **** input file is /home/liwei01/wsr/dftpart/test_2body/w32/gfea_c8.py ****
from dftpart import gfea3
from pyscf import lib

par = 8
with lib.with_omp_threads(par):
    fr0 = gfea3.GFEA()
    fr0.inputstyle = 'frg'
    fr0.method = ['hf', '6-31gss','charge']
    fr0.gjfname = 'w32'
    fr0.output = 'w32'
    fr0.verbose = 9
    fr0.showinter = True
    #fr0.do_deriv = True
    fr0.kernel()

#INFO: ******************** input file end ********************


System: uname_result(system='Linux', node='master', release='3.10.0-693.el7.x86_64', version='#1 SMP Tue Aug 22 21:09:27 UTC 2017', machine='x86_64', processor='x86_64')  Threads 8
Python 3.7.6 (default, Jan  8 2020, 19:59:22) 
[GCC 7.3.0]
numpy 1.18.1  scipy 1.4.1
Date: Tue Jun 16 20:58:11 2020
PySCF version 1.6.1
PySCF path  /home/liwei01/zcheng/pyscf/pyscf
GIT HEAD      ref: refs/heads/master
GIT master branch  3adc7fd25839fe674469a52b764c3661e32d7318

[CONFIG] DEBUG = False
[CONFIG] MAX_MEMORY = 4000
[CONFIG] TMPDIR = .
[CONFIG] UNIT = angstrom
[CONFIG] VERBOSE = 3
[CONFIG] conf_file = None
[INPUT] verbose = 9
[INPUT] max_memory = 4000 
[INPUT] num. atoms = 15
[INPUT] num. electrons = 50
[INPUT] charge = 0
[INPUT] spin (= nelec alpha-beta = 2S) = 0
[INPUT] symmetry False subgroup None
[INPUT] Mole.unit = angstrom
[INPUT]  1 O      8.693246000000 -14.069272000000  -9.547113000000 AA   16.427854073471 -26.587070852012 -18.041428850275 Bohr
[INPUT]  2 O      5.584754000000 -15.592165000000 -11.469857000000 AA   10.553655533069 -29.464921539029 -21.674888417925 Bohr
[INPUT]  3 O      5.591380000000 -15.533488000000  -8.700217000000 AA   10.566176858371 -29.354038079218 -16.441027354285 Bohr
[INPUT]  4 O      8.961140000000 -17.016740000000  -9.275474000000 AA   16.934100363885 -32.156978132931 -17.528105535524 Bohr
[INPUT]  5 O      4.210768000000 -13.330605000000  -7.554598000000 AA    7.957198294083 -25.191192524758 -14.276121201187 Bohr
[INPUT]  6 H      8.220090000000 -13.732742000000  -8.786125000000 AA   15.533718819276 -25.951121319312 -16.603369946194 Bohr
[INPUT]  7 H      8.552802000000 -15.015659000000  -9.517782000000 AA   16.162453377632 -28.375483089860 -17.986001293315 Bohr
[INPUT]  8 H      4.678503000000 -15.348320000000 -11.658221000000 AA    8.841089342956 -29.004121272184 -22.030844789653 Bohr
[INPUT]  9 H      6.003083000000 -14.773540000000 -11.203238000000 AA   11.344182773032 -27.917944490307 -21.171051528320 Bohr
[INPUT] 10 H      6.309279000000 -16.070726000000  -8.365208000000 AA   11.922809353470 -30.369270762927 -15.807952095021 Bohr
[INPUT] 11 H      5.476258000000 -15.823936000000  -9.604992000000 AA   10.348627807458 -29.902905252646 -18.150804308638 Bohr
[INPUT] 12 H      8.673584000000 -17.219063000000  -8.385188000000 AA   16.390698278410 -32.539313191632 -15.845708822989 Bohr
[INPUT] 13 H      8.302553000000 -17.423375000000  -9.838628000000 AA   15.689551304686 -32.925406915594 -18.592312361477 Bohr
[INPUT] 14 H      4.963781000000 -12.745268000000  -7.473460000000 AA    9.380186632320 -24.085065904183 -14.122792602892 Bohr
[INPUT] 15 H      4.583488000000 -14.161788000000  -7.848620000000 AA    8.661537015230 -26.761900754152 -14.831742255784 Bohr
[INPUT] ---------------- BASIS SET ---------------- 
[INPUT] l, kappa, [nprim/nctr], expnt,             c_1 c_2 ...
[INPUT] H
[INPUT] 0    0    [3    /1   ]  18.731137         0.0334946
                                2.8253937         0.23472695
                                0.6401217         0.81375733
[INPUT] 0    0    [1    /1   ]  0.1612778            1
[INPUT] 1    0    [1    /1   ]  1.1                  1
[INPUT] O
[INPUT] 0    0    [6    /1   ]  5484.6717         0.0018311
                                825.23495         0.0139501
                                188.04696         0.0684451
                                52.9645           0.2327143
                                16.89757          0.470193
                                5.7996353         0.3585209
[INPUT] 0    0    [3    /1   ]  15.539616         -0.1107775
                                3.5999336         -0.1480263
                                1.0137618         1.130767
[INPUT] 0    0    [1    /1   ]  0.2700058            1
[INPUT] 1    0    [3    /1   ]  15.539616         0.0708743
                                3.5999336         0.3397528
                                1.0137618         0.7271586
[INPUT] 1    0    [1    /1   ]  0.2700058            1
[INPUT] 2    0    [1    /1   ]  0.8                  1

nuclear repulsion = 189.241314862052
number of shells = 60
number of NR pGTOs = 205
number of NR cGTOs = 120
basis = 6-31gss
ecp = {}
bas 0, expnt(s) = [5484.6717     825.23495    188.04696     52.9645      16.89757
    5.7996353]
bas 1, expnt(s) = [15.539616   3.5999336  1.0137618]
bas 2, expnt(s) = [0.2700058]
bas 3, expnt(s) = [15.539616   3.5999336  1.0137618]
bas 4, expnt(s) = [0.2700058]
bas 5, expnt(s) = [0.8]
bas 6, expnt(s) = [5484.6717     825.23495    188.04696     52.9645      16.89757
    5.7996353]
bas 7, expnt(s) = [15.539616   3.5999336  1.0137618]
bas 8, expnt(s) = [0.2700058]
bas 9, expnt(s) = [15.539616   3.5999336  1.0137618]
bas 10, expnt(s) = [0.2700058]
bas 11, expnt(s) = [0.8]
bas 12, expnt(s) = [5484.6717     825.23495    188.04696     52.9645      16.89757
    5.7996353]
bas 13, expnt(s) = [15.539616   3.5999336  1.0137618]
bas 14, expnt(s) = [0.2700058]
bas 15, expnt(s) = [15.539616   3.5999336  1.0137618]
bas 16, expnt(s) = [0.2700058]
bas 17, expnt(s) = [0.8]
bas 18, expnt(s) = [5484.6717     825.23495    188.04696     52.9645      16.89757
    5.7996353]
bas 19, expnt(s) = [15.539616   3.5999336  1.0137618]
bas 20, expnt(s) = [0.2700058]
bas 21, expnt(s) = [15.539616   3.5999336  1.0137618]
bas 22, expnt(s) = [0.2700058]
bas 23, expnt(s) = [0.8]
bas 24, expnt(s) = [5484.6717     825.23495    188.04696     52.9645      16.89757
    5.7996353]
bas 25, expnt(s) = [15.539616   3.5999336  1.0137618]
bas 26, expnt(s) = [0.2700058]
bas 27, expnt(s) = [15.539616   3.5999336  1.0137618]
bas 28, expnt(s) = [0.2700058]
bas 29, expnt(s) = [0.8]
bas 30, expnt(s) = [18.731137   2.8253937  0.6401217]
bas 31, expnt(s) = [0.1612778]
bas 32, expnt(s) = [1.1]
bas 33, expnt(s) = [18.731137   2.8253937  0.6401217]
bas 34, expnt(s) = [0.1612778]
bas 35, expnt(s) = [1.1]
bas 36, expnt(s) = [18.731137   2.8253937  0.6401217]
bas 37, expnt(s) = [0.1612778]
bas 38, expnt(s) = [1.1]
bas 39, expnt(s) = [18.731137   2.8253937  0.6401217]
bas 40, expnt(s) = [0.1612778]
bas 41, expnt(s) = [1.1]
bas 42, expnt(s) = [18.731137   2.8253937  0.6401217]
bas 43, expnt(s) = [0.1612778]
bas 44, expnt(s) = [1.1]
bas 45, expnt(s) = [18.731137   2.8253937  0.6401217]
bas 46, expnt(s) = [0.1612778]
bas 47, expnt(s) = [1.1]
bas 48, expnt(s) = [18.731137   2.8253937  0.6401217]
bas 49, expnt(s) = [0.1612778]
bas 50, expnt(s) = [1.1]
bas 51, expnt(s) = [18.731137   2.8253937  0.6401217]
bas 52, expnt(s) = [0.1612778]
bas 53, expnt(s) = [1.1]
bas 54, expnt(s) = [18.731137   2.8253937  0.6401217]
bas 55, expnt(s) = [0.1612778]
bas 56, expnt(s) = [1.1]
bas 57, expnt(s) = [18.731137   2.8253937  0.6401217]
bas 58, expnt(s) = [0.1612778]
bas 59, expnt(s) = [1.1]
CPU time:       779.96
arg.atm = [[ 8 20  1 23  0  0]
 [ 8 24  1 27  0  0]
 [ 8 28  1 31  0  0]
 [ 8 32  1 35  0  0]
 [ 8 36  1 39  0  0]
 [ 1 40  1 43  0  0]
 [ 1 44  1 47  0  0]
 [ 1 48  1 51  0  0]
 [ 1 52  1 55  0  0]
 [ 1 56  1 59  0  0]
 [ 1 60  1 63  0  0]
 [ 1 64  1 67  0  0]
 [ 1 68  1 71  0  0]
 [ 1 72  1 75  0  0]
 [ 1 76  1 79  0  0]]
arg.bas = [[  0   0   6   1   0  90  96   0]
 [  0   0   3   1   0 102 105   0]
 [  0   0   1   1   0 108 109   0]
 [  0   1   3   1   0 110 113   0]
 [  0   1   1   1   0 116 117   0]
 [  0   2   1   1   0 118 119   0]
 [  1   0   6   1   0  90  96   0]
 [  1   0   3   1   0 102 105   0]
 [  1   0   1   1   0 108 109   0]
 [  1   1   3   1   0 110 113   0]
 [  1   1   1   1   0 116 117   0]
 [  1   2   1   1   0 118 119   0]
 [  2   0   6   1   0  90  96   0]
 [  2   0   3   1   0 102 105   0]
 [  2   0   1   1   0 108 109   0]
 [  2   1   3   1   0 110 113   0]
 [  2   1   1   1   0 116 117   0]
 [  2   2   1   1   0 118 119   0]
 [  3   0   6   1   0  90  96   0]
 [  3   0   3   1   0 102 105   0]
 [  3   0   1   1   0 108 109   0]
 [  3   1   3   1   0 110 113   0]
 [  3   1   1   1   0 116 117   0]
 [  3   2   1   1   0 118 119   0]
 [  4   0   6   1   0  90  96   0]
 [  4   0   3   1   0 102 105   0]
 [  4   0   1   1   0 108 109   0]
 [  4   1   3   1   0 110 113   0]
 [  4   1   1   1   0 116 117   0]
 [  4   2   1   1   0 118 119   0]
 [  5   0   3   1   0  80  83   0]
 [  5   0   1   1   0  86  87   0]
 [  5   1   1   1   0  88  89   0]
 [  6   0   3   1   0  80  83   0]
 [  6   0   1   1   0  86  87   0]
 [  6   1   1   1   0  88  89   0]
 [  7   0   3   1   0  80  83   0]
 [  7   0   1   1   0  86  87   0]
 [  7   1   1   1   0  88  89   0]
 [  8   0   3   1   0  80  83   0]
 [  8   0   1   1   0  86  87   0]
 [  8   1   1   1   0  88  89   0]
 [  9   0   3   1   0  80  83   0]
 [  9   0   1   1   0  86  87   0]
 [  9   1   1   1   0  88  89   0]
 [ 10   0   3   1   0  80  83   0]
 [ 10   0   1   1   0  86  87   0]
 [ 10   1   1   1   0  88  89   0]
 [ 11   0   3   1   0  80  83   0]
 [ 11   0   1   1   0  86  87   0]
 [ 11   1   1   1   0  88  89   0]
 [ 12   0   3   1   0  80  83   0]
 [ 12   0   1   1   0  86  87   0]
 [ 12   1   1   1   0  88  89   0]
 [ 13   0   3   1   0  80  83   0]
 [ 13   0   1   1   0  86  87   0]
 [ 13   1   1   1   0  88  89   0]
 [ 14   0   3   1   0  80  83   0]
 [ 14   0   1   1   0  86  87   0]
 [ 14   1   1   1   0  88  89   0]]
arg.env = [ 1.37036000e+02  0.00000000e+00  0.00000000e+00  0.00000000e+00
  0.00000000e+00  0.00000000e+00  0.00000000e+00  0.00000000e+00
  0.00000000e+00  0.00000000e+00  0.00000000e+00  0.00000000e+00
  0.00000000e+00  0.00000000e+00  0.00000000e+00  0.00000000e+00
  0.00000000e+00  0.00000000e+00  0.00000000e+00  0.00000000e+00
  1.64278541e+01 -2.65870709e+01 -1.80414289e+01  0.00000000e+00
  1.05536555e+01 -2.94649215e+01 -2.16748884e+01  0.00000000e+00
  1.05661769e+01 -2.93540381e+01 -1.64410274e+01  0.00000000e+00
  1.69341004e+01 -3.21569781e+01 -1.75281055e+01  0.00000000e+00
  7.95719829e+00 -2.51911925e+01 -1.42761212e+01  0.00000000e+00
  1.55337188e+01 -2.59511213e+01 -1.66033699e+01  0.00000000e+00
  1.61624534e+01 -2.83754831e+01 -1.79860013e+01  0.00000000e+00
  8.84108934e+00 -2.90041213e+01 -2.20308448e+01  0.00000000e+00
  1.13441828e+01 -2.79179445e+01 -2.11710515e+01  0.00000000e+00
  1.19228094e+01 -3.03692708e+01 -1.58079521e+01  0.00000000e+00
  1.03486278e+01 -2.99029053e+01 -1.81508043e+01  0.00000000e+00
  1.63906983e+01 -3.25393132e+01 -1.58457088e+01  0.00000000e+00
  1.56895513e+01 -3.29254069e+01 -1.85923124e+01  0.00000000e+00
  9.38018663e+00 -2.40850659e+01 -1.41227926e+01  0.00000000e+00
  8.66153702e+00 -2.67619008e+01 -1.48317423e+01  0.00000000e+00
  1.87311370e+01  2.82539370e+00  6.40121700e-01  7.61926220e-01
  1.29237100e+00  1.47131900e+00  1.61277800e-01  6.42977783e-01
  1.10000000e+00  3.28643653e+00  5.48467170e+03  8.25234950e+02
  1.88046960e+02  5.29645000e+01  1.68975700e+01  5.79963530e+00
  2.94842455e+00  5.42657124e+00  8.78126489e+00  1.15432129e+01
  9.90055015e+00  3.38516599e+00  1.55396160e+01  3.59993360e+00
  1.01376180e+00 -2.19051792e+00 -9.77405528e-01  2.88629094e+00
  2.70005800e-01  9.46334873e-01  1.55396160e+01  3.59993360e+00
  1.01376180e+00  6.37930734e+00  4.91490975e+00  2.15791055e+00
  2.70005800e-01  5.67807022e-01  8.00000000e-01  1.76578110e+00]
ecpbas  = []


******** <class 'pyscf.qmmm.itrf.mm_charge.<locals>.QMMM'> ********
method = QMMM-RHF
initial guess = minao
damping factor = 0
level shift factor = 0
DIIS = <class 'pyscf.scf.diis.CDIIS'>
DIIS start cycle = 1
DIIS space = 8
SCF tol = 1e-09
SCF gradient tol = None
max. SCF cycles = 50
direct_scf = True
direct_scf_tol = 1e-13
chkfile to save SCF result = /home/liwei01/wsr/dftpart/test_2body/w32/tmp6yvp6sog
max_memory 4000 MB (current use 329 MB)
** Add background charges for <class 'pyscf.scf.hf.RHF'> **
Charge      Location
-1.056075    [ 15.8591958  -22.32322322 -21.16584533]
0.523264    [ 15.44903263 -23.69303655 -20.05800473]
0.517699    [ 17.48403712 -21.75849557 -20.60647128]
-1.035697    [ 20.23144001 -20.50137794 -19.07019386]
0.520608    [ 21.7723038  -21.39222885 -18.74761761]
0.515624    [ 19.97024207 -19.49608333 -17.58928542]
-1.024266    [ 13.70105109 -18.63199472 -24.76194313]
0.515186    [ 13.45609723 -19.31578456 -26.41855264]
0.515422    [ 13.87339411 -20.08163576 -23.69387937]
-1.050024    [ 10.52651529 -24.11298283 -20.2839555 ]
0.521386    [  8.7734466  -24.2410798  -19.85703047]
0.506414    [ 11.30765248 -23.44237383 -18.79666545]
-1.032359    [ 13.1641969  -17.47579981 -19.41562257]
0.514165    [ 13.18112696 -18.60438393 -20.82910748]
0.518479    [ 14.52136419 -16.32434621 -19.73837456]
-1.052762    [ 13.11969196 -22.35429031 -15.81898054]
0.521035    [ 14.16458201 -22.84877684 -14.42771692]
0.525545    [ 13.80909996 -20.77345693 -16.36451423]
-1.002885    [ 18.40539199 -27.51482622 -24.72543362]
0.521542    [ 17.83274639 -26.30664305 -23.50711585]
0.49877    [ 20.13069872 -27.06649815 -25.03241585]
-1.054902    [ 19.05772167 -18.14703431 -25.87868434]
0.517977    [ 18.59105569 -18.66655214 -27.54728983]
0.522623    [ 17.51229609 -18.19498233 -24.93991564]
-0.997115    [ 17.90283445 -15.11249509 -20.63210731]
0.530073    [ 18.89257472 -16.62132612 -20.50652934]
0.49195    [ 18.18557149 -14.25298717 -19.06582671]
-1.032188    [ 15.97118286 -20.09833149 -29.6421136 ]
0.47982    [ 15.3540909  -19.66610766 -31.28659296]
0.534069    [ 17.50300052 -21.00734455 -29.95701189]
-0.992133    [  7.63287216 -21.21078113 -24.19682809]
0.480184    [  8.55071592 -22.76668147 -24.10379498]
0.504586    [  8.37549106 -20.32880248 -25.59058803]
-0.985176    [ 16.63195772 -23.48150439 -12.27810621]
0.500614    [ 17.11266814 -22.20236011 -11.09293235]
0.508291    [ 16.89319913 -25.03868407 -11.39557387]
-0.979947    [ 19.94097588 -17.12125506 -14.67509908]
0.500341    [ 18.95312155 -17.86288753 -13.35371942]
0.493696    [ 19.00620207 -15.6543646  -15.17143564]
-0.982261    [ 16.04742575 -26.75780005 -29.6895325 ]
0.479882    [ 16.71262824 -28.42851069 -29.88488293]
0.495008    [ 16.8532352  -26.12000803 -28.20097066]
-0.983713    [ 20.17321188 -22.53529584 -29.89394228]
0.505479    [ 21.06170253 -23.16751127 -28.4507471 ]
0.512532    [ 20.35114661 -23.83370776 -31.14069287]
-1.011239    [ 14.66303696 -31.18986921 -25.03135193]
0.492592    [ 13.80996545 -30.6346091  -23.53606456]
0.497341    [ 16.13314373 -30.14067248 -25.13086491]
-0.999332    [ 25.43111026 -22.24828235 -18.47023794]
0.512801    [ 26.28398524 -20.77981964 -19.09325419]
0.507583    [ 26.7410892  -23.47726762 -18.25698991]
-0.976012    [ 10.09067452 -21.18806662 -29.24260093]
0.486289    [ 11.11173701 -19.76402949 -29.69146191]
0.496485    [ 10.37375928 -22.38512875 -30.56881072]
-0.977833    [ 24.5589393  -27.80514674 -21.18389789]
0.50587    [ 23.21796885 -28.65180829 -20.31390388]
0.463809    [ 25.76766104 -27.42438582 -19.8931866 ]
-0.989717    [  8.77070649 -15.37911655 -23.94499373]
0.487556    [  8.68859978 -13.74216775 -23.17975481]
0.496916    [ 10.53805395 -15.75730555 -24.01835668]
-0.998393    [ 24.35861321 -18.31258187 -25.98586582]
0.466984    [ 25.48944989 -18.60606579 -24.60492389]
0.51604    [ 22.70911474 -18.4111103  -25.25008395]
-1.010464    [  9.27281806 -14.9477601  -17.25327322]
0.476424    [  7.6789399  -15.16789619 -18.07972415]
0.517552    [ 10.24747455 -16.38576609 -17.75736144]
-0.991473    [  5.5836248  -24.00414405 -18.66237963]
0.501887    [  5.79022289 -25.52045085 -17.69798247]
0.510487    [  5.17491673 -22.73885336 -17.43603619]
-1.001943    [ 16.13613705 -11.83176802 -24.46883904]
0.509813    [ 16.78082846 -12.94299123 -23.1954641 ]
0.477312    [ 17.5304658  -11.57071369 -25.59117007]
-1.019724    [ 21.67798379 -29.0173418  -14.20699124]
0.475311    [ 20.53074618 -29.01816194 -15.60548117]
0.514632    [ 22.50198564 -27.40961194 -14.29731259]
-0.9959    [ 24.21450458 -24.60133719 -13.9203349 ]
0.499354    [ 23.58737251 -23.46499007 -12.66043371]
0.511038    [ 23.91476757 -23.75039163 -15.48812918]
-1.001922    [ 21.40011279 -32.14724982 -20.33868764]
0.487648    [ 22.14106118 -33.75675602 -19.97480576]
0.509505    [ 19.73399418 -32.24696878 -19.64152988]
Set gradient conv threshold to 3.16228e-05
Nelec from initial guess = 49.94266527938188
cond(S) = 150.21005450765406
E1 = -895.3869061248116  E_coul = 325.6759831653868
init E= -379.370190969919
    CPU time for initialize scf      2.17 sec, wall time      0.28 sec
  HOMO = -0.462832757203065  LUMO = 0.0300138228750966
  mo_energy =
[-20.86531838 -20.86264488 -20.83015651 -20.80854875 -20.78910416
  -1.69748475  -1.6657414   -1.66369043  -1.63494333  -1.59165212
  -0.8144232   -0.80763377  -0.78425962  -0.77297219  -0.73624531
  -0.66422116  -0.65273609  -0.64051772  -0.58591574  -0.57501917
  -0.54167412  -0.53565738  -0.5043467   -0.48870113  -0.46283276
   0.03001382   0.11763091   0.14122846   0.15726819   0.18213076
   0.21081756   0.24203702   0.27997334   0.28563314   0.31765882
   0.86755407   0.88710833   0.9008494    0.91848876   0.92273113
   0.94883021   0.95852064   0.9660684    0.97195393   0.99316962
   1.0140103    1.01919468   1.04505853   1.05317189   1.08342474
   1.09228939   1.10488355   1.13215705   1.15440712   1.18322561
   1.19669453   1.21626831   1.22698843   1.26844408   1.292257
   1.4264531    1.4758369    1.57119203   1.59515194   1.65480628
   1.66467194   1.66545501   1.67176248   1.69399364   1.70147864
   1.70452914   1.72484208   1.74065833   1.7579349    1.78134715
   1.7950704    1.82823951   1.86175501   1.87750731   1.88897859
   2.43356589   2.47066286   2.48565063   2.50351739   2.52671458
   2.5311095    2.54161587   2.54880968   2.5692704    2.59390369
   2.6690713    2.67547822   2.72305774   2.74513616   2.76321218
   2.85708948   2.87277303   2.89548459   2.90489922   2.90945028
   2.91175991   2.93091569   2.93791061   2.95414284   3.0944536
   3.26093607   3.28682568   3.30226656   3.32319083   3.36749056
   3.6407121    3.66964861   3.70013719   3.72480867   3.74724326
   3.79106294   3.82799682   3.86263659   3.8780948    3.90549848]
E1 = -906.9321680744199  E_coul = 336.56556417529674
cycle= 1 E= -380.025871909617  delta_E= -0.656  |g|= 0.973  |ddm|= 2.65
    CPU time for cycle= 1      0.31 sec, wall time      0.04 sec
diis-norm(errvec)=1.75704
diis-c [-3.08719582  1.        ]
  HOMO = -0.401388915477967  LUMO = 0.0979454711661403
  mo_energy =
[-20.44618999 -20.40017128 -20.3845248  -20.34328585 -20.28571283
  -1.38707003  -1.34181654  -1.31354862  -1.3072059   -1.25174603
  -0.7631664   -0.72257012  -0.69385885  -0.69080342  -0.64664303
  -0.60832538  -0.56691699  -0.54707471  -0.53865417  -0.5147283
  -0.48747393  -0.46904583  -0.4549367   -0.4531796   -0.40138892
   0.09794547   0.20065144   0.2168976    0.23605771   0.25938856
   0.27949104   0.33173248   0.3758876    0.38742767   0.44949429
   0.91054236   0.94367297   0.97807524   0.9950424    1.00903995
   1.02867527   1.05401986   1.07836055   1.10301957   1.12857268
   1.14103975   1.1842297    1.1881089    1.19422522   1.23094628
   1.24552682   1.25885956   1.26432521   1.27312265   1.32509366
   1.34270054   1.35521611   1.37794973   1.39459891   1.4328876
   1.54277739   1.59896365   1.69454657   1.7021324    1.72708371
   1.76186745   1.78404803   1.79178806   1.80293512   1.80975067
   1.83821447   1.84988588   1.85968677   1.8762309    1.92067964
   1.92478197   1.9771925    1.99270506   2.01221089   2.03497554
   2.46113838   2.51184637   2.52034495   2.54378486   2.55241234
   2.58115225   2.59915525   2.63870684   2.63925175   2.71154686
   2.73805454   2.79769759   2.80509276   2.82069326   2.890077
   2.92284856   2.92537409   2.92806801   2.9417237    2.96241681
   2.97754694   2.99911586   3.01079761   3.05224363   3.12444985
   3.29331503   3.33729453   3.36278575   3.38827709   3.43148041
   3.66684194   3.75102075   3.7632063    3.77487736   3.81585033
   3.86574733   3.93981673   3.98255269   3.98637228   4.03859347]
E1 = -899.6216664127589  E_coul = 329.1158538727574
cycle= 2 E= -380.165080550496  delta_E= -0.139  |g|= 0.472  |ddm|= 0.772
    CPU time for cycle= 2      0.31 sec, wall time      0.04 sec
diis-norm(errvec)=0.794365
diis-c [-0.1407637   0.28972585  0.71027415]
  HOMO = -0.494087346935552  LUMO = 0.10194365911157
  mo_energy =
[-20.68791285 -20.62572053 -20.62094991 -20.6111087  -20.57086817
  -1.45010839  -1.39662328  -1.38871528  -1.37461413  -1.33697834
  -0.80942641  -0.76115579  -0.75524769  -0.73711717  -0.71007667
  -0.6805562   -0.63176016  -0.62634137  -0.60648497  -0.5942745
  -0.56131736  -0.54839981  -0.54152926  -0.52422722  -0.49408735
   0.10194366   0.1974857    0.21524327   0.23303691   0.25660734
   0.27334152   0.32353119   0.35819997   0.3744127    0.42315164
   0.90081389   0.93561015   0.95990721   0.98313197   0.99509887
   1.00595384   1.02751566   1.05377557   1.07742049   1.09235645
   1.09776789   1.11486213   1.13070782   1.1434567    1.16840408
   1.17804377   1.19687062   1.20974133   1.22961316   1.27366174
   1.29192108   1.29870706   1.32486927   1.34448967   1.3818841
   1.50055231   1.55715978   1.65500852   1.66254853   1.70116928
   1.73597279   1.74321667   1.75225974   1.76286788   1.7803265
   1.79394691   1.80762035   1.81570998   1.84435033   1.8711657
   1.8854077    1.92269469   1.94945816   1.96281618   1.98044278
   2.47765561   2.48801832   2.52113413   2.54207913   2.55352154
   2.56562046   2.5908106    2.59559166   2.615408     2.65983983
   2.71040401   2.76320757   2.77565341   2.79111824   2.8745807
   2.87746723   2.91811123   2.92485214   2.93303241   2.9454441
   2.96706123   2.97830975   2.99145106   3.01973007   3.11565244
   3.28263795   3.32785882   3.34069122   3.377745     3.40541995
   3.65165757   3.7286599    3.73859654   3.76450862   3.78284648
   3.82908816   3.90342365   3.93773137   3.95139781   3.98192494]
E1 = -902.9406326694442  E_coul = 332.39606750992294
cycle= 3 E= -380.203833170015  delta_E= -0.0388  |g|= 0.0679  |ddm|= 0.307
    CPU time for cycle= 3      0.30 sec, wall time      0.04 sec
diis-norm(errvec)=0.125071
diis-c [-0.00751929 -0.02135454  0.06794714  0.9534074 ]
  HOMO = -0.4843273325226  LUMO = 0.109788183925173
  mo_energy =
[-20.6491522  -20.59242535 -20.58952581 -20.57809613 -20.53838009
  -1.43290953  -1.38335627  -1.37466208  -1.35981705  -1.32456455
  -0.79375515  -0.74884093  -0.7429192   -0.72349145  -0.69939184
  -0.66762724  -0.6214389   -0.61591816  -0.59530387  -0.5814622
  -0.5523695   -0.53774965  -0.53058971  -0.51276817  -0.48432733
   0.10978818   0.20414375   0.22250703   0.24016429   0.26359119
   0.28015314   0.33053373   0.36598183   0.38203288   0.42956655
   0.91146176   0.9451205    0.96863555   0.99316642   1.00350788
   1.01608998   1.03798119   1.06374693   1.08736751   1.10224959
   1.10741586   1.12377939   1.1407797    1.15298479   1.17659271
   1.18473698   1.20809716   1.22115256   1.23908439   1.28427059
   1.30263976   1.30911063   1.33448938   1.35444623   1.39157623
   1.51321019   1.56823607   1.66594064   1.67493284   1.7156676
   1.74723625   1.75453862   1.76344081   1.7740616    1.79256841
   1.80476408   1.81829615   1.8255564    1.85546322   1.88171207
   1.89713902   1.93176127   1.95956977   1.9736296    1.98890268
   2.49106672   2.50177945   2.53236132   2.55226662   2.56546057
   2.57743417   2.60177101   2.60516664   2.62636348   2.66979583
   2.72539717   2.775234     2.787531     2.80389401   2.88462729
   2.89024822   2.93048447   2.93560161   2.94454108   2.95598731
   2.9785476    2.98787205   3.00117532   3.0268579    3.12596845
   3.29537731   3.33853945   3.3504016    3.3883471    3.41405101
   3.66873281   3.74292337   3.75325606   3.77854357   3.79559868
   3.84421907   3.91617407   3.94968188   3.96331014   3.99215007]
E1 = -902.5642754589229  E_coul = 332.01867719960484
cycle= 4 E= -380.204866269812  delta_E= -0.00103  |g|= 0.0114  |ddm|= 0.0423
    CPU time for cycle= 4      0.30 sec, wall time      0.04 sec
diis-norm(errvec)=0.0235124
diis-c [-1.55978268e-04 -1.03391472e-02 -4.10155615e-02 -1.55594598e-01
  1.20694931e+00]
  HOMO = -0.485403156967925  LUMO = 0.109646876826558
  mo_energy =
[-20.65339997 -20.59235989 -20.59204279 -20.58063734 -20.53918455
  -1.43421755  -1.38381733  -1.37593631  -1.36053398  -1.32524664
  -0.79411309  -0.74875142  -0.74353753  -0.7235057   -0.69949714
  -0.66842295  -0.62202282  -0.61666603  -0.59570647  -0.58339002
  -0.55296527  -0.53886208  -0.53193945  -0.51422214  -0.48540316
   0.10964688   0.20383666   0.2226942    0.24012671   0.26350311
   0.28001171   0.33060751   0.3658744    0.38220074   0.42958131
   0.91148297   0.94497549   0.96827945   0.99291843   1.00322029
   1.01575909   1.03741438   1.06342663   1.08699307   1.10149164
   1.10717121   1.12330796   1.14011056   1.15278053   1.17577724
   1.18428995   1.20715919   1.22082724   1.23845055   1.28387688
   1.30232954   1.30856166   1.33433684   1.35440543   1.39123483
   1.51238842   1.56777683   1.66558843   1.67449767   1.71530971
   1.74706355   1.75424207   1.76312169   1.7734978    1.79245412
   1.80430554   1.81792833   1.82533527   1.85526153   1.881029
   1.89690075   1.93145861   1.95920726   1.97300752   1.98864389
   2.49146142   2.50151634   2.53237452   2.55196355   2.56554752
   2.57768947   2.60123162   2.60511584   2.62635584   2.66960654
   2.72535512   2.77488592   2.7875974    2.80397728   2.88464907
   2.89046103   2.93062832   2.93564138   2.94482617   2.95572147
   2.97890742   2.98761209   3.00114787   3.02683636   3.12581825
   3.29569431   3.33875703   3.35019781   3.38859968   3.41412372
   3.66866623   3.74264171   3.7532726    3.77867111   3.79557791
   3.84426687   3.91629614   3.94955455   3.9634447    3.99232837]
E1 = -902.5834682455877  E_coul = 332.0378123754999
cycle= 5 E= -380.204923880582  delta_E= -5.76e-05  |g|= 0.00254  |ddm|= 0.0148
    CPU time for cycle= 5      0.32 sec, wall time      0.04 sec
diis-norm(errvec)=0.00465156
diis-c [-1.62128873e-05  8.14887873e-04  7.38883377e-04 -2.11909474e-02
 -2.39929487e-02  1.04363012e+00]
  HOMO = -0.485931797735873  LUMO = 0.109716617359298
  mo_energy =
[-20.65129955 -20.59396161 -20.59196049 -20.57978647 -20.54018084
  -1.43352395  -1.38431316  -1.3759461   -1.36040383  -1.32567519
  -0.79340102  -0.74905864  -0.74340394  -0.72323286  -0.69979625
  -0.66782768  -0.62229774  -0.61683003  -0.59554446  -0.58302373
  -0.55344082  -0.53931273  -0.53228782  -0.51430238  -0.4859318
   0.10971662   0.20384807   0.2228017    0.24014273   0.26347181
   0.2799727    0.33067937   0.36593259   0.38207471   0.42931382
   0.91166684   0.94482556   0.96830012   0.99281937   1.00302085
   1.01575592   1.03752283   1.06338282   1.08685991   1.10140682
   1.10689709   1.12328941   1.14011063   1.15278526   1.17541401
   1.18398986   1.20735298   1.22125887   1.23832194   1.28382633
   1.30239462   1.30847319   1.33409886   1.35412513   1.39093611
   1.51268769   1.5676562    1.66539968   1.67471203   1.71570108
   1.74678742   1.75429652   1.76309523   1.77345198   1.79246656
   1.80425563   1.81776289   1.8250033    1.85502399   1.88101087
   1.89696089   1.93112053   1.95900293   1.97313731   1.98826089
   2.49161201   2.50189185   2.5322379    2.55195304   2.56552325
   2.57764173   2.60120564   2.6048989    2.62601315   2.66925575
   2.72573632   2.77485818   2.78726985   2.80400875   2.88426959
   2.89074906   2.93077336   2.935557     2.94461968   2.95571677
   2.97886937   2.98760243   3.00095015   3.02649157   3.12565599
   3.2959494    3.33859314   3.35017517   3.38850085   3.41385061
   3.66903011   3.74264083   3.75328822   3.77838795   3.79529153
   3.8446808    3.91623269   3.94949127   3.96319322   3.99195295]
E1 = -902.5802839908879  E_coul = 332.0346258024509
cycle= 6 E= -380.204926198931  delta_E= -2.32e-06  |g|= 0.00112  |ddm|= 0.00309
    CPU time for cycle= 6      0.32 sec, wall time      0.04 sec
diis-norm(errvec)=0.00197037
diis-c [-1.04714585e-06  1.40413806e-03  5.09020051e-03  9.91087629e-03
 -1.37234891e-01  2.51533287e-01  8.69296389e-01]
  HOMO = -0.485843692924257  LUMO = 0.109701785764656
  mo_energy =
[-20.65199355 -20.59322766 -20.59186245 -20.58003958 -20.53972834
  -1.43375934  -1.38414309  -1.37594136  -1.3604559   -1.32554878
  -0.79353435  -0.74887538  -0.74338348  -0.72323778  -0.69966427
  -0.66805861  -0.62224342  -0.61682284  -0.5956389   -0.5832758
  -0.55335173  -0.53923007  -0.53225318  -0.51442147  -0.48584369
   0.10970179   0.20383111   0.22278898   0.24013439   0.26347106
   0.27998508   0.33067709   0.36590715   0.3821138    0.42935492
   0.91159015   0.94483835   0.96825567   0.99282505   1.00302628
   1.01571668   1.03743372   1.06336201   1.08686067   1.10137519
   1.10693141   1.1232498    1.14005764   1.15275395   1.17546019
   1.18403002   1.20722528   1.22112032   1.23832122   1.28382435
   1.30236854   1.30846648   1.33416444   1.35421616   1.39101996
   1.51259451   1.56768778   1.66543633   1.67462011   1.71555337
   1.74684503   1.75424785   1.76306667   1.77343314   1.7924229
   1.80423828   1.81777716   1.82506537   1.85508048   1.88099058
   1.89691017   1.9311909    1.95903591   1.97306674   1.9883463
   2.49157089   2.50173898   2.53223894   2.5519212    2.56549404
   2.57762591   2.6011719    2.60491107   2.62608725   2.66931633
   2.72559313   2.77483339   2.78734394   2.80396193   2.88433187
   2.89064814   2.93071902   2.93555252   2.94467992   2.95569965
   2.97884715   2.98756781   3.00097769   3.02652335   3.12566474
   3.29585911   3.33861273   3.35014707   3.38849751   3.41388262
   3.66891344   3.74262079   3.75325977   3.77846237   3.79534556
   3.84452734   3.91622897   3.94947933   3.96324023   3.99202306]
E1 = -902.5789581947413  E_coul = 332.0332996395414
cycle= 7 E= -380.204926565694  delta_E= -3.67e-07  |g|= 0.000197  |ddm|= 0.00117
    CPU time for cycle= 7      0.31 sec, wall time      0.04 sec
diis-norm(errvec)=0.000366682
diis-c [-3.11470020e-08 -2.01036153e-04 -5.17656187e-04 -8.57465234e-04
  1.80869976e-02 -1.00873775e-01 -9.21014321e-02  1.17646437e+00]
  HOMO = -0.485863930970493  LUMO = 0.109703532933566
  mo_energy =
[-20.65189832 -20.59328768 -20.59187367 -20.57996229 -20.53972522
  -1.43372687  -1.38416502  -1.37595654  -1.36043369  -1.3255573
  -0.7934916   -0.74888184  -0.74338527  -0.72319924  -0.69966685
  -0.66803095  -0.62226241  -0.61684057  -0.5956216   -0.58327316
  -0.55337175  -0.53926346  -0.53228431  -0.51442602  -0.48586393
   0.10970353   0.2038291    0.22280252   0.24013831   0.26347277
   0.27998231   0.33068762   0.36591238   0.38211646   0.42935115
   0.911609     0.94483902   0.96825663   0.99282399   1.00302303
   1.01572207   1.03744199   1.06336487   1.08686124   1.10137124
   1.10692346   1.12324669   1.14006121   1.15276378   1.17545024
   1.18401854   1.20723648   1.22115058   1.23831418   1.28383197
   1.30238258   1.30846773   1.33416334   1.35421373   1.39101222
   1.51260759   1.56769302   1.66543597   1.67463156   1.71557679
   1.74683709   1.75425562   1.76306917   1.77342358   1.79243803
   1.8042348    1.8177737    1.82505601   1.8550723    1.88097954
   1.89692668   1.93118197   1.95903108   1.97307168   1.9883345
   2.49158765   2.50176255   2.53223971   2.55191308   2.56550961
   2.57764173   2.60116354   2.60490589   2.62607543   2.6693075
   2.72561981   2.77482752   2.78733407   2.80398142   2.88432724
   2.89066842   2.9307328    2.93555693   2.94467164   2.95568551
   2.97886723   2.9875662    3.00096666   3.02652145   3.12566509
   3.29588093   3.3386153    3.35014      3.38850735   3.41387775
   3.66893909   3.74261935   3.7532766    3.7784553    3.7953396
   3.84455679   3.91623563   3.94947715   3.96323841   3.99201899]
E1 = -902.578585206913  E_coul = 332.032926634978
cycle= 8 E= -380.204926582429  delta_E= -1.67e-08  |g|= 2.8e-05  |ddm|= 0.000298
    CPU time for cycle= 8      0.30 sec, wall time      0.04 sec
diis-norm(errvec)=5.0774e-05
diis-c [-1.57731662e-09 -4.46541657e-05 -1.48188210e-04 -3.64980349e-04
  4.42211308e-03 -9.89734706e-03 -2.55443063e-02  2.26507986e-02
  1.00892656e+00]
  HOMO = -0.485867853732464  LUMO = 0.109704804540622
  mo_energy =
[-20.65189002 -20.5932748  -20.5918522  -20.57997067 -20.53973664
  -1.43372313  -1.38416165  -1.37594864  -1.36043521  -1.32556095
  -0.79348677  -0.74887749  -0.74337769  -0.7231985   -0.69966782
  -0.66802778  -0.62225932  -0.61683648  -0.59562321  -0.58327005
  -0.55337465  -0.53925912  -0.5322789   -0.51442918  -0.48586785
   0.1097048    0.20383038   0.22280352   0.24013933   0.2634734
   0.27998286   0.33068945   0.36591467   0.3821172    0.42935046
   0.91161098   0.94484023   0.96825918   0.99282609   1.00302296
   1.01572274   1.03744328   1.06336657   1.08686214   1.10137278
   1.10692221   1.12325006   1.14006323   1.1527643    1.17544735
   1.18401778   1.20723862   1.22115361   1.23831622   1.28383336
   1.30238409   1.3084692    1.3341636    1.3542157    1.39101278
   1.5126112    1.56769299   1.66543562   1.67463467   1.71557946
   1.74683827   1.75425725   1.76307087   1.77342762   1.79243764
   1.80423764   1.81777413   1.82505469   1.8550742    1.88098467
   1.89692614   1.93117965   1.95903183   1.97307487   1.98833397
   2.49159017   2.50176534   2.53224051   2.55191623   2.56550981
   2.57764233   2.60116818   2.60490603   2.62607714   2.6693055
   2.72562294   2.77483219   2.78733642   2.80398156   2.88432503
   2.89067123   2.93073516   2.93555841   2.94467397   2.9556899
   2.97886662   2.987569     3.00096619   3.02651906   3.1256663
   3.29588375   3.33861658   3.35014389   3.38850802   3.41387687
   3.66894222   3.74262291   3.7532773    3.7784571    3.79533896
   3.84456      3.91623785   3.94948115   3.96324017   3.99201668]
E1 = -902.5785467112714  E_coul = 332.0328881390451
cycle= 9 E= -380.20492658272  delta_E= -2.91e-10  |g|= 1.08e-05  |ddm|= 3.72e-05
    CPU time for cycle= 9      0.31 sec, wall time      0.04 sec
  HOMO = -0.485864537127515  LUMO = 0.109704416624313
  mo_energy =
[-20.65189227 -20.59327989 -20.59186097 -20.57996324 -20.53972778
  -1.43372361  -1.38416274  -1.37595138  -1.36043299  -1.32555802
  -0.79348711  -0.74887847  -0.74337975  -0.72319632  -0.69966606
  -0.66802845  -0.62226035  -0.61683815  -0.59562073  -0.58327098
  -0.55337256  -0.53926075  -0.53228094  -0.51442716  -0.48586454
   0.10970442   0.20383014   0.22280353   0.24013905   0.2634734
   0.27998274   0.33068972   0.3659144    0.38211722   0.42935093
   0.91161072   0.94483998   0.96825843   0.99282566   1.00302314
   1.01572271   1.03744281   1.06336612   1.08686205   1.10137248
   1.10692282   1.12324873   1.14006292   1.15276477   1.17544957
   1.18401867   1.20723815   1.22115335   1.23831572   1.28383386
   1.30238452   1.30846904   1.33416455   1.35421513   1.39101321
   1.51261033   1.56769376   1.66543647   1.67463408   1.71557919
   1.74683812   1.75425725   1.7630708    1.77342634   1.79243894
   1.80423685   1.81777448   1.82505582   1.85507376   1.88098285
   1.89692776   1.9311814    1.95903213   1.973074     1.98833463
   2.49159007   2.50176502   2.53224058   2.55191542   2.56551083
   2.57764302   2.6011666    2.60490602   2.62607653   2.66930709
   2.72562258   2.77483071   2.78733577   2.80398295   2.88432656
   2.89067101   2.93073482   2.93555877   2.94467315   2.95568848
   2.97886751   2.98756832   3.00096682   3.02652015   3.12566665
   3.29588351   3.33861669   3.35014273   3.38850873   3.41387762
   3.66894187   3.74262208   3.75327808   3.7784565    3.79533959
   3.84455962   3.91623794   3.94948003   3.96324018   3.99201839]
E1 = -902.5785491126155  E_coul = 332.0328905403553
Extra cycle  E= -380.204926582754  delta_E= -3.39e-11  |g|= 5.79e-06  |ddm|= 1.26e-05
    CPU time for scf_cycle      5.24 sec, wall time      0.67 sec
    CPU time for SCF      5.25 sec, wall time      0.69 sec
converged SCF energy = -380.204926582754
