Atom number=15                                                          
SP        RHF                                                         6-31G(d,p)          
Number of atoms                            I               15
Info1-9                                    I   N=           9
         107         106           0           0           0         111
           1           1           2
Full Title                                 C   N=           2
Atom number=15          
Route                                      C   N=           4
#p hf/6-31g** 5d 7f pop=npa charge nosymm       
Charge                                     I                0
Multiplicity                               I                1
Number of electrons                        I               50
Number of alpha electrons                  I               25
Number of beta electrons                   I               25
Number of basis functions                  I              120
Number of independent functions            I              120
Number of point charges in /Mol/           I                0
Number of translation vectors              I                0
Atomic numbers                             I   N=          15
           8           8           8           8           8           1
           1           1           1           1           1           1
           1           1           1
Nuclear charges                            R   N=          15
  8.00000000E+00  8.00000000E+00  8.00000000E+00  8.00000000E+00  8.00000000E+00
  1.00000000E+00  1.00000000E+00  1.00000000E+00  1.00000000E+00  1.00000000E+00
  1.00000000E+00  1.00000000E+00  1.00000000E+00  1.00000000E+00  1.00000000E+00
Current cartesian coordinates              R   N=          45
  1.58591958E+01 -2.23232232E+01 -2.11658453E+01  1.64278541E+01 -2.65870709E+01
 -1.80414289E+01  1.05265153E+01 -2.41129828E+01 -2.02839555E+01  1.31196920E+01
 -2.23542903E+01 -1.58189805E+01  1.84053920E+01 -2.75148262E+01 -2.47254336E+01
  1.54490326E+01 -2.36930366E+01 -2.00580047E+01  1.74840371E+01 -2.17584956E+01
 -2.06064713E+01  1.55337188E+01 -2.59511213E+01 -1.66033699E+01  1.61624534E+01
 -2.83754831E+01 -1.79860013E+01  8.77344660E+00 -2.42410798E+01 -1.98570305E+01
  1.13076525E+01 -2.34423738E+01 -1.87966655E+01  1.41645820E+01 -2.28487768E+01
 -1.44277169E+01  1.38091000E+01 -2.07734569E+01 -1.63645142E+01  1.78327464E+01
 -2.63066431E+01 -2.35071158E+01  2.01306987E+01 -2.70664981E+01 -2.50324158E+01
Number of symbols in /Mol/                 I                0
Force Field                                I                0
Atom Types                                 C   N=          15
                                                            
                                                            
                                                            
Int Atom Types                             I   N=          15
           0           0           0           0           0           0
           0           0           0           0           0           0
           0           0           0
MM charges                                 R   N=          15
  0.00000000E+00  0.00000000E+00  0.00000000E+00  0.00000000E+00  0.00000000E+00
  0.00000000E+00  0.00000000E+00  0.00000000E+00  0.00000000E+00  0.00000000E+00
  0.00000000E+00  0.00000000E+00  0.00000000E+00  0.00000000E+00  0.00000000E+00
Integer atomic weights                     I   N=          15
          16          16          16          16          16           1
           1           1           1           1           1           1
           1           1           1
Real atomic weights                        R   N=          15
  1.59949146E+01  1.59949146E+01  1.59949146E+01  1.59949146E+01  1.59949146E+01
  1.00782504E+00  1.00782504E+00  1.00782504E+00  1.00782504E+00  1.00782504E+00
  1.00782504E+00  1.00782504E+00  1.00782504E+00  1.00782504E+00  1.00782504E+00
Atom fragment info                         I   N=          15
           0           0           0           0           0           0
           0           0           0           0           0           0
           0           0           0
Atom residue num                           I   N=          15
           0           0           0           0           0           0
           0           0           0           0           0           0
           0           0           0
Nuclear spins                              I   N=          15
           0           0           0           0           0           1
           1           1           1           1           1           1
           1           1           1
Nuclear ZEff                               R   N=          15
 -5.60000000E+00 -5.60000000E+00 -5.60000000E+00 -5.60000000E+00 -5.60000000E+00
 -1.00000000E+00 -1.00000000E+00 -1.00000000E+00 -1.00000000E+00 -1.00000000E+00
 -1.00000000E+00 -1.00000000E+00 -1.00000000E+00 -1.00000000E+00 -1.00000000E+00
Nuclear ZNuc                               R   N=          15
  8.00000000E+00  8.00000000E+00  8.00000000E+00  8.00000000E+00  8.00000000E+00
  1.00000000E+00  1.00000000E+00  1.00000000E+00  1.00000000E+00  1.00000000E+00
  1.00000000E+00  1.00000000E+00  1.00000000E+00  1.00000000E+00  1.00000000E+00
Nuclear QMom                               R   N=          15
  0.00000000E+00  0.00000000E+00  0.00000000E+00  0.00000000E+00  0.00000000E+00
  0.00000000E+00  0.00000000E+00  0.00000000E+00  0.00000000E+00  0.00000000E+00
  0.00000000E+00  0.00000000E+00  0.00000000E+00  0.00000000E+00  0.00000000E+00
Nuclear GFac                               R   N=          15
  0.00000000E+00  0.00000000E+00  0.00000000E+00  0.00000000E+00  0.00000000E+00
  2.79284600E+00  2.79284600E+00  2.79284600E+00  2.79284600E+00  2.79284600E+00
  2.79284600E+00  2.79284600E+00  2.79284600E+00  2.79284600E+00  2.79284600E+00
MicOpt                                     I   N=          15
          -1          -1          -1          -1          -1          -1
          -1          -1          -1          -1          -1          -1
          -1          -1          -1
Number of residues                         I                0
Number of secondary structures             I                0
Number of contracted shells                I               50
Number of primitive shells                 I              105
Pure/Cartesian d shells                    I                0
Pure/Cartesian f shells                    I                0
Highest angular momentum                   I                2
Largest degree of contraction              I                6
Shell types                                I   N=          50
           0          -1          -1          -2           0          -1
          -1          -2           0          -1          -1          -2
           0          -1          -1          -2           0          -1
          -1          -2           0           0           1           0
           0           1           0           0           1           0
           0           1           0           0           1           0
           0           1           0           0           1           0
           0           1           0           0           1           0
           0           1
Number of primitives per shell             I   N=          50
           6           3           1           1           6           3
           1           1           6           3           1           1
           6           3           1           1           6           3
           1           1           3           1           1           3
           1           1           3           1           1           3
           1           1           3           1           1           3
           1           1           3           1           1           3
           1           1           3           1           1           3
           1           1
Shell to atom map                          I   N=          50
           1           1           1           1           2           2
           2           2           3           3           3           3
           4           4           4           4           5           5
           5           5           6           6           6           7
           7           7           8           8           8           9
           9           9          10          10          10          11
          11          11          12          12          12          13
          13          13          14          14          14          15
          15          15
Primitive exponents                        R   N=         105
  5.48467166E+03  8.25234946E+02  1.88046958E+02  5.29645000E+01  1.68975704E+01
  5.79963534E+00  1.55396162E+01  3.59993359E+00  1.01376175E+00  2.70005823E-01
  8.00000000E-01  5.48467166E+03  8.25234946E+02  1.88046958E+02  5.29645000E+01
  1.68975704E+01  5.79963534E+00  1.55396162E+01  3.59993359E+00  1.01376175E+00
  2.70005823E-01  8.00000000E-01  5.48467166E+03  8.25234946E+02  1.88046958E+02
  5.29645000E+01  1.68975704E+01  5.79963534E+00  1.55396162E+01  3.59993359E+00
  1.01376175E+00  2.70005823E-01  8.00000000E-01  5.48467166E+03  8.25234946E+02
  1.88046958E+02  5.29645000E+01  1.68975704E+01  5.79963534E+00  1.55396162E+01
  3.59993359E+00  1.01376175E+00  2.70005823E-01  8.00000000E-01  5.48467166E+03
  8.25234946E+02  1.88046958E+02  5.29645000E+01  1.68975704E+01  5.79963534E+00
  1.55396162E+01  3.59993359E+00  1.01376175E+00  2.70005823E-01  8.00000000E-01
  1.87311370E+01  2.82539436E+00  6.40121692E-01  1.61277759E-01  1.10000000E+00
  1.87311370E+01  2.82539436E+00  6.40121692E-01  1.61277759E-01  1.10000000E+00
  1.87311370E+01  2.82539436E+00  6.40121692E-01  1.61277759E-01  1.10000000E+00
  1.87311370E+01  2.82539436E+00  6.40121692E-01  1.61277759E-01  1.10000000E+00
  1.87311370E+01  2.82539436E+00  6.40121692E-01  1.61277759E-01  1.10000000E+00
  1.87311370E+01  2.82539436E+00  6.40121692E-01  1.61277759E-01  1.10000000E+00
  1.87311370E+01  2.82539436E+00  6.40121692E-01  1.61277759E-01  1.10000000E+00
  1.87311370E+01  2.82539436E+00  6.40121692E-01  1.61277759E-01  1.10000000E+00
  1.87311370E+01  2.82539436E+00  6.40121692E-01  1.61277759E-01  1.10000000E+00
  1.87311370E+01  2.82539436E+00  6.40121692E-01  1.61277759E-01  1.10000000E+00
Contraction coefficients                   R   N=         105
  1.83107443E-03  1.39501722E-02  6.84450781E-02  2.32714336E-01  4.70192898E-01
  3.58520853E-01 -1.10777550E-01 -1.48026263E-01  1.13076702E+00  1.00000000E+00
  1.00000000E+00  1.83107443E-03  1.39501722E-02  6.84450781E-02  2.32714336E-01
  4.70192898E-01  3.58520853E-01 -1.10777550E-01 -1.48026263E-01  1.13076702E+00
  1.00000000E+00  1.00000000E+00  1.83107443E-03  1.39501722E-02  6.84450781E-02
  2.32714336E-01  4.70192898E-01  3.58520853E-01 -1.10777550E-01 -1.48026263E-01
  1.13076702E+00  1.00000000E+00  1.00000000E+00  1.83107443E-03  1.39501722E-02
  6.84450781E-02  2.32714336E-01  4.70192898E-01  3.58520853E-01 -1.10777550E-01
 -1.48026263E-01  1.13076702E+00  1.00000000E+00  1.00000000E+00  1.83107443E-03
  1.39501722E-02  6.84450781E-02  2.32714336E-01  4.70192898E-01  3.58520853E-01
 -1.10777550E-01 -1.48026263E-01  1.13076702E+00  1.00000000E+00  1.00000000E+00
  3.34946043E-02  2.34726953E-01  8.13757326E-01  1.00000000E+00  1.00000000E+00
  3.34946043E-02  2.34726953E-01  8.13757326E-01  1.00000000E+00  1.00000000E+00
  3.34946043E-02  2.34726953E-01  8.13757326E-01  1.00000000E+00  1.00000000E+00
  3.34946043E-02  2.34726953E-01  8.13757326E-01  1.00000000E+00  1.00000000E+00
  3.34946043E-02  2.34726953E-01  8.13757326E-01  1.00000000E+00  1.00000000E+00
  3.34946043E-02  2.34726953E-01  8.13757326E-01  1.00000000E+00  1.00000000E+00
  3.34946043E-02  2.34726953E-01  8.13757326E-01  1.00000000E+00  1.00000000E+00
  3.34946043E-02  2.34726953E-01  8.13757326E-01  1.00000000E+00  1.00000000E+00
  3.34946043E-02  2.34726953E-01  8.13757326E-01  1.00000000E+00  1.00000000E+00
  3.34946043E-02  2.34726953E-01  8.13757326E-01  1.00000000E+00  1.00000000E+00
P(S=P) Contraction coefficients            R   N=         105
  0.00000000E+00  0.00000000E+00  0.00000000E+00  0.00000000E+00  0.00000000E+00
  0.00000000E+00  7.08742682E-02  3.39752839E-01  7.27158577E-01  1.00000000E+00
  0.00000000E+00  0.00000000E+00  0.00000000E+00  0.00000000E+00  0.00000000E+00
  0.00000000E+00  0.00000000E+00  7.08742682E-02  3.39752839E-01  7.27158577E-01
  1.00000000E+00  0.00000000E+00  0.00000000E+00  0.00000000E+00  0.00000000E+00
  0.00000000E+00  0.00000000E+00  0.00000000E+00  7.08742682E-02  3.39752839E-01
  7.27158577E-01  1.00000000E+00  0.00000000E+00  0.00000000E+00  0.00000000E+00
  0.00000000E+00  0.00000000E+00  0.00000000E+00  0.00000000E+00  7.08742682E-02
  3.39752839E-01  7.27158577E-01  1.00000000E+00  0.00000000E+00  0.00000000E+00
  0.00000000E+00  0.00000000E+00  0.00000000E+00  0.00000000E+00  0.00000000E+00
  7.08742682E-02  3.39752839E-01  7.27158577E-01  1.00000000E+00  0.00000000E+00
  0.00000000E+00  0.00000000E+00  0.00000000E+00  0.00000000E+00  0.00000000E+00
  0.00000000E+00  0.00000000E+00  0.00000000E+00  0.00000000E+00  0.00000000E+00
  0.00000000E+00  0.00000000E+00  0.00000000E+00  0.00000000E+00  0.00000000E+00
  0.00000000E+00  0.00000000E+00  0.00000000E+00  0.00000000E+00  0.00000000E+00
  0.00000000E+00  0.00000000E+00  0.00000000E+00  0.00000000E+00  0.00000000E+00
  0.00000000E+00  0.00000000E+00  0.00000000E+00  0.00000000E+00  0.00000000E+00
  0.00000000E+00  0.00000000E+00  0.00000000E+00  0.00000000E+00  0.00000000E+00
  0.00000000E+00  0.00000000E+00  0.00000000E+00  0.00000000E+00  0.00000000E+00
  0.00000000E+00  0.00000000E+00  0.00000000E+00  0.00000000E+00  0.00000000E+00
  0.00000000E+00  0.00000000E+00  0.00000000E+00  0.00000000E+00  0.00000000E+00
Coordinates of each shell                  R   N=         150
  1.58591958E+01 -2.23232232E+01 -2.11658453E+01  1.58591958E+01 -2.23232232E+01
 -2.11658453E+01  1.58591958E+01 -2.23232232E+01 -2.11658453E+01  1.58591958E+01
 -2.23232232E+01 -2.11658453E+01  1.64278541E+01 -2.65870709E+01 -1.80414289E+01
  1.64278541E+01 -2.65870709E+01 -1.80414289E+01  1.64278541E+01 -2.65870709E+01
 -1.80414289E+01  1.64278541E+01 -2.65870709E+01 -1.80414289E+01  1.05265153E+01
 -2.41129828E+01 -2.02839555E+01  1.05265153E+01 -2.41129828E+01 -2.02839555E+01
  1.05265153E+01 -2.41129828E+01 -2.02839555E+01  1.05265153E+01 -2.41129828E+01
 -2.02839555E+01  1.31196920E+01 -2.23542903E+01 -1.58189805E+01  1.31196920E+01
 -2.23542903E+01 -1.58189805E+01  1.31196920E+01 -2.23542903E+01 -1.58189805E+01
  1.31196920E+01 -2.23542903E+01 -1.58189805E+01  1.84053920E+01 -2.75148262E+01
 -2.47254336E+01  1.84053920E+01 -2.75148262E+01 -2.47254336E+01  1.84053920E+01
 -2.75148262E+01 -2.47254336E+01  1.84053920E+01 -2.75148262E+01 -2.47254336E+01
  1.54490326E+01 -2.36930366E+01 -2.00580047E+01  1.54490326E+01 -2.36930366E+01
 -2.00580047E+01  1.54490326E+01 -2.36930366E+01 -2.00580047E+01  1.74840371E+01
 -2.17584956E+01 -2.06064713E+01  1.74840371E+01 -2.17584956E+01 -2.06064713E+01
  1.74840371E+01 -2.17584956E+01 -2.06064713E+01  1.55337188E+01 -2.59511213E+01
 -1.66033699E+01  1.55337188E+01 -2.59511213E+01 -1.66033699E+01  1.55337188E+01
 -2.59511213E+01 -1.66033699E+01  1.61624534E+01 -2.83754831E+01 -1.79860013E+01
  1.61624534E+01 -2.83754831E+01 -1.79860013E+01  1.61624534E+01 -2.83754831E+01
 -1.79860013E+01  8.77344660E+00 -2.42410798E+01 -1.98570305E+01  8.77344660E+00
 -2.42410798E+01 -1.98570305E+01  8.77344660E+00 -2.42410798E+01 -1.98570305E+01
  1.13076525E+01 -2.34423738E+01 -1.87966655E+01  1.13076525E+01 -2.34423738E+01
 -1.87966655E+01  1.13076525E+01 -2.34423738E+01 -1.87966655E+01  1.41645820E+01
 -2.28487768E+01 -1.44277169E+01  1.41645820E+01 -2.28487768E+01 -1.44277169E+01
  1.41645820E+01 -2.28487768E+01 -1.44277169E+01  1.38091000E+01 -2.07734569E+01
 -1.63645142E+01  1.38091000E+01 -2.07734569E+01 -1.63645142E+01  1.38091000E+01
 -2.07734569E+01 -1.63645142E+01  1.78327464E+01 -2.63066431E+01 -2.35071158E+01
  1.78327464E+01 -2.63066431E+01 -2.35071158E+01  1.78327464E+01 -2.63066431E+01
 -2.35071158E+01  2.01306987E+01 -2.70664981E+01 -2.50324158E+01  2.01306987E+01
 -2.70664981E+01 -2.50324158E+01  2.01306987E+01 -2.70664981E+01 -2.50324158E+01
Num ILSW                                   I              100
ILSW                                       I   N=         100
           0           0           0           0           2           0
           0           0           0           0           0          -1
           5           0           0           0           0           0
           0           0           0           0           0           0
           1           1           0           0           0           0
           0           0      100000           0          -1           0
           0           0           0           0           0           0
           0           0           0           1           0           0
           0 -2000000000           1           0           0           0
           0           0           4          52           0           0
           0           1           0           0           0           0
           0           0           0          15           0           1
           0           0           0           0           0           0
           0           0           0           0           0           0
           0           0           0           0           0           0
           0           0           0           0           0           0
           0           0           0           0
Num RLSW                                   I               52
RLSW                                       R   N=          52
  1.00000000E+00  1.00000000E+00  1.00000000E+00  1.00000000E+00  1.00000000E+00
  0.00000000E+00  0.00000000E+00  1.00000000E+00  0.00000000E+00  0.00000000E+00
  0.00000000E+00  0.00000000E+00  1.00000000E+00  0.00000000E+00  0.00000000E+00
  0.00000000E+00  0.00000000E+00  1.00000000E+00  0.00000000E+00  0.00000000E+00
  0.00000000E+00  0.00000000E+00  1.00000000E+00  0.00000000E+00  0.00000000E+00
  0.00000000E+00  0.00000000E+00  1.00000000E+00  0.00000000E+00  0.00000000E+00
  0.00000000E+00  0.00000000E+00  1.00000000E+00  0.00000000E+00  0.00000000E+00
  0.00000000E+00  0.00000000E+00  0.00000000E+00  1.00000000E+00  1.00000000E+00
  0.00000000E+00  1.00000000E+00  0.00000000E+00  0.00000000E+00  0.00000000E+00
  0.00000000E+00  0.00000000E+00  0.00000000E+00  0.00000000E+00  0.00000000E+00
  0.00000000E+00  0.00000000E+00
MxBond                                     I                2
NBond                                      I   N=          15
           2           2           2           2           2           1
           1           1           1           1           1           1
           1           1           1
IBond                                      I   N=          30
           6           7           8           9          10          11
          12          13          14          15           1           0
           1           0           2           0           2           0
           3           0           3           0           4           0
           4           0           5           0           5           0
RBond                                      R   N=          30
  1.00000000E+00  1.00000000E+00  1.00000000E+00  1.00000000E+00  1.00000000E+00
  1.00000000E+00  1.00000000E+00  1.00000000E+00  1.00000000E+00  1.00000000E+00
  1.00000000E+00  0.00000000E+00  1.00000000E+00  0.00000000E+00  1.00000000E+00
  0.00000000E+00  1.00000000E+00  0.00000000E+00  1.00000000E+00  0.00000000E+00
  1.00000000E+00  0.00000000E+00  1.00000000E+00  0.00000000E+00  1.00000000E+00
  0.00000000E+00  1.00000000E+00  0.00000000E+00  1.00000000E+00  0.00000000E+00
Virial Ratio                               R      2.036092983380947E+00
SCF Energy                                 R     -3.932114352753685E+02
Total Energy                               R     -3.932114352753685E+02
RMS Density                                R      7.436643527744297E-09
Job Status                                 I                1
Nuclear derivative order                   I                0
External E-field                           R   N=          35
  0.00000000E+00  0.00000000E+00  0.00000000E+00  0.00000000E+00  0.00000000E+00
  0.00000000E+00  0.00000000E+00  0.00000000E+00  0.00000000E+00  0.00000000E+00
  0.00000000E+00  0.00000000E+00  0.00000000E+00  0.00000000E+00  0.00000000E+00
  0.00000000E+00  0.00000000E+00  0.00000000E+00  0.00000000E+00  0.00000000E+00
  0.00000000E+00  0.00000000E+00  0.00000000E+00  0.00000000E+00  0.00000000E+00
  0.00000000E+00  0.00000000E+00  0.00000000E+00  0.00000000E+00  0.00000000E+00
  0.00000000E+00  0.00000000E+00  0.00000000E+00  0.00000000E+00  0.00000000E+00
IOpCl                                      I                0
IROHF                                      I                0
Alpha Orbital Energies                     R   N=         120
 -2.06067449E+01 -2.06001163E+01 -2.05869939E+01 -2.05513175E+01 -2.05265063E+01
 -1.39316318E+00 -1.38357708E+00 -1.36907365E+00 -1.33546633E+00 -1.31195260E+00
 -7.58550534E-01 -7.43179935E-01 -7.30867482E-01 -7.03847219E-01 -6.81216939E-01
 -6.26887225E-01 -6.15643662E-01 -6.08628239E-01 -5.74151226E-01 -5.47550197E-01
 -5.44557390E-01 -5.38575701E-01 -5.29393108E-01 -4.93706009E-01 -4.73483103E-01
  1.62383309E-01  2.09603764E-01  2.29060018E-01  2.76346013E-01  3.02220411E-01
  3.13201400E-01  3.48659342E-01  3.64166048E-01  4.19747375E-01  4.60171089E-01
  9.33060845E-01  9.49407098E-01  9.85534302E-01  1.00523526E+00  1.05703313E+00
  1.05834567E+00  1.06801438E+00  1.08445933E+00  1.10001365E+00  1.10855241E+00
  1.12495625E+00  1.13643657E+00  1.13868789E+00  1.17252533E+00  1.17509459E+00
  1.20580560E+00  1.22950443E+00  1.25038983E+00  1.28219699E+00  1.31498891E+00
  1.33626702E+00  1.34676271E+00  1.37171206E+00  1.40266225E+00  1.44191388E+00
  1.55582939E+00  1.58653917E+00  1.66128063E+00  1.70724753E+00  1.75664703E+00
  1.76248764E+00  1.77774648E+00  1.79658521E+00  1.79968041E+00  1.82306887E+00
  1.82801547E+00  1.83644349E+00  1.86215864E+00  1.86987043E+00  1.87967002E+00
  1.89172512E+00  1.92197607E+00  1.94802719E+00  2.01494607E+00  2.11340934E+00
  2.52205250E+00  2.53718641E+00  2.54677270E+00  2.55805100E+00  2.56318351E+00
  2.56818610E+00  2.61500021E+00  2.62534470E+00  2.66188577E+00  2.72870433E+00
  2.77633233E+00  2.79207337E+00  2.80713704E+00  2.84087590E+00  2.90291430E+00
  2.94376076E+00  2.94543850E+00  2.95450049E+00  2.96659589E+00  2.96946605E+00
  2.99181891E+00  3.00972953E+00  3.02144410E+00  3.03111987E+00  3.04268564E+00
  3.34804872E+00  3.35320415E+00  3.36539326E+00  3.42013125E+00  3.43143321E+00
  3.72467484E+00  3.74464058E+00  3.75612832E+00  3.81786366E+00  3.82915355E+00
  3.90880762E+00  3.92417790E+00  3.96576531E+00  4.00762039E+00  4.02297955E+00
Alpha MO coefficients                      R   N=       14400
  1.13597880E-04  3.22730932E-04 -4.46372110E-05 -2.57084082E-05  1.75965367E-05
 -1.23989727E-03  2.64855265E-04  5.53722539E-04 -3.97513031E-04 -2.00066769E-05
  1.32304450E-05  1.18039776E-04  8.75664286E-05 -1.40555496E-05  9.95712485E-01
  2.22331050E-02 -1.12129516E-03 -9.78728666E-04  1.29306688E-03 -6.53828314E-03
  7.32634832E-04 -1.34686515E-04 -5.44256676E-04 -8.73431093E-05 -2.21395587E-04
  1.91445085E-04 -3.11560006E-04  4.56219471E-05  1.56685655E-05  3.58249959E-05
  4.72955202E-05 -1.13671985E-05 -7.22022485E-06  4.10184277E-05 -2.63223236E-04
  1.61401472E-05  2.96203898E-05 -1.50384355E-05 -3.76085248E-05 -1.10854674E-05
  8.55910442E-06  5.58316981E-07  2.27618948E-04  8.01446285E-05  4.64769033E-05
 -6.04386146E-05 -5.29038713E-05  3.01994015E-05 -1.34093092E-04  2.27418048E-04
  2.28830171E-04  4.05901648E-06  3.57860341E-05 -1.96334769E-05 -1.86104704E-06
  4.69820888E-05 -1.97471537E-05 -1.03675032E-05 -1.42432354E-07 -4.38202061E-06
 -7.59920806E-07  4.21821800E-05  6.73547344E-06  1.26569045E-05  7.48164807E-07
 -3.10010579E-06 -8.31703571E-07 -3.08466826E-06  5.43883691E-06  2.53828274E-06
  7.28521137E-05  1.73610334E-03  1.27666769E-04  3.74709890E-05 -6.51697776E-05
  1.62563604E-05 -2.29805897E-04  1.18800719E-05 -7.26882118E-06  2.39584274E-05
 -3.74526559E-04  1.64042238E-03 -5.58314281E-04  3.77618757E-04  8.29275871E-04
 -6.14301179E-04  9.83577878E-04 -2.37325724E-04 -1.18864076E-03  6.59977046E-05
 -1.01075777E-04 -7.24913951E-05 -3.02087077E-05 -5.72575360E-06  1.26491078E-05
  9.20506362E-05 -1.54289928E-04 -2.79407009E-06  2.16966953E-06  6.42104649E-06
  1.08159307E-04 -4.34088143E-04  2.97366277E-05 -4.85524804E-06  2.92541063E-05
 -5.05951368E-07 -5.60937314E-05  3.30249830E-05 -3.05825108E-06 -2.19061911E-05
 -4.42289267E-07 -7.30171391E-05  9.83455494E-06 -6.55683345E-06 -1.31655081E-05
 -1.18798729E-05  5.21522569E-06  3.68061108E-06  2.06488679E-06  1.43338702E-06
  4.69154765E-05  1.21727666E-04 -2.57796551E-05  9.62923372E-06  2.96373259E-06
 -4.22960267E-04  2.10797442E-04  1.99441595E-04 -1.83910999E-04 -1.89051899E-05
  3.61316088E-05  5.87850522E-05  3.60484353E-05 -9.19994891E-06 -2.17490627E-04
  1.25110289E-04 -2.91407604E-06  1.27634653E-05 -1.28909571E-05 -4.41766381E-04
  1.41157889E-04 -1.70019048E-04 -8.86648859E-05 -3.80788667E-06  2.98952338E-05
 -1.86806543E-05  9.00925454E-06  3.33560065E-05  1.02932026E-04  3.11753067E-04
  5.48232046E-05  2.50234110E-05  3.87576062E-05 -1.04080025E-03 -4.44707670E-04
 -2.47664124E-04 -4.93916780E-04 -7.00493568E-05 -8.70109453E-05 -6.62288229E-05
 -8.92313800E-06 -3.19835142E-05  9.95697573E-01  2.21508395E-02  1.52211611E-03
  8.63794314E-04  6.48137690E-04 -6.04583730E-03 -4.25738806E-04 -2.68302381E-04
  2.17945419E-04  1.52282490E-05  2.46467578E-04 -3.80079819E-04 -1.07285759E-04
  7.54228023E-05 -3.73215450E-05 -1.94514733E-05  1.43949394E-06 -1.03625325E-06
 -1.16867648E-06  7.40754738E-05 -2.28533926E-05  3.07848658E-05  3.40811927E-05
  2.37800915E-06 -4.33602694E-06  9.36951399E-06 -3.62247332E-06 -4.11776748E-06
  2.08329546E-05  5.43924900E-04  4.48507131E-05  8.77563527E-05 -6.79358240E-05
 -1.53630558E-06 -1.78452731E-04  2.22310709E-05  6.05916392E-06  1.91496154E-05
  3.76111939E-05  3.80341298E-04  1.39954475E-05  9.65768999E-06 -8.60417487E-05
  4.62081242E-05 -1.13386462E-04 -6.68154622E-06  4.67896400E-06 -2.98363037E-06
  4.24455170E-05 -3.05829736E-04 -1.92711399E-05  7.01634398E-06  2.52973978E-05
  1.54107954E-04  1.39950335E-03  6.95755007E-06 -3.56277067E-05 -2.94384446E-05
 -6.48738871E-04  9.44953181E-04  7.35652879E-04 -3.13444292E-04  9.20974458E-04
 -4.49253970E-04  1.11205053E-03  4.56372427E-04  9.87029533E-04 -3.62143384E-04
 -7.62021839E-06 -1.02944491E-04 -2.86152199E-06  1.16859777E-05  9.43820136E-06
 -5.25266910E-06  2.38692180E-05 -1.66821054E-06 -1.92052560E-06 -8.41343856E-07
  1.78665623E-05  8.04975584E-06  3.40652954E-05 -5.12507676E-05 -4.95425975E-05
  2.11479876E-04 -1.17091164E-04  8.00945322E-05  2.20445375E-04  2.27435103E-05
  1.03417916E-05 -2.52744399E-05  5.35639299E-06  2.79950404E-05  1.60412141E-05
 -2.50229357E-05  1.47996074E-05 -1.61607722E-05 -1.85034792E-05  1.22773468E-04
 -1.03190257E-04  1.73815873E-04  1.18227428E-04  1.85872239E-05 -2.26847358E-05
  3.85789820E-06  1.65350434E-05 -2.76808484E-05 -2.55329972E-06 -9.79758361E-07
 -1.28890772E-05  3.34566499E-06  3.75068059E-06 -4.40697779E-05  7.04299874E-05
 -8.39120644E-06 -2.40032519E-05  3.27946928E-06  9.62143557E-06  1.97490694E-06
 -3.93780276E-06 -1.70004027E-07  3.52556516E-05 -1.32714834E-05 -9.23281872E-06
  5.05643777E-06  6.85064746E-06  2.78051251E-05  4.25892035E-05 -4.75676346E-06
 -2.09815861E-05 -2.22699013E-07 -8.10800259E-06 -1.88031798E-06 -1.91013338E-07
 -4.48606655E-07  9.95708273E-01  2.20509974E-02  1.03158975E-03  1.52256407E-03
  7.80726682E-04 -6.21853408E-03 -3.94628097E-04 -8.34182438E-04 -5.11238776E-04
 -1.11367342E-04 -2.51462457E-04  2.18710180E-04  1.99248310E-04  9.91587834E-06
  1.00537155E-04 -4.79913653E-04 -2.81022945E-06 -5.85215798E-05  1.12670442E-05
  4.51507604E-05 -8.22385338E-05  3.22275174E-05 -2.18560601E-05 -1.60319918E-05
 -1.09752969E-04 -6.25375396E-05 -1.75488416E-05  7.22432143E-06  3.14672293E-05
  6.15742017E-05  1.81807531E-05  1.58658328E-05  1.21265864E-05 -1.93537088E-05
  3.47021517E-05  1.58603807E-05  1.00187149E-05  1.87191301E-06 -3.00913049E-06
 -2.40650160E-05  7.98378764E-05 -1.56205399E-06 -1.03687389E-06 -2.25941621E-06
 -1.15553991E-05  1.04923035E-05 -4.78273960E-06 -3.67874283E-07  3.46740299E-06
 -1.52360467E-05  3.91079481E-08 -2.29762253E-06  6.16940062E-06 -3.52707057E-07
 -4.77350701E-04  1.63533190E-03 -2.80090603E-04  7.39284507E-04  7.18636789E-04
 -4.99207242E-04  1.17560722E-03  1.10026148E-03  3.44047670E-04 -1.47985997E-04
  9.95721718E-01  2.23130674E-02  1.04912039E-03 -7.03539471E-04  1.46400893E-03
 -7.21435375E-03 -2.38099539E-04  9.60090332E-04 -1.09386256E-03 -1.51940989E-04
  1.11362103E-04 -9.89232871E-05  1.58688187E-04  2.98343294E-04 -8.28457529E-05
  2.67326620E-04 -4.89754790E-05  1.11408269E-04 -1.02887264E-04 -5.13352927E-04
  2.24171369E-04 -7.18957579E-04  4.05042248E-04 -3.08447656E-05 -5.84775592E-06
  3.92748588E-05 -1.26264482E-06  9.85641201E-05  1.90773041E-05  4.53307193E-05
  4.76259350E-05 -2.61337044E-05 -4.33712138E-06 -1.61783524E-05 -2.53936660E-04
  5.07089676E-05  1.98707215E-05 -3.72010816E-06 -2.34281265E-05 -9.16307613E-06
 -1.51762184E-05  3.17658453E-06 -3.14287145E-05  1.08665470E-04  2.51914457E-05
 -1.37765141E-05 -2.99588674E-05 -3.14392127E-04 -1.73901071E-04 -6.20712076E-05
  1.42941541E-04 -8.22625033E-06  3.94718276E-05  1.07228022E-05  5.66535599E-06