#INFO: **** input file is /home/liwei01/wsr/dftpart/test_2body/w32/gfea_c8.py ****
from dftpart import gfea3
from pyscf import lib

par = 8
with lib.with_omp_threads(par):
    fr0 = gfea3.GFEA()
    fr0.inputstyle = 'frg'
    fr0.method = ['hf', '6-31gss','charge']
    fr0.gjfname = 'w32'
    fr0.output = 'w32'
    fr0.verbose = 9
    fr0.showinter = True
    #fr0.do_deriv = True
    fr0.kernel()

#INFO: ******************** input file end ********************


System: uname_result(system='Linux', node='master', release='3.10.0-693.el7.x86_64', version='#1 SMP Tue Aug 22 21:09:27 UTC 2017', machine='x86_64', processor='x86_64')  Threads 8
Python 3.7.6 (default, Jan  8 2020, 19:59:22) 
[GCC 7.3.0]
numpy 1.18.1  scipy 1.4.1
Date: Tue Jun 16 20:58:33 2020
PySCF version 1.6.1
PySCF path  /home/liwei01/zcheng/pyscf/pyscf
GIT HEAD      ref: refs/heads/master
GIT master branch  3adc7fd25839fe674469a52b764c3661e32d7318

[CONFIG] DEBUG = False
[CONFIG] MAX_MEMORY = 4000
[CONFIG] TMPDIR = .
[CONFIG] UNIT = angstrom
[CONFIG] VERBOSE = 3
[CONFIG] conf_file = None
[INPUT] verbose = 9
[INPUT] max_memory = 4000 
[INPUT] num. atoms = 18
[INPUT] num. electrons = 60
[INPUT] charge = 0
[INPUT] spin (= nelec alpha-beta = 2S) = 0
[INPUT] symmetry False subgroup None
[INPUT] Mole.unit = angstrom
[INPUT]  1 O      8.693246000000 -14.069272000000  -9.547113000000 AA   16.427854073471 -26.587070852012 -18.041428850275 Bohr
[INPUT]  2 O     12.996031000000 -14.713850000000 -11.210036000000 AA   24.558939296357 -27.805146737932 -21.183897886515 Bohr
[INPUT]  3 O      8.961140000000 -17.016740000000  -9.275474000000 AA   16.934100363885 -32.156978132931 -17.528105535524 Bohr
[INPUT]  4 O     11.471495000000 -15.355316000000  -7.518016000000 AA   21.677983789317 -29.017341796152 -14.206991240098 Bohr
[INPUT]  5 O     12.813764000000 -13.018467000000  -7.366324000000 AA   24.214504584811 -24.601337191688 -13.920334904811 Bohr
[INPUT]  6 O     11.324452000000 -17.011592000000 -10.762770000000 AA   21.400112790783 -32.147249822842 -20.338687641685 Bohr
[INPUT]  7 H      8.220090000000 -13.732742000000  -8.786125000000 AA   15.533718819276 -25.951121319312 -16.603369946194 Bohr
[INPUT]  8 H      8.552802000000 -15.015659000000  -9.517782000000 AA   16.162453377632 -28.375483089860 -17.986001293315 Bohr
[INPUT]  9 H     12.286420000000 -15.161884000000 -10.749655000000 AA   23.217968851379 -28.651808292425 -20.313903883561 Bohr
[INPUT] 10 H     13.635659000000 -14.512360000000 -10.527021000000 AA   25.767661037961 -27.424385821093 -19.893186597545 Bohr
[INPUT] 11 H      8.673584000000 -17.219063000000  -8.385188000000 AA   16.390698278410 -32.539313191632 -15.845708822989 Bohr
[INPUT] 12 H      8.302553000000 -17.423375000000  -9.838628000000 AA   15.689551304686 -32.925406915594 -18.592312361477 Bohr
[INPUT] 13 H     10.864403000000 -15.355750000000  -8.258065000000 AA   20.530746176903 -29.018161937290 -15.605481168856 Bohr
[INPUT] 14 H     11.907538000000 -14.504542000000  -7.565812000000 AA   22.501985637851 -27.409611942251 -14.297312589948 Bohr
[INPUT] 15 H     12.481900000000 -12.417138000000  -6.699613000000 AA   23.587372514209 -23.464990070930 -12.660433710576 Bohr
[INPUT] 16 H     12.655150000000 -12.568166000000  -8.195965000000 AA   23.914767565290 -23.750391628070 -15.488129176521 Bohr
[INPUT] 17 H     11.716545000000 -17.863306000000 -10.570212000000 AA   22.141061176142 -33.756756019300 -19.974805758591 Bohr
[INPUT] 18 H     10.442780000000 -17.064361000000 -10.393850000000 AA   19.733994179086 -32.246968780709 -19.641529879811 Bohr
[INPUT] ---------------- BASIS SET ---------------- 
[INPUT] l, kappa, [nprim/nctr], expnt,             c_1 c_2 ...
[INPUT] H
[INPUT] 0    0    [3    /1   ]  18.731137         0.0334946
                                2.8253937         0.23472695
                                0.6401217         0.81375733
[INPUT] 0    0    [1    /1   ]  0.1612778            1
[INPUT] 1    0    [1    /1   ]  1.1                  1
[INPUT] O
[INPUT] 0    0    [6    /1   ]  5484.6717         0.0018311
                                825.23495         0.0139501
                                188.04696         0.0684451
                                52.9645           0.2327143
                                16.89757          0.470193
                                5.7996353         0.3585209
[INPUT] 0    0    [3    /1   ]  15.539616         -0.1107775
                                3.5999336         -0.1480263
                                1.0137618         1.130767
[INPUT] 0    0    [1    /1   ]  0.2700058            1
[INPUT] 1    0    [3    /1   ]  15.539616         0.0708743
                                3.5999336         0.3397528
                                1.0137618         0.7271586
[INPUT] 1    0    [1    /1   ]  0.2700058            1
[INPUT] 2    0    [1    /1   ]  0.8                  1

nuclear repulsion = 264.551161049435
number of shells = 72
number of NR pGTOs = 246
number of NR cGTOs = 144
basis = 6-31gss
ecp = {}
bas 0, expnt(s) = [5484.6717     825.23495    188.04696     52.9645      16.89757
    5.7996353]
bas 1, expnt(s) = [15.539616   3.5999336  1.0137618]
bas 2, expnt(s) = [0.2700058]
bas 3, expnt(s) = [15.539616   3.5999336  1.0137618]
bas 4, expnt(s) = [0.2700058]
bas 5, expnt(s) = [0.8]
bas 6, expnt(s) = [5484.6717     825.23495    188.04696     52.9645      16.89757
    5.7996353]
bas 7, expnt(s) = [15.539616   3.5999336  1.0137618]
bas 8, expnt(s) = [0.2700058]
bas 9, expnt(s) = [15.539616   3.5999336  1.0137618]
bas 10, expnt(s) = [0.2700058]
bas 11, expnt(s) = [0.8]
bas 12, expnt(s) = [5484.6717     825.23495    188.04696     52.9645      16.89757
    5.7996353]
bas 13, expnt(s) = [15.539616   3.5999336  1.0137618]
bas 14, expnt(s) = [0.2700058]
bas 15, expnt(s) = [15.539616   3.5999336  1.0137618]
bas 16, expnt(s) = [0.2700058]
bas 17, expnt(s) = [0.8]
bas 18, expnt(s) = [5484.6717     825.23495    188.04696     52.9645      16.89757
    5.7996353]
bas 19, expnt(s) = [15.539616   3.5999336  1.0137618]
bas 20, expnt(s) = [0.2700058]
bas 21, expnt(s) = [15.539616   3.5999336  1.0137618]
bas 22, expnt(s) = [0.2700058]
bas 23, expnt(s) = [0.8]
bas 24, expnt(s) = [5484.6717     825.23495    188.04696     52.9645      16.89757
    5.7996353]
bas 25, expnt(s) = [15.539616   3.5999336  1.0137618]
bas 26, expnt(s) = [0.2700058]
bas 27, expnt(s) = [15.539616   3.5999336  1.0137618]
bas 28, expnt(s) = [0.2700058]
bas 29, expnt(s) = [0.8]
bas 30, expnt(s) = [5484.6717     825.23495    188.04696     52.9645      16.89757
    5.7996353]
bas 31, expnt(s) = [15.539616   3.5999336  1.0137618]
bas 32, expnt(s) = [0.2700058]
bas 33, expnt(s) = [15.539616   3.5999336  1.0137618]
bas 34, expnt(s) = [0.2700058]
bas 35, expnt(s) = [0.8]
bas 36, expnt(s) = [18.731137   2.8253937  0.6401217]
bas 37, expnt(s) = [0.1612778]
bas 38, expnt(s) = [1.1]
bas 39, expnt(s) = [18.731137   2.8253937  0.6401217]
bas 40, expnt(s) = [0.1612778]
bas 41, expnt(s) = [1.1]
bas 42, expnt(s) = [18.731137   2.8253937  0.6401217]
bas 43, expnt(s) = [0.1612778]
bas 44, expnt(s) = [1.1]
bas 45, expnt(s) = [18.731137   2.8253937  0.6401217]
bas 46, expnt(s) = [0.1612778]
bas 47, expnt(s) = [1.1]
bas 48, expnt(s) = [18.731137   2.8253937  0.6401217]
bas 49, expnt(s) = [0.1612778]
bas 50, expnt(s) = [1.1]
bas 51, expnt(s) = [18.731137   2.8253937  0.6401217]
bas 52, expnt(s) = [0.1612778]
bas 53, expnt(s) = [1.1]
bas 54, expnt(s) = [18.731137   2.8253937  0.6401217]
bas 55, expnt(s) = [0.1612778]
bas 56, expnt(s) = [1.1]
bas 57, expnt(s) = [18.731137   2.8253937  0.6401217]
bas 58, expnt(s) = [0.1612778]
bas 59, expnt(s) = [1.1]
bas 60, expnt(s) = [18.731137   2.8253937  0.6401217]
bas 61, expnt(s) = [0.1612778]
bas 62, expnt(s) = [1.1]
bas 63, expnt(s) = [18.731137   2.8253937  0.6401217]
bas 64, expnt(s) = [0.1612778]
bas 65, expnt(s) = [1.1]
bas 66, expnt(s) = [18.731137   2.8253937  0.6401217]
bas 67, expnt(s) = [0.1612778]
bas 68, expnt(s) = [1.1]
bas 69, expnt(s) = [18.731137   2.8253937  0.6401217]
bas 70, expnt(s) = [0.1612778]
bas 71, expnt(s) = [1.1]
CPU time:       839.58
arg.atm = [[ 8 20  1 23  0  0]
 [ 8 24  1 27  0  0]
 [ 8 28  1 31  0  0]
 [ 8 32  1 35  0  0]
 [ 8 36  1 39  0  0]
 [ 8 40  1 43  0  0]
 [ 1 44  1 47  0  0]
 [ 1 48  1 51  0  0]
 [ 1 52  1 55  0  0]
 [ 1 56  1 59  0  0]
 [ 1 60  1 63  0  0]
 [ 1 64  1 67  0  0]
 [ 1 68  1 71  0  0]
 [ 1 72  1 75  0  0]
 [ 1 76  1 79  0  0]
 [ 1 80  1 83  0  0]
 [ 1 84  1 87  0  0]
 [ 1 88  1 91  0  0]]
arg.bas = [[  0   0   6   1   0 102 108   0]
 [  0   0   3   1   0 114 117   0]
 [  0   0   1   1   0 120 121   0]
 [  0   1   3   1   0 122 125   0]
 [  0   1   1   1   0 128 129   0]
 [  0   2   1   1   0 130 131   0]
 [  1   0   6   1   0 102 108   0]
 [  1   0   3   1   0 114 117   0]
 [  1   0   1   1   0 120 121   0]
 [  1   1   3   1   0 122 125   0]
 [  1   1   1   1   0 128 129   0]
 [  1   2   1   1   0 130 131   0]
 [  2   0   6   1   0 102 108   0]
 [  2   0   3   1   0 114 117   0]
 [  2   0   1   1   0 120 121   0]
 [  2   1   3   1   0 122 125   0]
 [  2   1   1   1   0 128 129   0]
 [  2   2   1   1   0 130 131   0]
 [  3   0   6   1   0 102 108   0]
 [  3   0   3   1   0 114 117   0]
 [  3   0   1   1   0 120 121   0]
 [  3   1   3   1   0 122 125   0]
 [  3   1   1   1   0 128 129   0]
 [  3   2   1   1   0 130 131   0]
 [  4   0   6   1   0 102 108   0]
 [  4   0   3   1   0 114 117   0]
 [  4   0   1   1   0 120 121   0]
 [  4   1   3   1   0 122 125   0]
 [  4   1   1   1   0 128 129   0]
 [  4   2   1   1   0 130 131   0]
 [  5   0   6   1   0 102 108   0]
 [  5   0   3   1   0 114 117   0]
 [  5   0   1   1   0 120 121   0]
 [  5   1   3   1   0 122 125   0]
 [  5   1   1   1   0 128 129   0]
 [  5   2   1   1   0 130 131   0]
 [  6   0   3   1   0  92  95   0]
 [  6   0   1   1   0  98  99   0]
 [  6   1   1   1   0 100 101   0]
 [  7   0   3   1   0  92  95   0]
 [  7   0   1   1   0  98  99   0]
 [  7   1   1   1   0 100 101   0]
 [  8   0   3   1   0  92  95   0]
 [  8   0   1   1   0  98  99   0]
 [  8   1   1   1   0 100 101   0]
 [  9   0   3   1   0  92  95   0]
 [  9   0   1   1   0  98  99   0]
 [  9   1   1   1   0 100 101   0]
 [ 10   0   3   1   0  92  95   0]
 [ 10   0   1   1   0  98  99   0]
 [ 10   1   1   1   0 100 101   0]
 [ 11   0   3   1   0  92  95   0]
 [ 11   0   1   1   0  98  99   0]
 [ 11   1   1   1   0 100 101   0]
 [ 12   0   3   1   0  92  95   0]
 [ 12   0   1   1   0  98  99   0]
 [ 12   1   1   1   0 100 101   0]
 [ 13   0   3   1   0  92  95   0]
 [ 13   0   1   1   0  98  99   0]
 [ 13   1   1   1   0 100 101   0]
 [ 14   0   3   1   0  92  95   0]
 [ 14   0   1   1   0  98  99   0]
 [ 14   1   1   1   0 100 101   0]
 [ 15   0   3   1   0  92  95   0]
 [ 15   0   1   1   0  98  99   0]
 [ 15   1   1   1   0 100 101   0]
 [ 16   0   3   1   0  92  95   0]
 [ 16   0   1   1   0  98  99   0]
 [ 16   1   1   1   0 100 101   0]
 [ 17   0   3   1   0  92  95   0]
 [ 17   0   1   1   0  98  99   0]
 [ 17   1   1   1   0 100 101   0]]
arg.env = [ 1.37036000e+02  0.00000000e+00  0.00000000e+00  0.00000000e+00
  0.00000000e+00  0.00000000e+00  0.00000000e+00  0.00000000e+00
  0.00000000e+00  0.00000000e+00  0.00000000e+00  0.00000000e+00
  0.00000000e+00  0.00000000e+00  0.00000000e+00  0.00000000e+00
  0.00000000e+00  0.00000000e+00  0.00000000e+00  0.00000000e+00
  1.64278541e+01 -2.65870709e+01 -1.80414289e+01  0.00000000e+00
  2.45589393e+01 -2.78051467e+01 -2.11838979e+01  0.00000000e+00
  1.69341004e+01 -3.21569781e+01 -1.75281055e+01  0.00000000e+00
  2.16779838e+01 -2.90173418e+01 -1.42069912e+01  0.00000000e+00
  2.42145046e+01 -2.46013372e+01 -1.39203349e+01  0.00000000e+00
  2.14001128e+01 -3.21472498e+01 -2.03386876e+01  0.00000000e+00
  1.55337188e+01 -2.59511213e+01 -1.66033699e+01  0.00000000e+00
  1.61624534e+01 -2.83754831e+01 -1.79860013e+01  0.00000000e+00
  2.32179689e+01 -2.86518083e+01 -2.03139039e+01  0.00000000e+00
  2.57676610e+01 -2.74243858e+01 -1.98931866e+01  0.00000000e+00
  1.63906983e+01 -3.25393132e+01 -1.58457088e+01  0.00000000e+00
  1.56895513e+01 -3.29254069e+01 -1.85923124e+01  0.00000000e+00
  2.05307462e+01 -2.90181619e+01 -1.56054812e+01  0.00000000e+00
  2.25019856e+01 -2.74096119e+01 -1.42973126e+01  0.00000000e+00
  2.35873725e+01 -2.34649901e+01 -1.26604337e+01  0.00000000e+00
  2.39147676e+01 -2.37503916e+01 -1.54881292e+01  0.00000000e+00
  2.21410612e+01 -3.37567560e+01 -1.99748058e+01  0.00000000e+00
  1.97339942e+01 -3.22469688e+01 -1.96415299e+01  0.00000000e+00
  1.87311370e+01  2.82539370e+00  6.40121700e-01  7.61926220e-01
  1.29237100e+00  1.47131900e+00  1.61277800e-01  6.42977783e-01
  1.10000000e+00  3.28643653e+00  5.48467170e+03  8.25234950e+02
  1.88046960e+02  5.29645000e+01  1.68975700e+01  5.79963530e+00
  2.94842455e+00  5.42657124e+00  8.78126489e+00  1.15432129e+01
  9.90055015e+00  3.38516599e+00  1.55396160e+01  3.59993360e+00
  1.01376180e+00 -2.19051792e+00 -9.77405528e-01  2.88629094e+00
  2.70005800e-01  9.46334873e-01  1.55396160e+01  3.59993360e+00
  1.01376180e+00  6.37930734e+00  4.91490975e+00  2.15791055e+00
  2.70005800e-01  5.67807022e-01  8.00000000e-01  1.76578110e+00]
ecpbas  = []


******** <class 'pyscf.qmmm.itrf.mm_charge.<locals>.QMMM'> ********
method = QMMM-RHF
initial guess = minao
damping factor = 0
level shift factor = 0
DIIS = <class 'pyscf.scf.diis.CDIIS'>
DIIS start cycle = 1
DIIS space = 8
SCF tol = 1e-09
SCF gradient tol = None
max. SCF cycles = 50
direct_scf = True
direct_scf_tol = 1e-13
chkfile to save SCF result = /home/liwei01/wsr/dftpart/test_2body/w32/tmpsjv0ck41
max_memory 4000 MB (current use 332 MB)
** Add background charges for <class 'pyscf.scf.hf.RHF'> **
Charge      Location
-1.056075    [ 15.8591958  -22.32322322 -21.16584533]
0.523264    [ 15.44903263 -23.69303655 -20.05800473]
0.517699    [ 17.48403712 -21.75849557 -20.60647128]
-1.035697    [ 20.23144001 -20.50137794 -19.07019386]
0.520608    [ 21.7723038  -21.39222885 -18.74761761]
0.515624    [ 19.97024207 -19.49608333 -17.58928542]
-1.024266    [ 13.70105109 -18.63199472 -24.76194313]
0.515186    [ 13.45609723 -19.31578456 -26.41855264]
0.515422    [ 13.87339411 -20.08163576 -23.69387937]
-1.050024    [ 10.52651529 -24.11298283 -20.2839555 ]
0.521386    [  8.7734466  -24.2410798  -19.85703047]
0.506414    [ 11.30765248 -23.44237383 -18.79666545]
-1.032359    [ 13.1641969  -17.47579981 -19.41562257]
0.514165    [ 13.18112696 -18.60438393 -20.82910748]
0.518479    [ 14.52136419 -16.32434621 -19.73837456]
-1.052762    [ 13.11969196 -22.35429031 -15.81898054]
0.521035    [ 14.16458201 -22.84877684 -14.42771692]
0.525545    [ 13.80909996 -20.77345693 -16.36451423]
-1.002885    [ 18.40539199 -27.51482622 -24.72543362]
0.521542    [ 17.83274639 -26.30664305 -23.50711585]
0.49877    [ 20.13069872 -27.06649815 -25.03241585]
-1.054902    [ 19.05772167 -18.14703431 -25.87868434]
0.517977    [ 18.59105569 -18.66655214 -27.54728983]
0.522623    [ 17.51229609 -18.19498233 -24.93991564]
-0.997115    [ 17.90283445 -15.11249509 -20.63210731]
0.530073    [ 18.89257472 -16.62132612 -20.50652934]
0.49195    [ 18.18557149 -14.25298717 -19.06582671]
-1.032188    [ 15.97118286 -20.09833149 -29.6421136 ]
0.47982    [ 15.3540909  -19.66610766 -31.28659296]
0.534069    [ 17.50300052 -21.00734455 -29.95701189]
-0.992133    [  7.63287216 -21.21078113 -24.19682809]
0.480184    [  8.55071592 -22.76668147 -24.10379498]
0.504586    [  8.37549106 -20.32880248 -25.59058803]
-1.012936    [ 10.55365553 -29.46492154 -21.67488842]
0.504954    [  8.84108934 -29.00412127 -22.03084479]
0.525721    [ 11.34418277 -27.91794449 -21.17105153]
-0.985176    [ 16.63195772 -23.48150439 -12.27810621]
0.500614    [ 17.11266814 -22.20236011 -11.09293235]
0.508291    [ 16.89319913 -25.03868407 -11.39557387]
-0.979947    [ 19.94097588 -17.12125506 -14.67509908]
0.500341    [ 18.95312155 -17.86288753 -13.35371942]
0.493696    [ 19.00620207 -15.6543646  -15.17143564]
-0.982261    [ 16.04742575 -26.75780005 -29.6895325 ]
0.479882    [ 16.71262824 -28.42851069 -29.88488293]
0.495008    [ 16.8532352  -26.12000803 -28.20097066]
-0.983713    [ 20.17321188 -22.53529584 -29.89394228]
0.505479    [ 21.06170253 -23.16751127 -28.4507471 ]
0.512532    [ 20.35114661 -23.83370776 -31.14069287]
-1.011239    [ 14.66303696 -31.18986921 -25.03135193]
0.492592    [ 13.80996545 -30.6346091  -23.53606456]
0.497341    [ 16.13314373 -30.14067248 -25.13086491]
-0.999332    [ 25.43111026 -22.24828235 -18.47023794]
0.512801    [ 26.28398524 -20.77981964 -19.09325419]
0.507583    [ 26.7410892  -23.47726762 -18.25698991]
-1.016163    [ 10.56617686 -29.35403808 -16.44102735]
0.483053    [ 11.92280935 -30.36927076 -15.8079521 ]
0.523726    [ 10.34862781 -29.90290525 -18.15080431]
-0.976012    [ 10.09067452 -21.18806662 -29.24260093]
0.486289    [ 11.11173701 -19.76402949 -29.69146191]
0.496485    [ 10.37375928 -22.38512875 -30.56881072]
-0.989717    [  8.77070649 -15.37911655 -23.94499373]
0.487556    [  8.68859978 -13.74216775 -23.17975481]
0.496916    [ 10.53805395 -15.75730555 -24.01835668]
-0.998393    [ 24.35861321 -18.31258187 -25.98586582]
0.466984    [ 25.48944989 -18.60606579 -24.60492389]
0.51604    [ 22.70911474 -18.4111103  -25.25008395]
-1.010464    [  9.27281806 -14.9477601  -17.25327322]
0.476424    [  7.6789399  -15.16789619 -18.07972415]
0.517552    [ 10.24747455 -16.38576609 -17.75736144]
-0.991473    [  5.5836248  -24.00414405 -18.66237963]
0.501887    [  5.79022289 -25.52045085 -17.69798247]
0.510487    [  5.17491673 -22.73885336 -17.43603619]
-1.029267    [  7.95719829 -25.19119252 -14.2761212 ]
0.497876    [  9.38018663 -24.0850659  -14.1227926 ]
0.519667    [  8.66153702 -26.76190075 -14.83174226]
-1.001943    [ 16.13613705 -11.83176802 -24.46883904]
0.509813    [ 16.78082846 -12.94299123 -23.1954641 ]
0.477312    [ 17.5304658  -11.57071369 -25.59117007]
Set gradient conv threshold to 3.16228e-05
Nelec from initial guess = 59.93301689565581
cond(S) = 159.08651043656394
E1 = -1150.2873008683775  E_coul = 428.15662584817795
init E= -455.271316996164
    CPU time for initialize scf      3.64 sec, wall time      0.47 sec
  HOMO = -0.504678511265882  LUMO = 0.0156620875381503
  mo_energy =
[-2.08632516e+01 -2.08606222e+01 -2.08502111e+01 -2.08457071e+01
 -2.08317182e+01 -2.08301570e+01 -1.70455977e+00 -1.69195691e+00
 -1.68180935e+00 -1.66418397e+00 -1.64330974e+00 -1.63369264e+00
 -8.21158478e-01 -8.15842888e-01 -8.13792031e-01 -8.03952547e-01
 -7.96904654e-01 -7.74740783e-01 -6.58874346e-01 -6.56931808e-01
 -6.52702875e-01 -6.38407995e-01 -6.21870825e-01 -5.99515883e-01
 -5.37666173e-01 -5.31912907e-01 -5.26988002e-01 -5.17859866e-01
 -5.13525889e-01 -5.04678511e-01  1.56620875e-02  5.91734413e-02
  9.58583882e-02  1.24169872e-01  1.34425987e-01  1.55919521e-01
  1.98343824e-01  2.08506067e-01  2.34634242e-01  2.44304796e-01
  2.86364142e-01  2.97052806e-01  8.34242747e-01  8.66464726e-01
  8.70779113e-01  8.91466892e-01  9.02667024e-01  9.18051761e-01
  9.33495804e-01  9.48805173e-01  9.56125122e-01  9.65213590e-01
  9.75719046e-01  9.82899911e-01  9.87427844e-01  1.00926712e+00
  1.01825352e+00  1.02183950e+00  1.04356376e+00  1.06081249e+00
  1.06947310e+00  1.08773437e+00  1.10235141e+00  1.12698234e+00
  1.13967739e+00  1.17155871e+00  1.17980968e+00  1.19198808e+00
  1.19868983e+00  1.20815308e+00  1.25610341e+00  1.32966664e+00
  1.42967758e+00  1.48621782e+00  1.50789301e+00  1.59242900e+00
  1.63211240e+00  1.64275524e+00  1.65212109e+00  1.66057449e+00
  1.66362535e+00  1.66760568e+00  1.67615591e+00  1.69053042e+00
  1.70057199e+00  1.70469177e+00  1.72130321e+00  1.73119611e+00
  1.74680627e+00  1.75237183e+00  1.76071335e+00  1.77697087e+00
  1.78882032e+00  1.83982159e+00  1.87042348e+00  1.91339916e+00
  2.43075625e+00  2.44061478e+00  2.44304677e+00  2.47323047e+00
  2.48450539e+00  2.49244981e+00  2.50170598e+00  2.52037101e+00
  2.52952699e+00  2.54980006e+00  2.57283538e+00  2.58366250e+00
  2.66809051e+00  2.67835424e+00  2.68641866e+00  2.70469413e+00
  2.75649749e+00  2.79482576e+00  2.84494716e+00  2.86317563e+00
  2.86999110e+00  2.87883868e+00  2.88615053e+00  2.89816806e+00
  2.90567550e+00  2.90767623e+00  2.91853431e+00  2.92859942e+00
  2.94984410e+00  2.96840724e+00  3.26586010e+00  3.26732440e+00
  3.28591386e+00  3.29229448e+00  3.31341919e+00  3.31979704e+00
  3.64203641e+00  3.65048045e+00  3.65847498e+00  3.68202403e+00
  3.70247893e+00  3.73242468e+00  3.80695942e+00  3.81658153e+00
  3.82054940e+00  3.83764261e+00  3.87599206e+00  3.90425184e+00]
E1 = -1165.4250017159575  E_coul = 442.5867014722023
cycle= 1 E= -455.978942219719  delta_E= -0.708  |g|= 1.05  |ddm|=  2.9
    CPU time for cycle= 1      0.55 sec, wall time      0.07 sec
diis-norm(errvec)=1.88677
diis-c [-3.55990653  1.        ]
  HOMO = -0.40067572143971  LUMO = 0.115382176725593
  mo_energy =
[-20.50643903 -20.43990873 -20.35273913 -20.3312857  -20.30275858
 -20.2850179   -1.41626539  -1.36652388  -1.3143625   -1.28060182
  -1.26021259  -1.25341882  -0.78941819  -0.74164426  -0.70324432
  -0.68185303  -0.65634879  -0.64710018  -0.61759397  -0.57334323
  -0.56875513  -0.53079264  -0.51597116  -0.50065933  -0.4770857
  -0.46455308  -0.45685342  -0.42448589  -0.4045673   -0.40067572
   0.11538218   0.15291664   0.20906527   0.21662735   0.22310868
   0.24438724   0.28438318   0.28808608   0.3523065    0.40138912
   0.43300417   0.46812995   0.91134494   0.93631088   0.97482849
   0.99568814   1.01419308   1.02584129   1.04044087   1.05088714
   1.07261998   1.08991689   1.10141389   1.14970336   1.15168733
   1.17023185   1.20243084   1.21272443   1.22365962   1.23001303
   1.24025967   1.2552029    1.27481712   1.28770504   1.29830506
   1.31256756   1.32970288   1.35076879   1.3738421    1.39685194
   1.41742733   1.50710888   1.54958094   1.62390763   1.67275986
   1.70381997   1.73353292   1.7458247    1.76443205   1.77520019
   1.78763675   1.80596695   1.82293137   1.83755703   1.85254172
   1.86329378   1.87992742   1.89248028   1.90831765   1.91566151
   1.95003918   1.96394055   1.98659037   2.01275582   2.02370081
   2.06960062   2.45133988   2.48708994   2.49397195   2.53304985
   2.535701     2.55941624   2.59219182   2.60604712   2.63179094
   2.66839974   2.70098558   2.74045282   2.76146102   2.76858804
   2.80156571   2.8336889    2.85908926   2.88196713   2.90969448
   2.92876228   2.94593129   2.95914455   2.98545432   2.9902878
   2.99471755   3.00901782   3.03679019   3.05614452   3.06648791
   3.07285499   3.29457727   3.32802084   3.35900635   3.40441113
   3.41586156   3.42944785   3.66320644   3.69608065   3.74703685
   3.80045667   3.80523475   3.85129679   3.88468435   3.91314515
   3.96686061   4.00311676   4.03048788   4.0898188 ]
E1 = -1156.3934502980776  E_coul = 433.3917169454381
cycle= 2 E= -456.142375328604  delta_E= -0.163  |g|= 0.507  |ddm|= 0.844
    CPU time for cycle= 2      0.61 sec, wall time      0.08 sec
diis-norm(errvec)=0.846812
diis-c [-0.16606283  0.2872113   0.7127887 ]
  HOMO = -0.497060523718177  LUMO = 0.115715663908998
  mo_energy =
[-20.68414351 -20.65222066 -20.63311105 -20.59461618 -20.58928094
 -20.57546023  -1.45634046  -1.42305349  -1.39498786  -1.36216477
  -1.35075788  -1.34320266  -0.81679771  -0.78261681  -0.76204533
  -0.73907046  -0.72337925  -0.71888548  -0.67284128  -0.64089802
  -0.63475498  -0.60552554  -0.59145791  -0.58752133  -0.57059543
  -0.55119795  -0.54657124  -0.51380731  -0.50429991  -0.49706052
   0.11571566   0.14913326   0.20041706   0.20932931   0.2256584
   0.23445492   0.27013511   0.28015405   0.33554357   0.37334834
   0.40368755   0.4353878    0.89979921   0.92468231   0.95375398
   0.98549883   0.99856543   1.00122105   1.01317724   1.02965649
   1.05273305   1.06102885   1.07036443   1.09600601   1.09975383
   1.11130719   1.13405391   1.13754867   1.15908403   1.17297175
   1.18564883   1.18902593   1.21269878   1.21963513   1.24508633
   1.26831249   1.28348441   1.29742101   1.31243859   1.33555178
   1.34415656   1.44641009   1.5082442    1.58050566   1.62415033
   1.68735472   1.68927265   1.7179063    1.73209483   1.74190323
   1.74635155   1.76782956   1.77791302   1.78856145   1.80578651
   1.81672184   1.82776717   1.83130325   1.85710723   1.86381047
   1.89572364   1.90562672   1.92531975   1.95580024   1.97534124
   2.0107849    2.46432149   2.47981789   2.49893375   2.50327576
   2.53461525   2.55230779   2.57462107   2.5861006    2.59227427
   2.61979454   2.66009739   2.71161114   2.72554618   2.74039957
   2.76432771   2.80244313   2.81696681   2.86483526   2.9112754
   2.91745672   2.91927119   2.94094041   2.96514959   2.96679768
   2.97019607   2.98425111   2.99210365   3.01912632   3.03336967
   3.03880752   3.29368368   3.31833471   3.33871945   3.37173313
   3.38665105   3.39502768   3.66112751   3.68101623   3.71822742
   3.76060566   3.7722399    3.82025281   3.85619905   3.87894579
   3.91696187   3.94243342   3.97438223   4.03065245]
E1 = -1160.3610608161227  E_coul = 437.31471101339184
cycle= 3 E= -456.186991778695  delta_E= -0.0446  |g|= 0.0743  |ddm|= 0.332
    CPU time for cycle= 3      0.56 sec, wall time      0.07 sec
diis-norm(errvec)=0.138513
diis-c [-0.00918898 -0.02445502  0.0663966   0.95805842]
  HOMO = -0.488655264804982  LUMO = 0.122479536671481
  mo_energy =
[-20.65706932 -20.62239378 -20.59505209 -20.56174103 -20.55514777
 -20.54413198  -1.44201204  -1.40931603  -1.38016645  -1.34970008
  -1.33857405  -1.33236751  -0.80313517  -0.76961905  -0.74928053
  -0.72801269  -0.71397041  -0.70857015  -0.6622702   -0.63109151
  -0.62389618  -0.5952507   -0.58250832  -0.57856612  -0.56192841
  -0.54132123  -0.53609788  -0.50428566  -0.49509239  -0.48865526
   0.12247954   0.15507372   0.20604118   0.21553797   0.23303173
   0.24040676   0.27527539   0.28676338   0.34316927   0.37853384
   0.40996488   0.44112491   0.90896983   0.93391763   0.96129422
   0.99414861   1.00794356   1.01094438   1.02030212   1.0387145
   1.06263956   1.0716597    1.07897807   1.10413952   1.10784223
   1.11953587   1.14179987   1.14531613   1.16646047   1.18202269
   1.19316204   1.19644013   1.22037237   1.2278218    1.25362864
   1.27958631   1.29322547   1.30781559   1.3213036    1.3447634
   1.35195193   1.45535089   1.51892482   1.59084351   1.63435725
   1.69827636   1.7011398    1.72968036   1.74271822   1.75214926
   1.75752653   1.77781674   1.78794101   1.79823131   1.81534128
   1.82604695   1.83674991   1.839685     1.8667136    1.87358176
   1.90513776   1.91446824   1.93287258   1.96392718   1.98439581
   2.01923362   2.47738975   2.49242207   2.51090366   2.51447455
   2.54516195   2.56135703   2.58299603   2.59717514   2.59983822
   2.62846728   2.67055846   2.7204585    2.73859852   2.7528981
   2.77678062   2.81239898   2.82825562   2.87519158   2.92358133
   2.92874536   2.93003522   2.95175678   2.97460766   2.97618157
   2.97964637   2.99187016   3.00125985   3.02537696   3.04048148
   3.04652032   3.30585757   3.32950148   3.34906529   3.37958034
   3.39495368   3.4015007    3.67703864   3.69564671   3.73256221
   3.77249774   3.78506301   3.83188812   3.86920385   3.89121614
   3.92917816   3.95226631   3.98464454   4.03956186]
E1 = -1159.9087594124117  E_coul = 436.8611354772053
cycle= 4 E= -456.18826591117  delta_E= -0.00127  |g|= 0.0125  |ddm|= 0.0485
    CPU time for cycle= 4      0.55 sec, wall time      0.07 sec
diis-norm(errvec)=0.0257928
diis-c [-1.78305689e-04 -9.81574394e-03 -4.04079773e-02 -1.62559093e-01
  1.21278281e+00]
  HOMO = -0.490028038926247  LUMO = 0.12271812614815
  mo_energy =
[-20.65703094 -20.62349835 -20.59847    -20.56381062 -20.55803421
 -20.54495233  -1.44169802  -1.40969265  -1.38164577  -1.35062446
  -1.33990048  -1.33327201  -0.80212331  -0.76918986  -0.74987299
  -0.72800333  -0.71429617  -0.70908555  -0.66198458  -0.63110009
  -0.62468859  -0.59592338  -0.58320857  -0.57942696  -0.56287191
  -0.54270736  -0.5378202   -0.5057132   -0.49699326  -0.49002804
   0.12271813   0.15508237   0.20602717   0.21524758   0.23374214
   0.24062025   0.27502053   0.28703052   0.34328776   0.37859535
   0.41016273   0.44103986   0.90931386   0.93421225   0.96103177
   0.99399475   1.00778514   1.0109831    1.02000374   1.03866887
   1.06255881   1.0712215    1.07859385   1.10364339   1.10710763
   1.11915215   1.14096607   1.14427146   1.16580208   1.18171521
   1.19267258   1.19581022   1.21964574   1.227873     1.25350902
   1.27941129   1.29280338   1.30740287   1.3212654    1.34439144
   1.35152039   1.45509267   1.51872487   1.59058552   1.63371346
   1.69808626   1.70164099   1.72974548   1.74278818   1.75219692
   1.7571965    1.77766147   1.78779163   1.79786495   1.8148757
   1.82564015   1.83631128   1.83907811   1.86630691   1.87304047
   1.90464085   1.91385326   1.93228175   1.96348809   1.98427426
   2.01883023   2.47837337   2.49321597   2.51146226   2.51468183
   2.54501705   2.56145048   2.58277576   2.59667904   2.59955902
   2.62818301   2.67058279   2.72022768   2.73942045   2.75334193
   2.77643671   2.81214104   2.82877575   2.87563923   2.92429996
   2.92940366   2.93034954   2.95151393   2.97457447   2.97604092
   2.97962773   2.99164233   3.00115387   3.02517551   3.04032216
   3.04658633   3.3068454    3.33017712   3.34909865   3.37954691
   3.39513661   3.40128086   3.67799846   3.69606734   3.73214501
   3.77217497   3.78507528   3.83207531   3.87002501   3.89165371
   3.92892105   3.95213519   3.98478256   4.03945389]
E1 = -1159.9224901329303  E_coul = 436.87479453036974
cycle= 5 E= -456.188337578525  delta_E= -7.17e-05  |g|= 0.00242  |ddm|= 0.0165
    CPU time for cycle= 5      0.54 sec, wall time      0.07 sec
diis-norm(errvec)=0.00445894
diis-c [-1.08769425e-05  2.21458587e-03  6.47300278e-03  1.65604076e-04
 -1.82597799e-01  1.17374461e+00]
  HOMO = -0.490698799794612  LUMO = 0.122616479835747
  mo_energy =
[-20.657711   -20.62355192 -20.59727252 -20.56351195 -20.55731694
 -20.54627755  -1.44202046  -1.40978603  -1.38131665  -1.35063674
  -1.33980452  -1.33383351  -0.8022224   -0.76909487  -0.74957276
  -0.72803303  -0.71459368  -0.70889023  -0.66219308  -0.63126398
  -0.62461431  -0.59611496  -0.58360413  -0.5795362   -0.56296394
  -0.54301194  -0.53782246  -0.50588877  -0.4970477   -0.4906988
   0.12261648   0.15503203   0.20598238   0.21526112   0.23373081
   0.24060249   0.27490861   0.28705444   0.34326776   0.37847881
   0.41000732   0.44078289   0.90908686   0.93409875   0.9609437
   0.9939251    1.00768769   1.01085569   1.01978766   1.03852333
   1.06242987   1.0712127    1.0784116    1.10346058   1.10697783
   1.11901952   1.14102457   1.14424771   1.16552768   1.18144675
   1.19256419   1.19557655   1.21932486   1.22763944   1.25338011
   1.27938986   1.2926365    1.30729135   1.3211416    1.34438206
   1.35149594   1.45485687   1.5186299    1.59042744   1.63369747
   1.69802019   1.70141368   1.72961535   1.74263544   1.75203147
   1.75717766   1.77744831   1.78763      1.79779347   1.81472589
   1.82541622   1.83617956   1.83903033   1.86619639   1.87294723
   1.90463077   1.91384083   1.93184319   1.96325926   1.98408891
   2.01870415   2.47821271   2.49299002   2.51138434   2.51453496
   2.54498625   2.5613199    2.58269466   2.59671698   2.59932449
   2.62810369   2.6704512    2.71982405   2.7392019    2.75322081
   2.77652416   2.81209855   2.82862802   2.87546045   2.92418536
   2.9292204    2.93021757   2.95159391   2.97454846   2.97602525
   2.97960114   2.99137357   3.00084876   3.02499299   3.04000556
   3.04635243   3.30669827   3.33009134   3.34910076   3.37946064
   3.39500339   3.40092444   3.67781336   3.69597235   3.73224331
   3.77216151   3.78499662   3.83177438   3.86982715   3.89148792
   3.92899525   3.95202484   3.98464762   4.03905624]
E1 = -1159.9182637955191  E_coul = 436.87056557071986
cycle= 6 E= -456.188340200763  delta_E= -2.62e-06  |g|= 0.000942  |ddm|= 0.00352
    CPU time for cycle= 6      0.54 sec, wall time      0.07 sec
diis-norm(errvec)=0.00167285
diis-c [-1.06414917e-06  1.22539305e-03  4.47201927e-03  8.63961407e-03
 -1.22032171e-01  2.88166418e-01  8.19528727e-01]
  HOMO = -0.490546052831201  LUMO = 0.12263939801897
  mo_energy =
[-20.65722313 -20.62342396 -20.59778125 -20.56361269 -20.55761868
 -20.54557289  -1.44186266  -1.40975798  -1.38149542  -1.35069389
  -1.33991887  -1.33363226  -0.8020575   -0.76903821  -0.74966693
  -0.72800686  -0.71446245  -0.70895931  -0.66209882  -0.63121496
  -0.62472407  -0.59613116  -0.58352732  -0.57959671  -0.56304154
  -0.54301144  -0.53795622  -0.50596661  -0.4971963   -0.49054605
   0.1226394    0.1550349    0.20597791   0.21523267   0.23377772
   0.24061159   0.27491445   0.28705885   0.34325283   0.37846525
   0.41000664   0.44083312   0.90914698   0.93411181   0.96090793
   0.99389966   1.00766633   1.01086674   1.01979357   1.03854099
   1.06244091   1.07115359   1.07840638   1.10345673   1.10693059
   1.11899313   1.14091212   1.14414734   1.16555507   1.18149353
   1.19253941   1.19559343   1.21936839   1.2277117    1.25340486
   1.2793901    1.29264934   1.30728601   1.32112825   1.34435018
   1.35144419   1.45493139   1.51865465   1.5904608    1.63365321
   1.69799469   1.70148817   1.72963168   1.74264965   1.75204268
   1.75713179   1.77748708   1.78764328   1.7977524    1.81471583
   1.82544099   1.83616332   1.83896192   1.866185     1.87292703
   1.90457446   1.9137666    1.93195794   1.96329146   1.98411157
   2.01868072   2.47826715   2.49306734   2.5113941    2.51454727
   2.54494716   2.56129552   2.58263885   2.5966315    2.59934084
   2.6280426    2.67043238   2.71992286   2.73927901   2.75323728
   2.77642707   2.81202381   2.82863797   2.87549242   2.92421609
   2.9292567    2.93024149   2.95152032   2.97450754   2.97597558
   2.97956203   2.99142865   3.00090908   3.02493914   3.04004506
   3.04635423   3.30674862   3.33010061   3.34904881   3.37940717
   3.39497348   3.40098792   3.67790108   3.69599595   3.7321554
   3.77209667   3.78496573   3.83185963   3.86989317   3.89152102
   3.92890005   3.95197394   3.98461135   4.03915097]
E1 = -1159.9165896335994  E_coul = 436.8688911663442
cycle= 7 E= -456.188340443219  delta_E= -2.42e-07  |g|= 0.00021  |ddm|= 0.000901
    CPU time for cycle= 7      0.54 sec, wall time      0.07 sec
diis-norm(errvec)=0.000373415
diis-c [-3.01349492e-08 -2.12098257e-04 -5.57461939e-04 -9.95871800e-04
  1.91865012e-02 -1.15967742e-01 -7.83962479e-03  1.10638630e+00]
  HOMO = -0.490593111521204  LUMO = 0.122641113761706
  mo_energy =
[-20.6572759  -20.62339983 -20.59767664 -20.56356364 -20.55755574
 -20.54564683  -1.44187723  -1.4097508   -1.38146631  -1.35068138
  -1.33990579  -1.33366801  -0.80205204  -0.76901716  -0.74963873
  -0.72799523  -0.71447491  -0.7089393   -0.66210119  -0.63121222
  -0.62471462  -0.59613871  -0.58354956  -0.57959952  -0.56303852
  -0.54302681  -0.53795231  -0.50596817  -0.4971977   -0.49059311
   0.12264111   0.15503822   0.2059817    0.21523488   0.23378614
   0.24061647   0.27491005   0.28706656   0.3432652    0.37847361
   0.41001665   0.44082822   0.90914632   0.93412116   0.96091683
   0.9939064    1.00767064   1.01087208   1.01979427   1.03854354
   1.0624451    1.07116533   1.07840841   1.10345597   1.10693451
   1.11899774   1.14092524   1.14415595   1.16554216   1.18148412
   1.19254165   1.19558631   1.21935591   1.22770658   1.25341081
   1.27940232   1.29265205   1.3072925    1.32114419   1.34436125
   1.35145509   1.45492705   1.51865888   1.59046203   1.63366324
   1.69800273   1.70148733   1.72963798   1.74265321   1.7520464
   1.75714131   1.77748288   1.78764332   1.79775959   1.81471505
   1.82543535   1.83616359   1.83896779   1.86618726   1.87292991
   1.90458416   1.91377464   1.93193259   1.96328626   1.98411138
   2.0186859    2.47827586   2.49306807   2.5114049    2.51455476
   2.54495502   2.56130209   2.58264599   2.59664494   2.59933476
   2.62805017   2.67043845   2.71990239   2.73928108   2.7532476
   2.7764461    2.81203473   2.82864703   2.87549826   2.92422584
   2.92926474   2.93024574   2.95152786   2.97451188   2.97598361
   2.97956451   2.99141256   3.00090027   3.02495013   3.04003933
   3.04636021   3.3067569    3.33011297   3.34906165   3.37941566
   3.39498251   3.40097289   3.67790668   3.6960077    3.73217174
   3.77210589   3.78497555   3.83185074   3.86989745   3.89152769
   3.92892024   3.9519848    3.98462525   4.03913464]
E1 = -1159.9161779185529  E_coul = 436.86847943470025
cycle= 8 E= -456.188340459817  delta_E= -1.66e-08  |g|= 2.62e-05  |ddm|= 0.000288
    CPU time for cycle= 8      0.55 sec, wall time      0.07 sec
diis-norm(errvec)=4.81426e-05
diis-c [-1.27000707e-09 -3.64253011e-05 -1.26353907e-04 -3.01296729e-04
  3.67491980e-03 -9.62763133e-03 -2.47541827e-02  8.79989059e-03
  1.02237108e+00]
  HOMO = -0.490594469194228  LUMO = 0.122641984146398
  mo_energy =
[-20.65725687 -20.62340435 -20.59767684 -20.563564   -20.55754891
 -20.54564537  -1.44187069  -1.40975159  -1.38146657  -1.35068122
  -1.33990399  -1.33366843  -0.80204503  -0.76901612  -0.74963719
  -0.7279928   -0.71447387  -0.70893651  -0.66209617  -0.63121268
  -0.62471424  -0.59613705  -0.58355019  -0.57959787  -0.56303773
  -0.5430281   -0.53795342  -0.50596898  -0.49719626  -0.49059447
   0.12264198   0.15503868   0.20598211   0.21523527   0.23378812
   0.24061767   0.27491025   0.2870676    0.34326521   0.37847295
   0.41001642   0.44082772   0.90914804   0.93412156   0.96091639
   0.99390724   1.00767167   1.01087319   1.01979375   1.03854444
   1.06244547   1.07116472   1.07840771   1.10345538   1.10693356
   1.11899797   1.14092505   1.14415574   1.16554203   1.18148639
   1.19254235   1.1955867    1.21935543   1.22770917   1.25341089
   1.27940448   1.29265202   1.30729344   1.3211442    1.34436325
   1.35145644   1.45492782   1.51866091   1.59046223   1.63366388
   1.69800356   1.70149106   1.72963804   1.74265316   1.75204755
   1.75714168   1.7774833    1.78764461   1.79775987   1.81471531
   1.82543509   1.83616409   1.83896853   1.86618738   1.87292941
   1.90458433   1.91377545   1.93193193   1.96328582   1.98411258
   2.01868588   2.47827866   2.49307176   2.51140616   2.51455462
   2.54495493   2.56130254   2.5826464    2.59664486   2.59933451
   2.62805102   2.67043967   2.71990263   2.73928472   2.75324805
   2.77644596   2.81203595   2.82864865   2.87549814   2.92422764
   2.92926634   2.93024641   2.95152863   2.97451324   2.97598415
   2.9795664    2.99141291   3.00090015   3.02494799   3.04003818
   3.04635918   3.30675985   3.33011387   3.34906199   3.37941627
   3.3949827    3.4009726    3.67791071   3.6960083    3.73217191
   3.7721074    3.78497643   3.83185217   3.86990037   3.89152825
   3.92891981   3.95198497   3.98462511   4.03913456]
E1 = -1159.9161392173257  E_coul = 436.8684407331738
cycle= 9 E= -456.188340460116  delta_E= -2.99e-10  |g|= 9.03e-06  |ddm|= 3.86e-05
    CPU time for cycle= 9      0.54 sec, wall time      0.07 sec
  HOMO = -0.490593377998872  LUMO = 0.122641675409135
  mo_energy =
[-20.65726456 -20.6233995  -20.59767769 -20.56356247 -20.55755259
 -20.54564247  -1.44187304  -1.40974977  -1.38146675  -1.35068069
  -1.33990463  -1.3336673   -0.8020469   -0.76901474  -0.74963739
  -0.72799276  -0.71447279  -0.70893711  -0.6620975   -0.63121109
  -0.62471509  -0.59613817  -0.58354901  -0.57959863  -0.56303801
  -0.54302683  -0.53795308  -0.50596808  -0.49719682  -0.49059338
   0.12264168   0.15503892   0.20598213   0.21523495   0.23378767
   0.24061751   0.27491024   0.28706782   0.34326505   0.37847306
   0.41001646   0.44082841   0.90914759   0.93412194   0.96091634
   0.99390694   1.00767152   1.01087273   1.01979399   1.03854436
   1.06244585   1.07116437   1.07840789   1.10345596   1.10693376
   1.11899782   1.14092481   1.14415571   1.16554207   1.18148543
   1.19254251   1.19558679   1.21935584   1.22770852   1.25341164
   1.27940381   1.29265262   1.30729344   1.32114415   1.34436272
   1.35145669   1.45492816   1.51866021   1.59046282   1.63366367
   1.69800319   1.70148988   1.72963891   1.74265408   1.75204732
   1.75714143   1.77748366   1.78764424   1.79775985   1.81471533
   1.82543557   1.83616419   1.83896819   1.86618759   1.87292983
   1.90458427   1.91377517   1.93193269   1.96328658   1.98411235
   2.018686     2.47827802   2.4930706    2.5114065    2.51455578
   2.54495467   2.56130246   2.58264617   2.5966446    2.59933486
   2.62805075   2.67043971   2.71990313   2.73928374   2.75324901
   2.77644567   2.81203546   2.82864831   2.8754989    2.92422715
   2.92926599   2.93024698   2.95152816   2.97451312   2.97598398
   2.97956628   2.99141318   3.00090091   3.02494807   3.04003884
   3.04635942   3.30675905   3.33011458   3.34906167   3.37941611
   3.39498281   3.40097318   3.67790954   3.6960091    3.73217153
   3.7721069    3.78497651   3.83185222   3.86989988   3.8915289
   3.92891965   3.95198485   3.98462525   4.03913518]
E1 = -1159.9161544557487  E_coul = 436.8684559715611
Extra cycle  E= -456.188340460152  delta_E= -3.57e-11  |g|= 4.75e-06  |ddm|= 1.33e-05
    CPU time for scf_cycle      9.15 sec, wall time      1.15 sec
    CPU time for SCF      9.17 sec, wall time      1.17 sec
converged SCF energy = -456.188340460152
