#INFO: **** input file is /home/liwei01/wsr/dftpart/test_2body/w32/gfea_c8.py ****
from dftpart import gfea3
from pyscf import lib

par = 8
with lib.with_omp_threads(par):
    fr0 = gfea3.GFEA()
    fr0.inputstyle = 'frg'
    fr0.method = ['hf', '6-31gss','charge']
    fr0.gjfname = 'w32'
    fr0.output = 'w32'
    fr0.verbose = 9
    fr0.showinter = True
    #fr0.do_deriv = True
    fr0.kernel()

#INFO: ******************** input file end ********************


System: uname_result(system='Linux', node='master', release='3.10.0-693.el7.x86_64', version='#1 SMP Tue Aug 22 21:09:27 UTC 2017', machine='x86_64', processor='x86_64')  Threads 8
Python 3.7.6 (default, Jan  8 2020, 19:59:22) 
[GCC 7.3.0]
numpy 1.18.1  scipy 1.4.1
Date: Tue Jun 16 20:53:44 2020
PySCF version 1.6.1
PySCF path  /home/liwei01/zcheng/pyscf/pyscf
GIT HEAD      ref: refs/heads/master
GIT master branch  3adc7fd25839fe674469a52b764c3661e32d7318

[CONFIG] DEBUG = False
[CONFIG] MAX_MEMORY = 4000
[CONFIG] TMPDIR = .
[CONFIG] UNIT = angstrom
[CONFIG] VERBOSE = 3
[CONFIG] conf_file = None
[INPUT] verbose = 9
[INPUT] max_memory = 4000 
[INPUT] num. atoms = 18
[INPUT] num. electrons = 60
[INPUT] charge = 0
[INPUT] spin (= nelec alpha-beta = 2S) = 0
[INPUT] symmetry False subgroup None
[INPUT] Mole.unit = angstrom
[INPUT]  1 O      8.392325000000 -11.812941000000 -11.200483000000 AA   15.859195798340 -22.323223215646 -21.165845332847 Bohr
[INPUT]  2 O     10.706017000000 -10.848862000000 -10.091512000000 AA   20.231440014938 -20.501377943201 -19.070193862762 Bohr
[INPUT]  3 O      9.473772000000  -7.997188000000 -10.918041000000 AA   17.902834446573 -15.112495086658 -20.632107306772 Bohr
[INPUT]  4 O     10.552310000000  -9.060178000000  -7.765728000000 AA   19.940975881509 -17.121255059810 -14.675099077866 Bohr
[INPUT]  5 O     13.457564000000 -11.773284000000  -9.774029000000 AA   25.431110263806 -22.248282346724 -18.470237943557 Bohr
[INPUT]  6 O     12.813764000000 -13.018467000000  -7.366324000000 AA   24.214504584811 -24.601337191688 -13.920334904811 Bohr
[INPUT]  7 H      8.175276000000 -12.537815000000 -10.614239000000 AA   15.449032632730 -23.693036550464 -20.058004730677 Bohr
[INPUT]  8 H      9.252154000000 -11.514100000000 -10.904475000000 AA   17.484037122299 -21.758495570855 -20.606471282167 Bohr
[INPUT]  9 H     11.521407000000 -11.320280000000  -9.920812000000 AA   21.772303799647 -21.392228853391 -18.747617613299 Bohr
[INPUT] 10 H     10.567797000000 -10.316883000000  -9.307849000000 AA   19.970242070000 -19.496083329181 -17.589285418807 Bohr
[INPUT] 11 H      9.997520000000  -8.795627000000 -10.851588000000 AA   18.892574724862 -16.621326123830 -20.506529336617 Bohr
[INPUT] 12 H      9.623390000000  -7.542356000000 -10.089201000000 AA   18.185571489878 -14.252987173970 -19.065826705688 Bohr
[INPUT] 13 H     10.029560000000  -9.452633000000  -7.066484000000 AA   18.953121549893 -17.862887526026 -13.353719423621 Bohr
[INPUT] 14 H     10.057649000000  -8.283933000000  -8.028378000000 AA   19.006202067006 -15.654364604247 -15.171435644483 Bohr
[INPUT] 15 H     13.908886000000 -10.996207000000 -10.103715000000 AA   26.283985237797 -20.779819639025 -19.093254190660 Bohr
[INPUT] 16 H     14.150775000000 -12.423635000000  -9.661183000000 AA   26.741089200342 -23.477267621561 -18.256989909304 Bohr
[INPUT] 17 H     12.481900000000 -12.417138000000  -6.699613000000 AA   23.587372514209 -23.464990070930 -12.660433710576 Bohr
[INPUT] 18 H     12.655150000000 -12.568166000000  -8.195965000000 AA   23.914767565290 -23.750391628070 -15.488129176521 Bohr
[INPUT] ---------------- BASIS SET ---------------- 
[INPUT] l, kappa, [nprim/nctr], expnt,             c_1 c_2 ...
[INPUT] H
[INPUT] 0    0    [3    /1   ]  18.731137         0.0334946
                                2.8253937         0.23472695
                                0.6401217         0.81375733
[INPUT] 0    0    [1    /1   ]  0.1612778            1
[INPUT] 1    0    [1    /1   ]  1.1                  1
[INPUT] O
[INPUT] 0    0    [6    /1   ]  5484.6717         0.0018311
                                825.23495         0.0139501
                                188.04696         0.0684451
                                52.9645           0.2327143
                                16.89757          0.470193
                                5.7996353         0.3585209
[INPUT] 0    0    [3    /1   ]  15.539616         -0.1107775
                                3.5999336         -0.1480263
                                1.0137618         1.130767
[INPUT] 0    0    [1    /1   ]  0.2700058            1
[INPUT] 1    0    [3    /1   ]  15.539616         0.0708743
                                3.5999336         0.3397528
                                1.0137618         0.7271586
[INPUT] 1    0    [1    /1   ]  0.2700058            1
[INPUT] 2    0    [1    /1   ]  0.8                  1

nuclear repulsion = 259.660262776044
number of shells = 72
number of NR pGTOs = 246
number of NR cGTOs = 144
basis = 6-31gss
ecp = {}
bas 0, expnt(s) = [5484.6717     825.23495    188.04696     52.9645      16.89757
    5.7996353]
bas 1, expnt(s) = [15.539616   3.5999336  1.0137618]
bas 2, expnt(s) = [0.2700058]
bas 3, expnt(s) = [15.539616   3.5999336  1.0137618]
bas 4, expnt(s) = [0.2700058]
bas 5, expnt(s) = [0.8]
bas 6, expnt(s) = [5484.6717     825.23495    188.04696     52.9645      16.89757
    5.7996353]
bas 7, expnt(s) = [15.539616   3.5999336  1.0137618]
bas 8, expnt(s) = [0.2700058]
bas 9, expnt(s) = [15.539616   3.5999336  1.0137618]
bas 10, expnt(s) = [0.2700058]
bas 11, expnt(s) = [0.8]
bas 12, expnt(s) = [5484.6717     825.23495    188.04696     52.9645      16.89757
    5.7996353]
bas 13, expnt(s) = [15.539616   3.5999336  1.0137618]
bas 14, expnt(s) = [0.2700058]
bas 15, expnt(s) = [15.539616   3.5999336  1.0137618]
bas 16, expnt(s) = [0.2700058]
bas 17, expnt(s) = [0.8]
bas 18, expnt(s) = [5484.6717     825.23495    188.04696     52.9645      16.89757
    5.7996353]
bas 19, expnt(s) = [15.539616   3.5999336  1.0137618]
bas 20, expnt(s) = [0.2700058]
bas 21, expnt(s) = [15.539616   3.5999336  1.0137618]
bas 22, expnt(s) = [0.2700058]
bas 23, expnt(s) = [0.8]
bas 24, expnt(s) = [5484.6717     825.23495    188.04696     52.9645      16.89757
    5.7996353]
bas 25, expnt(s) = [15.539616   3.5999336  1.0137618]
bas 26, expnt(s) = [0.2700058]
bas 27, expnt(s) = [15.539616   3.5999336  1.0137618]
bas 28, expnt(s) = [0.2700058]
bas 29, expnt(s) = [0.8]
bas 30, expnt(s) = [5484.6717     825.23495    188.04696     52.9645      16.89757
    5.7996353]
bas 31, expnt(s) = [15.539616   3.5999336  1.0137618]
bas 32, expnt(s) = [0.2700058]
bas 33, expnt(s) = [15.539616   3.5999336  1.0137618]
bas 34, expnt(s) = [0.2700058]
bas 35, expnt(s) = [0.8]
bas 36, expnt(s) = [18.731137   2.8253937  0.6401217]
bas 37, expnt(s) = [0.1612778]
bas 38, expnt(s) = [1.1]
bas 39, expnt(s) = [18.731137   2.8253937  0.6401217]
bas 40, expnt(s) = [0.1612778]
bas 41, expnt(s) = [1.1]
bas 42, expnt(s) = [18.731137   2.8253937  0.6401217]
bas 43, expnt(s) = [0.1612778]
bas 44, expnt(s) = [1.1]
bas 45, expnt(s) = [18.731137   2.8253937  0.6401217]
bas 46, expnt(s) = [0.1612778]
bas 47, expnt(s) = [1.1]
bas 48, expnt(s) = [18.731137   2.8253937  0.6401217]
bas 49, expnt(s) = [0.1612778]
bas 50, expnt(s) = [1.1]
bas 51, expnt(s) = [18.731137   2.8253937  0.6401217]
bas 52, expnt(s) = [0.1612778]
bas 53, expnt(s) = [1.1]
bas 54, expnt(s) = [18.731137   2.8253937  0.6401217]
bas 55, expnt(s) = [0.1612778]
bas 56, expnt(s) = [1.1]
bas 57, expnt(s) = [18.731137   2.8253937  0.6401217]
bas 58, expnt(s) = [0.1612778]
bas 59, expnt(s) = [1.1]
bas 60, expnt(s) = [18.731137   2.8253937  0.6401217]
bas 61, expnt(s) = [0.1612778]
bas 62, expnt(s) = [1.1]
bas 63, expnt(s) = [18.731137   2.8253937  0.6401217]
bas 64, expnt(s) = [0.1612778]
bas 65, expnt(s) = [1.1]
bas 66, expnt(s) = [18.731137   2.8253937  0.6401217]
bas 67, expnt(s) = [0.1612778]
bas 68, expnt(s) = [1.1]
bas 69, expnt(s) = [18.731137   2.8253937  0.6401217]
bas 70, expnt(s) = [0.1612778]
bas 71, expnt(s) = [1.1]
CPU time:       125.82
arg.atm = [[ 8 20  1 23  0  0]
 [ 8 24  1 27  0  0]
 [ 8 28  1 31  0  0]
 [ 8 32  1 35  0  0]
 [ 8 36  1 39  0  0]
 [ 8 40  1 43  0  0]
 [ 1 44  1 47  0  0]
 [ 1 48  1 51  0  0]
 [ 1 52  1 55  0  0]
 [ 1 56  1 59  0  0]
 [ 1 60  1 63  0  0]
 [ 1 64  1 67  0  0]
 [ 1 68  1 71  0  0]
 [ 1 72  1 75  0  0]
 [ 1 76  1 79  0  0]
 [ 1 80  1 83  0  0]
 [ 1 84  1 87  0  0]
 [ 1 88  1 91  0  0]]
arg.bas = [[  0   0   6   1   0 102 108   0]
 [  0   0   3   1   0 114 117   0]
 [  0   0   1   1   0 120 121   0]
 [  0   1   3   1   0 122 125   0]
 [  0   1   1   1   0 128 129   0]
 [  0   2   1   1   0 130 131   0]
 [  1   0   6   1   0 102 108   0]
 [  1   0   3   1   0 114 117   0]
 [  1   0   1   1   0 120 121   0]
 [  1   1   3   1   0 122 125   0]
 [  1   1   1   1   0 128 129   0]
 [  1   2   1   1   0 130 131   0]
 [  2   0   6   1   0 102 108   0]
 [  2   0   3   1   0 114 117   0]
 [  2   0   1   1   0 120 121   0]
 [  2   1   3   1   0 122 125   0]
 [  2   1   1   1   0 128 129   0]
 [  2   2   1   1   0 130 131   0]
 [  3   0   6   1   0 102 108   0]
 [  3   0   3   1   0 114 117   0]
 [  3   0   1   1   0 120 121   0]
 [  3   1   3   1   0 122 125   0]
 [  3   1   1   1   0 128 129   0]
 [  3   2   1   1   0 130 131   0]
 [  4   0   6   1   0 102 108   0]
 [  4   0   3   1   0 114 117   0]
 [  4   0   1   1   0 120 121   0]
 [  4   1   3   1   0 122 125   0]
 [  4   1   1   1   0 128 129   0]
 [  4   2   1   1   0 130 131   0]
 [  5   0   6   1   0 102 108   0]
 [  5   0   3   1   0 114 117   0]
 [  5   0   1   1   0 120 121   0]
 [  5   1   3   1   0 122 125   0]
 [  5   1   1   1   0 128 129   0]
 [  5   2   1   1   0 130 131   0]
 [  6   0   3   1   0  92  95   0]
 [  6   0   1   1   0  98  99   0]
 [  6   1   1   1   0 100 101   0]
 [  7   0   3   1   0  92  95   0]
 [  7   0   1   1   0  98  99   0]
 [  7   1   1   1   0 100 101   0]
 [  8   0   3   1   0  92  95   0]
 [  8   0   1   1   0  98  99   0]
 [  8   1   1   1   0 100 101   0]
 [  9   0   3   1   0  92  95   0]
 [  9   0   1   1   0  98  99   0]
 [  9   1   1   1   0 100 101   0]
 [ 10   0   3   1   0  92  95   0]
 [ 10   0   1   1   0  98  99   0]
 [ 10   1   1   1   0 100 101   0]
 [ 11   0   3   1   0  92  95   0]
 [ 11   0   1   1   0  98  99   0]
 [ 11   1   1   1   0 100 101   0]
 [ 12   0   3   1   0  92  95   0]
 [ 12   0   1   1   0  98  99   0]
 [ 12   1   1   1   0 100 101   0]
 [ 13   0   3   1   0  92  95   0]
 [ 13   0   1   1   0  98  99   0]
 [ 13   1   1   1   0 100 101   0]
 [ 14   0   3   1   0  92  95   0]
 [ 14   0   1   1   0  98  99   0]
 [ 14   1   1   1   0 100 101   0]
 [ 15   0   3   1   0  92  95   0]
 [ 15   0   1   1   0  98  99   0]
 [ 15   1   1   1   0 100 101   0]
 [ 16   0   3   1   0  92  95   0]
 [ 16   0   1   1   0  98  99   0]
 [ 16   1   1   1   0 100 101   0]
 [ 17   0   3   1   0  92  95   0]
 [ 17   0   1   1   0  98  99   0]
 [ 17   1   1   1   0 100 101   0]]
arg.env = [ 1.37036000e+02  0.00000000e+00  0.00000000e+00  0.00000000e+00
  0.00000000e+00  0.00000000e+00  0.00000000e+00  0.00000000e+00
  0.00000000e+00  0.00000000e+00  0.00000000e+00  0.00000000e+00
  0.00000000e+00  0.00000000e+00  0.00000000e+00  0.00000000e+00
  0.00000000e+00  0.00000000e+00  0.00000000e+00  0.00000000e+00
  1.58591958e+01 -2.23232232e+01 -2.11658453e+01  0.00000000e+00
  2.02314400e+01 -2.05013779e+01 -1.90701939e+01  0.00000000e+00
  1.79028344e+01 -1.51124951e+01 -2.06321073e+01  0.00000000e+00
  1.99409759e+01 -1.71212551e+01 -1.46750991e+01  0.00000000e+00
  2.54311103e+01 -2.22482823e+01 -1.84702379e+01  0.00000000e+00
  2.42145046e+01 -2.46013372e+01 -1.39203349e+01  0.00000000e+00
  1.54490326e+01 -2.36930366e+01 -2.00580047e+01  0.00000000e+00
  1.74840371e+01 -2.17584956e+01 -2.06064713e+01  0.00000000e+00
  2.17723038e+01 -2.13922289e+01 -1.87476176e+01  0.00000000e+00
  1.99702421e+01 -1.94960833e+01 -1.75892854e+01  0.00000000e+00
  1.88925747e+01 -1.66213261e+01 -2.05065293e+01  0.00000000e+00
  1.81855715e+01 -1.42529872e+01 -1.90658267e+01  0.00000000e+00
  1.89531215e+01 -1.78628875e+01 -1.33537194e+01  0.00000000e+00
  1.90062021e+01 -1.56543646e+01 -1.51714356e+01  0.00000000e+00
  2.62839852e+01 -2.07798196e+01 -1.90932542e+01  0.00000000e+00
  2.67410892e+01 -2.34772676e+01 -1.82569899e+01  0.00000000e+00
  2.35873725e+01 -2.34649901e+01 -1.26604337e+01  0.00000000e+00
  2.39147676e+01 -2.37503916e+01 -1.54881292e+01  0.00000000e+00
  1.87311370e+01  2.82539370e+00  6.40121700e-01  7.61926220e-01
  1.29237100e+00  1.47131900e+00  1.61277800e-01  6.42977783e-01
  1.10000000e+00  3.28643653e+00  5.48467170e+03  8.25234950e+02
  1.88046960e+02  5.29645000e+01  1.68975700e+01  5.79963530e+00
  2.94842455e+00  5.42657124e+00  8.78126489e+00  1.15432129e+01
  9.90055015e+00  3.38516599e+00  1.55396160e+01  3.59993360e+00
  1.01376180e+00 -2.19051792e+00 -9.77405528e-01  2.88629094e+00
  2.70005800e-01  9.46334873e-01  1.55396160e+01  3.59993360e+00
  1.01376180e+00  6.37930734e+00  4.91490975e+00  2.15791055e+00
  2.70005800e-01  5.67807022e-01  8.00000000e-01  1.76578110e+00]
ecpbas  = []


******** <class 'pyscf.qmmm.itrf.mm_charge.<locals>.QMMM'> ********
method = QMMM-RHF
initial guess = minao
damping factor = 0
level shift factor = 0
DIIS = <class 'pyscf.scf.diis.CDIIS'>
DIIS start cycle = 1
DIIS space = 8
SCF tol = 1e-09
SCF gradient tol = None
max. SCF cycles = 50
direct_scf = True
direct_scf_tol = 1e-13
chkfile to save SCF result = /home/liwei01/wsr/dftpart/test_2body/w32/tmpz95nyu90
max_memory 4000 MB (current use 262 MB)
** Add background charges for <class 'pyscf.scf.hf.RHF'> **
Charge      Location
-1.009926    [ 16.42785407 -26.58707085 -18.04142885]
0.499922    [ 15.53371882 -25.95112132 -16.60336995]
0.507893    [ 16.16245338 -28.37548309 -17.98600129]
-1.024266    [ 13.70105109 -18.63199472 -24.76194313]
0.515186    [ 13.45609723 -19.31578456 -26.41855264]
0.515422    [ 13.87339411 -20.08163576 -23.69387937]
-1.050024    [ 10.52651529 -24.11298283 -20.2839555 ]
0.521386    [  8.7734466  -24.2410798  -19.85703047]
0.506414    [ 11.30765248 -23.44237383 -18.79666545]
-1.032359    [ 13.1641969  -17.47579981 -19.41562257]
0.514165    [ 13.18112696 -18.60438393 -20.82910748]
0.518479    [ 14.52136419 -16.32434621 -19.73837456]
-1.052762    [ 13.11969196 -22.35429031 -15.81898054]
0.521035    [ 14.16458201 -22.84877684 -14.42771692]
0.525545    [ 13.80909996 -20.77345693 -16.36451423]
-1.002885    [ 18.40539199 -27.51482622 -24.72543362]
0.521542    [ 17.83274639 -26.30664305 -23.50711585]
0.49877    [ 20.13069872 -27.06649815 -25.03241585]
-1.054902    [ 19.05772167 -18.14703431 -25.87868434]
0.517977    [ 18.59105569 -18.66655214 -27.54728983]
0.522623    [ 17.51229609 -18.19498233 -24.93991564]
-1.032188    [ 15.97118286 -20.09833149 -29.6421136 ]
0.47982    [ 15.3540909  -19.66610766 -31.28659296]
0.534069    [ 17.50300052 -21.00734455 -29.95701189]
-0.992133    [  7.63287216 -21.21078113 -24.19682809]
0.480184    [  8.55071592 -22.76668147 -24.10379498]
0.504586    [  8.37549106 -20.32880248 -25.59058803]
-1.012936    [ 10.55365553 -29.46492154 -21.67488842]
0.504954    [  8.84108934 -29.00412127 -22.03084479]
0.525721    [ 11.34418277 -27.91794449 -21.17105153]
-0.985176    [ 16.63195772 -23.48150439 -12.27810621]
0.500614    [ 17.11266814 -22.20236011 -11.09293235]
0.508291    [ 16.89319913 -25.03868407 -11.39557387]
-0.982261    [ 16.04742575 -26.75780005 -29.6895325 ]
0.479882    [ 16.71262824 -28.42851069 -29.88488293]
0.495008    [ 16.8532352  -26.12000803 -28.20097066]
-0.983713    [ 20.17321188 -22.53529584 -29.89394228]
0.505479    [ 21.06170253 -23.16751127 -28.4507471 ]
0.512532    [ 20.35114661 -23.83370776 -31.14069287]
-1.011239    [ 14.66303696 -31.18986921 -25.03135193]
0.492592    [ 13.80996545 -30.6346091  -23.53606456]
0.497341    [ 16.13314373 -30.14067248 -25.13086491]
-1.016163    [ 10.56617686 -29.35403808 -16.44102735]
0.483053    [ 11.92280935 -30.36927076 -15.8079521 ]
0.523726    [ 10.34862781 -29.90290525 -18.15080431]
-0.976012    [ 10.09067452 -21.18806662 -29.24260093]
0.486289    [ 11.11173701 -19.76402949 -29.69146191]
0.496485    [ 10.37375928 -22.38512875 -30.56881072]
-0.977833    [ 24.5589393  -27.80514674 -21.18389789]
0.50587    [ 23.21796885 -28.65180829 -20.31390388]
0.463809    [ 25.76766104 -27.42438582 -19.8931866 ]
-0.989717    [  8.77070649 -15.37911655 -23.94499373]
0.487556    [  8.68859978 -13.74216775 -23.17975481]
0.496916    [ 10.53805395 -15.75730555 -24.01835668]
-0.992057    [ 16.93410036 -32.15697813 -17.52810554]
0.50918    [ 16.39069828 -32.53931319 -15.84570882]
0.510293    [ 15.6895513  -32.92540692 -18.59231236]
-0.998393    [ 24.35861321 -18.31258187 -25.98586582]
0.466984    [ 25.48944989 -18.60606579 -24.60492389]
0.51604    [ 22.70911474 -18.4111103  -25.25008395]
-1.010464    [  9.27281806 -14.9477601  -17.25327322]
0.476424    [  7.6789399  -15.16789619 -18.07972415]
0.517552    [ 10.24747455 -16.38576609 -17.75736144]
-0.991473    [  5.5836248  -24.00414405 -18.66237963]
0.501887    [  5.79022289 -25.52045085 -17.69798247]
0.510487    [  5.17491673 -22.73885336 -17.43603619]
-1.029267    [  7.95719829 -25.19119252 -14.2761212 ]
0.497876    [  9.38018663 -24.0850659  -14.1227926 ]
0.519667    [  8.66153702 -26.76190075 -14.83174226]
-1.001943    [ 16.13613705 -11.83176802 -24.46883904]
0.509813    [ 16.78082846 -12.94299123 -23.1954641 ]
0.477312    [ 17.5304658  -11.57071369 -25.59117007]
-1.019724    [ 21.67798379 -29.0173418  -14.20699124]
0.475311    [ 20.53074618 -29.01816194 -15.60548117]
0.514632    [ 22.50198564 -27.40961194 -14.29731259]
-1.001922    [ 21.40011279 -32.14724982 -20.33868764]
0.487648    [ 22.14106118 -33.75675602 -19.97480576]
0.509505    [ 19.73399418 -32.24696878 -19.64152988]
Set gradient conv threshold to 3.16228e-05
Nelec from initial guess = 59.93093670795816
cond(S) = 189.26611533456054
E1 = -1140.4817876762718  E_coul = 423.25289069929033
init E= -455.285024586292
    CPU time for initialize scf      3.42 sec, wall time      0.43 sec
  HOMO = -0.506567224227642  LUMO = 0.0189008170071548
  mo_energy =
[-2.08730947e+01 -2.08701899e+01 -2.08495374e+01 -2.08312476e+01
 -2.08312085e+01 -2.08308657e+01 -1.70868078e+00 -1.69499229e+00
 -1.67697973e+00 -1.65630795e+00 -1.65055917e+00 -1.62801985e+00
 -8.35468186e-01 -8.24977470e-01 -8.02659254e-01 -7.98309407e-01
 -7.84946851e-01 -7.69755996e-01 -6.75146240e-01 -6.62908890e-01
 -6.58062162e-01 -6.31331115e-01 -6.17087174e-01 -5.91142129e-01
 -5.49508935e-01 -5.48657393e-01 -5.24318125e-01 -5.10647133e-01
 -5.07232614e-01 -5.06567224e-01  1.89008170e-02  5.64259239e-02
  1.09683656e-01  1.27512843e-01  1.40241574e-01  1.86159397e-01
  1.93675405e-01  2.06452969e-01  2.47923473e-01  2.87454082e-01
  2.99014732e-01  3.18927262e-01  8.57568104e-01  8.75083288e-01
  8.90074949e-01  8.99216011e-01  9.12978275e-01  9.21307353e-01
  9.32705317e-01  9.42588366e-01  9.55926164e-01  9.65794559e-01
  9.81550708e-01  9.82819905e-01  9.84636991e-01  1.00754852e+00
  1.02446187e+00  1.02956659e+00  1.04483111e+00  1.05509395e+00
  1.07901253e+00  1.10182796e+00  1.10320417e+00  1.14301779e+00
  1.14516710e+00  1.15997289e+00  1.19523456e+00  1.21665102e+00
  1.23038968e+00  1.25530645e+00  1.28680355e+00  1.30695115e+00
  1.43150178e+00  1.51781421e+00  1.54387177e+00  1.56271070e+00
  1.58260069e+00  1.64706450e+00  1.66014526e+00  1.66429604e+00
  1.66898454e+00  1.67286301e+00  1.69058336e+00  1.69621860e+00
  1.70176179e+00  1.70951044e+00  1.71492409e+00  1.73390845e+00
  1.73946529e+00  1.74977501e+00  1.75914026e+00  1.78068021e+00
  1.80927390e+00  1.89217978e+00  1.91010188e+00  1.93233268e+00
  2.43107962e+00  2.44034082e+00  2.45149853e+00  2.45241480e+00
  2.49206721e+00  2.51246926e+00  2.51879886e+00  2.53174152e+00
  2.54737648e+00  2.55398227e+00  2.55854799e+00  2.58720120e+00
  2.66213303e+00  2.67051033e+00  2.69846361e+00  2.71665197e+00
  2.74340345e+00  2.78896957e+00  2.83733441e+00  2.85864001e+00
  2.86775364e+00  2.87093766e+00  2.88267007e+00  2.90504327e+00
  2.90958343e+00  2.91854227e+00  2.92722960e+00  2.93538202e+00
  2.95816703e+00  2.96994319e+00  3.26166086e+00  3.26994832e+00
  3.29220003e+00  3.30413138e+00  3.31683247e+00  3.32955911e+00
  3.65600990e+00  3.66553270e+00  3.67432179e+00  3.68138313e+00
  3.70934408e+00  3.75220719e+00  3.81078283e+00  3.82015119e+00
  3.85751726e+00  3.86099332e+00  3.86761013e+00  3.96387181e+00]
E1 = -1154.700986659644  E_coul = 436.7375532641144
cycle= 1 E= -456.01956100484  delta_E= -0.735  |g|= 1.04  |ddm|= 2.89
    CPU time for cycle= 1      0.55 sec, wall time      0.07 sec
diis-norm(errvec)=1.87354
diis-c [-3.51013658  1.        ]
  HOMO = -0.384090411366612  LUMO = 0.105910628710724
  mo_energy =
[-20.47321927 -20.46067019 -20.40707979 -20.36035427 -20.35269366
 -20.25824321  -1.39026523  -1.38942339  -1.3351402   -1.32199868
  -1.3125498   -1.23127217  -0.77043636  -0.7691426   -0.72582944
  -0.70248189  -0.68946249  -0.63987861  -0.61620529  -0.60642894
  -0.55200404  -0.54887906  -0.53882765  -0.52508167  -0.52208657
  -0.49062178  -0.47054154  -0.45973171  -0.4457865   -0.38409041
   0.10591063   0.13852059   0.18188659   0.2088456    0.23729537
   0.24622285   0.29968892   0.31472336   0.34687239   0.39383323
   0.43092606   0.49460623   0.91750263   0.93491275   0.97519181
   0.98089275   0.99887652   1.01591633   1.02557389   1.03491864
   1.05039704   1.10183762   1.10434135   1.12169967   1.13560593
   1.15821974   1.19017012   1.19865546   1.20991006   1.215569
   1.23311704   1.24746089   1.25927674   1.27498526   1.28566089
   1.29546662   1.32147738   1.35923226   1.39006762   1.41878551
   1.43471546   1.44886204   1.53323461   1.6413414    1.67326499
   1.69032112   1.71766156   1.73483727   1.73880701   1.76394627
   1.79090782   1.79479986   1.80816932   1.81560359   1.83005849
   1.84513904   1.85753149   1.86390575   1.88393044   1.91231744
   1.92866787   1.96473357   1.99216134   2.00860105   2.03716249
   2.08405736   2.4594322    2.46224051   2.50713338   2.51357519
   2.52992652   2.54493816   2.5514016    2.60856294   2.62797964
   2.63616524   2.69294864   2.73602371   2.74190401   2.75523432
   2.80244486   2.80829276   2.84965738   2.88243344   2.88919109
   2.90579987   2.91597424   2.94130573   2.94642676   2.9508626
   2.96657369   3.00090146   3.01728259   3.0326844    3.04388995
   3.11357253   3.29537774   3.3061644    3.35924922   3.37307689
   3.37476035   3.44736408   3.68133123   3.68567577   3.74932046
   3.75919539   3.82034755   3.85499939   3.87081024   3.89621018
   3.96734157   3.99571108   4.07284846   4.07658596]
E1 = -1145.9481963823976  E_coul = 427.82241793987487
cycle= 2 E= -456.181906051833  delta_E= -0.162  |g|= 0.504  |ddm|= 0.831
    CPU time for cycle= 2      0.53 sec, wall time      0.07 sec
diis-norm(errvec)=0.843914
diis-c [-0.16863839  0.28740435  0.71259565]
  HOMO = -0.484569059088285  LUMO = 0.107314458708394
  mo_energy =
[-20.6769712  -20.66897641 -20.64162833 -20.63734675 -20.61657466
 -20.55919347  -1.44219326  -1.4406934   -1.40438682  -1.39800804
  -1.39196571  -1.32515069  -0.80904822  -0.80454714  -0.77410288
  -0.76125276  -0.75143076  -0.70550751  -0.6767868   -0.66475129
  -0.63320834  -0.6291095   -0.61681668  -0.59033383  -0.58769929
  -0.56521439  -0.56009723  -0.5536501   -0.53303874  -0.48456906
   0.10731446   0.13516032   0.18064401   0.20471593   0.22872824
   0.23713434   0.28895479   0.30186573   0.33291838   0.37654412
   0.40851614   0.45999089   0.91230942   0.92190493   0.95507077
   0.96311082   0.98277017   1.00089746   1.00743838   1.01838577
   1.02460545   1.05672105   1.06903443   1.08757109   1.09108724
   1.10972744   1.12125542   1.12689983   1.14239065   1.16278498
   1.17342568   1.19299868   1.19946173   1.21585135   1.23022188
   1.24626218   1.27506819   1.30327203   1.34377987   1.36466594
   1.38019984   1.39323128   1.49679632   1.60269159   1.63067251
   1.64697906   1.67768427   1.70738007   1.71595639   1.73072069
   1.75167349   1.7587539    1.77016536   1.77536251   1.78264186
   1.80181098   1.81176972   1.82200982   1.83105537   1.85898242
   1.87365435   1.91004053   1.93561456   1.96660935   1.9919854
   2.03039822   2.4656798    2.48085735   2.48578328   2.48929297
   2.52904761   2.53518886   2.54296826   2.56676434   2.59858959
   2.6198727    2.65641804   2.6987033    2.7158093    2.72100581
   2.76093268   2.77003973   2.81966111   2.86640405   2.88138673
   2.90366605   2.91204115   2.92247191   2.92715551   2.93017067
   2.94183272   2.9772213    2.98513812   3.00879758   3.02060208
   3.07173036   3.29215569   3.29519177   3.33407817   3.35247826
   3.36047531   3.41329843   3.67252938   3.674865     3.71804035
   3.72840578   3.79732519   3.81809068   3.84354318   3.86767849
   3.9198432    3.94311301   4.00824798   4.04026651]
E1 = -1149.8487111852446  E_coul = 431.6788580280034
cycle= 3 E= -456.225980766552  delta_E= -0.0441  |g|= 0.0734  |ddm|= 0.326
    CPU time for cycle= 3      0.54 sec, wall time      0.07 sec
diis-norm(errvec)=0.135705
diis-c [-0.00875617 -0.02605112  0.0623586   0.96369252]
  HOMO = -0.475548663197419  LUMO = 0.114911449028049
  mo_energy =
[-20.6415499  -20.64106518 -20.60527529 -20.59790786 -20.594473
 -20.52662231  -1.42698111  -1.42540775  -1.3901228   -1.38470183
  -1.38002717  -1.31360026  -0.79594122  -0.78911757  -0.76324436
  -0.74899485  -0.73922585  -0.69629982  -0.66589671  -0.65281787
  -0.62284824  -0.61828113  -0.60821001  -0.57920475  -0.57582495
  -0.55720356  -0.54871426  -0.54160219  -0.52554221  -0.47554866
   0.11491145   0.1422602    0.18797308   0.21190896   0.23468182
   0.24421354   0.29563698   0.30702617   0.34056314   0.38405153
   0.41570987   0.46521303   0.92266159   0.93171879   0.96319285
   0.97048779   0.99135973   1.01209232   1.01928091   1.02656638
   1.03558944   1.06637594   1.07884165   1.09634964   1.10052864
   1.11811711   1.12988417   1.13495607   1.15054759   1.17200818
   1.18193616   1.20153548   1.20856287   1.22593758   1.24008748
   1.25568662   1.28519975   1.31338816   1.35331158   1.37327613
   1.38966885   1.40274335   1.50805891   1.61393171   1.64063181
   1.65804969   1.6880174    1.71939554   1.72998149   1.74215892
   1.76269067   1.77045712   1.78114813   1.78643536   1.79293847
   1.81105513   1.82187541   1.83110062   1.84013785   1.86877867
   1.88441736   1.91891592   1.94396157   1.97684931   2.00067305
   2.03786227   2.47779556   2.49397068   2.4987789    2.50175825
   2.53975509   2.54601031   2.55365377   2.57707164   2.60949761
   2.62736803   2.66524628   2.70827035   2.73008387   2.73441017
   2.77325222   2.78237329   2.82954816   2.87742108   2.89395149
   2.91576087   2.92224683   2.93320306   2.93885233   2.94169331
   2.95058943   2.98562757   2.99320916   3.01773267   3.03025998
   3.07778126   3.30500611   3.30655      3.34434134   3.36297042
   3.36845423   3.42040664   3.68926906   3.69032061   3.73204259
   3.74306802   3.80836348   3.82947882   3.85872966   3.88088499
   3.93165968   3.95557475   4.01710403   4.04943453]
E1 = -1149.414788681919  E_coul = 431.2437085594253
cycle= 4 E= -456.227207731804  delta_E= -0.00123  |g|= 0.0122  |ddm|= 0.0476
    CPU time for cycle= 4      0.53 sec, wall time      0.07 sec
diis-norm(errvec)=0.0250454
diis-c [-2.01274932e-04 -9.37829573e-03 -3.78975423e-02 -1.44571350e-01
  1.19184719e+00]
  HOMO = -0.476533456049582  LUMO = 0.114827698893118
  mo_energy =
[-20.64504078 -20.64149822 -20.60789123 -20.60235947 -20.59226281
 -20.52744189  -1.42714862  -1.42629911  -1.39130754  -1.38529248
  -1.3806101   -1.3143014   -0.79528017  -0.7893845   -0.76291709
  -0.74921477  -0.73966081  -0.69630592  -0.66600006  -0.65335141
  -0.62358897  -0.61947645  -0.60819595  -0.57983569  -0.57740953
  -0.55724612  -0.55026594  -0.54380035  -0.52573186  -0.47653346
   0.1148277    0.14251      0.18803052   0.21186519   0.2348918
   0.244923     0.29565111   0.30665561   0.34067332   0.38408203
   0.41628335   0.4655132    0.92268437   0.93191915   0.96289991
   0.97059738   0.99119852   1.01191248   1.01959334   1.0262278
   1.03537361   1.0657581    1.07815342   1.0959118    1.09981556
   1.11778676   1.12874369   1.13458664   1.150066     1.17173294
   1.18144939   1.20092643   1.20827247   1.22569864   1.23947684
   1.25583615   1.28504371   1.31335601   1.35336051   1.37320848
   1.38974336   1.40243954   1.50793178   1.61346242   1.640466
   1.65769984   1.68792361   1.71971744   1.72958755   1.74222085
   1.76226981   1.77002081   1.78094485   1.78627766   1.79259693
   1.8111519    1.82155811   1.83126759   1.83982277   1.86835772
   1.88362773   1.91877254   1.94362119   1.97665988   2.00072453
   2.03809104   2.47858077   2.49426335   2.49896157   2.50196904
   2.53967189   2.54596995   2.55351231   2.57675787   2.60936888
   2.62712335   2.66577928   2.70809537   2.73024886   2.73477089
   2.77292646   2.78249407   2.83016956   2.87807642   2.89414088
   2.91668104   2.92243591   2.93308715   2.93908398   2.94148204
   2.95057595   2.98609821   2.99345307   3.01737293   3.03032392
   3.07789677   3.30534305   3.30713008   3.34415664   3.36334758
   3.36912101   3.42033238   3.68935782   3.6911859    3.73179287
   3.74253078   3.80865388   3.82952499   3.85871834   3.88175947
   3.93180513   3.95521602   4.01727      4.05034718]
E1 = -1149.4325792489526  E_coul = 431.26143528179625
cycle= 5 E= -456.227271576467  delta_E= -6.38e-05  |g|= 0.00297  |ddm|= 0.0154
    CPU time for cycle= 5      0.54 sec, wall time      0.07 sec
diis-norm(errvec)=0.00535727
diis-c [-2.15487109e-05  3.25471936e-04 -1.57748108e-03 -3.09078382e-02
  4.46172632e-02  9.87542584e-01]
  HOMO = -0.477038245173245  LUMO = 0.114881396112903
  mo_energy =
[-20.64342923 -20.64179682 -20.60749233 -20.60075719 -20.5948678
 -20.52839275  -1.42711596  -1.4259892   -1.39123822  -1.38544104
  -1.38092673  -1.31472211  -0.79527722  -0.78881309  -0.76320042
  -0.74911769  -0.73946613  -0.69670763  -0.66606973  -0.65309231
  -0.62362377  -0.61914762  -0.6087179   -0.58006493  -0.57727489
  -0.55790916  -0.55032855  -0.54346335  -0.52661161  -0.47703825
   0.1148814    0.142472     0.18813647   0.21194186   0.23477172
   0.24490619   0.29562054   0.30653599   0.34070028   0.38406461
   0.4160428    0.46516506   0.92275941   0.931884     0.96289628
   0.97031804   0.99108779   1.01184736   1.01952216   1.02612436
   1.03542027   1.06568336   1.07824453   1.09577877   1.09994097
   1.11762007   1.12884096   1.13437554   1.14997353   1.17156159
   1.18118946   1.20077249   1.20828617   1.22586772   1.23944366
   1.25563841   1.28494845   1.31324486   1.352904     1.37295429
   1.38943074   1.40237182   1.50784246   1.61359152   1.64036847
   1.65768832   1.68771182   1.71957663   1.72987462   1.7421817
   1.76224084   1.77011102   1.78092377   1.7862197    1.79251058
   1.81087166   1.82147134   1.83086823   1.83952752   1.86827653
   1.8837994    1.91851387   1.94330976   1.97669194   2.00042
   2.03757207   2.47848889   2.49432955   2.49906623   2.50199108
   2.53968383   2.54591731   2.55352691   2.57677299   2.60933438
   2.62689785   2.6652115    2.70776978   2.73040389   2.73477573
   2.77302979   2.78245154   2.82972207   2.87798771   2.8943196
   2.91659427   2.92223772   2.93311056   2.93909604   2.94164635
   2.95047067   2.98575953   2.99310886   3.01719487   3.0302401
   3.07748332   3.30550342   3.30710081   3.34427101   3.36329301
   3.36870967   3.42004606   3.68960488   3.69109764   3.7318034
   3.74272181   3.80825899   3.82916671   3.85906834   3.88163356
   3.9317202    3.95542045   4.01687259   4.04975217]
E1 = -1149.4304774557859  E_coul = 431.2593306601979
cycle= 6 E= -456.227274404898  delta_E= -2.83e-06  |g|= 0.00128  |ddm|= 0.00332
    CPU time for cycle= 6      0.53 sec, wall time      0.07 sec
diis-norm(errvec)=0.00231066
diis-c [-1.24596526e-06  1.34310875e-03  4.95054546e-03  9.35871813e-03
 -1.38262860e-01  2.24426486e-01  8.98184002e-01]
  HOMO = -0.476991132968346  LUMO = 0.11486461867969
  mo_energy =
[-20.64387202 -20.64162202 -20.60753153 -20.60120143 -20.59387545
 -20.52803552  -1.42712366  -1.42610035  -1.39127551  -1.38538686
  -1.38086291  -1.31463068  -0.79521405  -0.78886212  -0.76307465
  -0.74907786  -0.73945698  -0.69659675  -0.66608814  -0.65319091
  -0.62367886  -0.619312    -0.60861168  -0.58010198  -0.57743039
  -0.55777869  -0.55041247  -0.5436811   -0.52644144  -0.47699113
   0.11486462   0.14246339   0.18813334   0.21193245   0.23477941
   0.24492568   0.29560743   0.30653304   0.34070252   0.38405841
   0.41609379   0.4652062    0.9227241    0.93186588   0.96284734
   0.97034412   0.99106678   1.01182101   1.01951139   1.02609422
   1.03538502   1.06563654   1.07816118   1.0957582    1.09985451
   1.11760308   1.1287182    1.13437941   1.14993991   1.17155915
   1.18120118   1.20075941   1.20825866   1.22582443   1.23939862
   1.25567678   1.28493892   1.31323668   1.3529943    1.37300982
   1.3895219    1.40238169   1.50785906   1.61353435   1.64036156
   1.65766717   1.68774172   1.7195721    1.72978258   1.74216045
   1.76220685   1.7700503    1.78089746   1.78619491   1.7924937
   1.81090474   1.82145339   1.83095171   1.83955303   1.8682547
   1.88370501   1.91854255   1.94334481   1.97665518   2.00047556
   2.03767545   2.47848094   2.49430945   2.49902293   2.50194622
   2.53964004   2.54588645   2.55348598   2.57670878   2.60929647
   2.62688809   2.66532934   2.70780035   2.73034584   2.73474727
   2.77295411   2.78241862   2.82980953   2.8779724    2.89427244
   2.91659377   2.92225289   2.93308055   2.93909353   2.94158845
   2.95044269   2.98578926   2.99316716   3.01719839   3.03020711
   3.07751456   3.30546183   3.30707905   3.34419514   3.36326541
   3.36877998   3.42005454   3.68954586   3.69109968   3.7317709
   3.74264099   3.80833549   3.82922619   3.85896987   3.8816367
   3.93170179   3.95531038   4.01691458   4.04987862]
E1 = -1149.428187654452  E_coul = 431.25704037446303
cycle= 7 E= -456.227274889299  delta_E= -4.84e-07  |g|= 0.000204  |ddm|= 0.00133
    CPU time for cycle= 7      0.57 sec, wall time      0.07 sec
diis-norm(errvec)=0.000383105
diis-c [-4.15496522e-08 -1.81096837e-04 -4.30795347e-04 -5.68563698e-04
  1.60133540e-02 -8.36105296e-02 -1.24565117e-01  1.19334275e+00]
  HOMO = -0.477002018246646  LUMO = 0.114869093289576
  mo_energy =
[-20.64378849 -20.64159025 -20.60751548 -20.60116559 -20.59394232
 -20.52800143  -1.4271068   -1.42607407  -1.39127548  -1.38539711
  -1.38087533  -1.31463119  -0.79518706  -0.78881878  -0.76307347
  -0.74906492  -0.7394459   -0.69659946  -0.66608064  -0.65317445
  -0.62368579  -0.61931445  -0.60862564  -0.58010242  -0.57743133
  -0.55779864  -0.55042565  -0.54368874  -0.52647346  -0.47700202
   0.11486909   0.14247094   0.18814328   0.21194093   0.23478277
   0.24494104   0.29561275   0.30652477   0.34070771   0.38406221
   0.41609852   0.46520642   0.92274047   0.93187992   0.96285056
   0.97034421   0.99107014   1.01182536   1.01952698   1.02609474
   1.03539786   1.06563842   1.07816436   1.09575667   1.0998628
   1.11760014   1.12871663   1.13437419   1.14993877   1.1715638
   1.18120084   1.20075635   1.2082693    1.22584463   1.23940254
   1.25568337   1.28494508   1.31324801   1.35298658   1.37301553
   1.38952029   1.40238468   1.50786929   1.61354433   1.64036656
   1.65767374   1.6877461    1.71958241   1.72980367   1.74217198
   1.76220414   1.77005664   1.7809042    1.78619901   1.7924908
   1.81090277   1.82145255   1.83094287   1.83954829   1.86825394
   1.88370739   1.91854012   1.94334167   1.97666455   2.00047325
   2.0376671    2.47849728   2.49432773   2.49904263   2.50196328
   2.5396435    2.54589176   2.55348749   2.57670921   2.60930066
   2.62688076   2.66531744   2.70779495   2.73036775   2.7347643
   2.77295887   2.78242775   2.82980264   2.87798671   2.8942922
   2.91661163   2.92226048   2.93307943   2.93910556   2.94158651
   2.95044482   2.98578962   2.993159     3.0171842    3.03021541
   3.07751481   3.30548408   3.30709428   3.3441989    3.36327647
   3.36877355   3.42005033   3.68957482   3.69112243   3.73177531
   3.74264422   3.80832629   3.82921822   3.85899724   3.88165402
   3.93170818   3.95531896   4.01691701   4.04986929]
E1 = -1149.4277589990156  E_coul = 431.25661169962075
cycle= 8 E= -456.227274908705  delta_E= -1.94e-08  |g|= 3.57e-05  |ddm|= 0.000325
    CPU time for cycle= 8      0.54 sec, wall time      0.07 sec
diis-norm(errvec)=6.43545e-05
diis-c [-2.56026649e-09 -5.23959348e-05 -1.72662473e-04 -3.72567059e-04
  5.29015967e-03 -1.16976778e-02 -3.62440652e-02  6.00050957e-02
  9.83244113e-01]
  HOMO = -0.477010119022263  LUMO = 0.114870246318066
  mo_energy =
[-20.64379426 -20.64159398 -20.60749849 -20.60114519 -20.59392168
 -20.52802337  -1.42710779  -1.42607494  -1.39127005  -1.38539019
  -1.38086836  -1.3146385   -0.79518581  -0.78881702  -0.76306753
  -0.74905907  -0.73943872  -0.69660088  -0.6660817   -0.65317443
  -0.62368225  -0.61930875  -0.60862449  -0.58010329  -0.57743351
  -0.5577997   -0.5504211   -0.54368188  -0.52647304  -0.47701012
   0.11487025   0.14247106   0.18814479   0.21194217   0.23478352
   0.24494128   0.29561401   0.30652416   0.34071015   0.38406479
   0.41610073   0.46520498   0.92274156   0.93188059   0.9628523
   0.97034588   0.99107172   1.01182629   1.01952698   1.0260949
   1.03539848   1.06563945   1.07816592   1.09575714   1.09986242
   1.11760085   1.12871941   1.13437701   1.14994119   1.17156365
   1.18119864   1.20075701   1.2082688    1.2258455    1.23940284
   1.25568528   1.28494655   1.31324931   1.35298948   1.37301328
   1.38952396   1.40238751   1.50786983   1.61354649   1.64036796
   1.65767609   1.68774555   1.71958233   1.72980431   1.7421718
   1.76220786   1.77005887   1.78090518   1.78620125   1.79249446
   1.81090273   1.8214547    1.83094547   1.83954539   1.86825634
   1.8837113    1.91854123   1.94333755   1.97666518   2.0004746
   2.03766758   2.47849789   2.49432932   2.49904324   2.50196334
   2.53964614   2.54589339   2.55349023   2.57671307   2.6093033
   2.62687974   2.6653206    2.70779218   2.73036866   2.73476523
   2.77296267   2.78243002   2.8298068    2.87798713   2.89429371
   2.91661129   2.9222589    2.93308224   2.93910693   2.94159079
   2.9504467    2.98579124   2.99316132   3.01718262   3.03021649
   3.07751192   3.30548553   3.30709535   3.34420233   3.36327802
   3.36877717   3.42004762   3.68957543   3.69112198   3.73177858
   3.74264846   3.80832865   3.8292181    3.8589984    3.88165443
   3.93171146   3.95532338   4.01691216   4.04987369]
E1 = -1149.4277243470262  E_coul = 431.2565770471819
cycle= 9 E= -456.227274909155  delta_E= -4.49e-10  |g|= 1.4e-05  |ddm|= 4.68e-05
    CPU time for cycle= 9      0.53 sec, wall time      0.07 sec
  HOMO = -0.477005292563099  LUMO = 0.114870373523694
  mo_energy =
[-20.64378938 -20.64159008 -20.60750558 -20.60115447 -20.5939288
 -20.52800975  -1.4271063   -1.42607304  -1.39127192  -1.38539249
  -1.38087069  -1.31463397  -0.79518507  -0.78881526  -0.7630686
  -0.74906033  -0.7394405   -0.69659873  -0.66608027  -0.65317305
  -0.62368379  -0.61931149  -0.6086244   -0.5801019   -0.57743167
  -0.55779866  -0.55042256  -0.54368423  -0.52647286  -0.47700529
   0.11487037   0.14247113   0.18814473   0.2119421    0.23478355
   0.24494143   0.29561384   0.30652468   0.34071002   0.38406453
   0.4161006    0.46520573   0.9227419    0.93188066   0.96285172
   0.97034561   0.99107145   1.01182588   1.01952702   1.02609505
   1.03539876   1.06563942   1.07816526   1.09575753   1.09986352
   1.1176008    1.12871822   1.13437605   1.14994042   1.17156426
   1.18120018   1.20075747   1.20827005   1.22584645   1.23940356
   1.2556853    1.28494655   1.31324928   1.35298882   1.37301528
   1.38952332   1.4023871    1.5078703    1.61354636   1.64036788
   1.65767561   1.68774665   1.71958282   1.72980537   1.74217283
   1.7622067    1.77005856   1.78090554   1.78620072   1.79249338
   1.81090353   1.8214544    1.83094526   1.8395473    1.86825558
   1.88370993   1.91854117   1.94334007   1.97666608   2.0004747
   2.03766785   2.47849782   2.49432986   2.49904417   2.50196424
   2.53964566   2.54589305   2.55348966   2.57671199   2.60930253
   2.6268804    2.66532008   2.70779415   2.73036949   2.73476573
   2.77296149   2.78242945   2.82980597   2.8779873    2.89429467
   2.91661165   2.9222605    2.93308135   2.93910761   2.94158969
   2.95044605   2.98579062   2.99316174   3.01718401   3.03021633
   3.07751341   3.30548635   3.30709547   3.34420117   3.36327775
   3.36877681   3.42004927   3.68957646   3.69112255   3.73177751
   3.74264696   3.80832882   3.82921914   3.8589996    3.88165494
   3.93171059   3.95532167   4.01691497   4.04987249]
E1 = -1149.4277347158832  E_coul = 431.2565874159821
Extra cycle  E= -456.227274909212  delta_E= -5.68e-11  |g|= 7.69e-06  |ddm|= 1.68e-05
    CPU time for scf_cycle      8.80 sec, wall time      1.11 sec
    CPU time for SCF      8.86 sec, wall time      1.12 sec
converged SCF energy = -456.227274909212
