Atom number=12                                                          
SP        RHF                                                         6-31G(d,p)          
Number of atoms                            I               12
Info1-9                                    I   N=           9
         107         106           0           0           0         111
           1           1           2
Full Title                                 C   N=           2
Atom number=12          
Route                                      C   N=           4
#p hf/6-31g** 5d 7f pop=npa charge nosymm       
Charge                                     I                0
Multiplicity                               I                1
Number of electrons                        I               40
Number of alpha electrons                  I               20
Number of beta electrons                   I               20
Number of basis functions                  I               96
Number of independent functions            I               96
Number of point charges in /Mol/           I                0
Number of translation vectors              I                0
Atomic numbers                             I   N=          12
           8           8           8           8           1           1
           1           1           1           1           1           1
Nuclear charges                            R   N=          12
  8.00000000E+00  8.00000000E+00  8.00000000E+00  8.00000000E+00  1.00000000E+00
  1.00000000E+00  1.00000000E+00  1.00000000E+00  1.00000000E+00  1.00000000E+00
  1.00000000E+00  1.00000000E+00
Current cartesian coordinates              R   N=          36
  1.05265153E+01 -2.41129828E+01 -2.02839555E+01  1.05536555E+01 -2.94649215E+01
 -2.16748884E+01  1.46630370E+01 -3.11898692E+01 -2.50313519E+01  1.05661769E+01
 -2.93540381E+01 -1.64410274E+01  8.77344660E+00 -2.42410798E+01 -1.98570305E+01
  1.13076525E+01 -2.34423738E+01 -1.87966655E+01  8.84108934E+00 -2.90041213E+01
 -2.20308448E+01  1.13441828E+01 -2.79179445E+01 -2.11710515E+01  1.38099655E+01
 -3.06346091E+01 -2.35360646E+01  1.61331437E+01 -3.01406725E+01 -2.51308649E+01
  1.19228094E+01 -3.03692708E+01 -1.58079521E+01  1.03486278E+01 -2.99029053E+01
 -1.81508043E+01
Number of symbols in /Mol/                 I                0
Force Field                                I                0
Atom Types                                 C   N=          12
                                                            
                                                            
                        
Int Atom Types                             I   N=          12
           0           0           0           0           0           0
           0           0           0           0           0           0
MM charges                                 R   N=          12
  0.00000000E+00  0.00000000E+00  0.00000000E+00  0.00000000E+00  0.00000000E+00
  0.00000000E+00  0.00000000E+00  0.00000000E+00  0.00000000E+00  0.00000000E+00
  0.00000000E+00  0.00000000E+00
Integer atomic weights                     I   N=          12
          16          16          16          16           1           1
           1           1           1           1           1           1
Real atomic weights                        R   N=          12
  1.59949146E+01  1.59949146E+01  1.59949146E+01  1.59949146E+01  1.00782504E+00
  1.00782504E+00  1.00782504E+00  1.00782504E+00  1.00782504E+00  1.00782504E+00
  1.00782504E+00  1.00782504E+00
Atom fragment info                         I   N=          12
           0           0           0           0           0           0
           0           0           0           0           0           0
Atom residue num                           I   N=          12
           0           0           0           0           0           0
           0           0           0           0           0           0
Nuclear spins                              I   N=          12
           0           0           0           0           1           1
           1           1           1           1           1           1
Nuclear ZEff                               R   N=          12
 -5.60000000E+00 -5.60000000E+00 -5.60000000E+00 -5.60000000E+00 -1.00000000E+00
 -1.00000000E+00 -1.00000000E+00 -1.00000000E+00 -1.00000000E+00 -1.00000000E+00
 -1.00000000E+00 -1.00000000E+00
Nuclear ZNuc                               R   N=          12
  8.00000000E+00  8.00000000E+00  8.00000000E+00  8.00000000E+00  1.00000000E+00
  1.00000000E+00  1.00000000E+00  1.00000000E+00  1.00000000E+00  1.00000000E+00
  1.00000000E+00  1.00000000E+00
Nuclear QMom                               R   N=          12
  0.00000000E+00  0.00000000E+00  0.00000000E+00  0.00000000E+00  0.00000000E+00
  0.00000000E+00  0.00000000E+00  0.00000000E+00  0.00000000E+00  0.00000000E+00
  0.00000000E+00  0.00000000E+00
Nuclear GFac                               R   N=          12
  0.00000000E+00  0.00000000E+00  0.00000000E+00  0.00000000E+00  2.79284600E+00
  2.79284600E+00  2.79284600E+00  2.79284600E+00  2.79284600E+00  2.79284600E+00
  2.79284600E+00  2.79284600E+00
MicOpt                                     I   N=          12
          -1          -1          -1          -1          -1          -1
          -1          -1          -1          -1          -1          -1
Number of residues                         I                0
Number of secondary structures             I                0
Number of contracted shells                I               40
Number of primitive shells                 I               84
Pure/Cartesian d shells                    I                0
Pure/Cartesian f shells                    I                0
Highest angular momentum                   I                2
Largest degree of contraction              I                6
Shell types                                I   N=          40
           0          -1          -1          -2           0          -1
          -1          -2           0          -1          -1          -2
           0          -1          -1          -2           0           0
           1           0           0           1           0           0
           1           0           0           1           0           0
           1           0           0           1           0           0
           1           0           0           1
Number of primitives per shell             I   N=          40
           6           3           1           1           6           3
           1           1           6           3           1           1
           6           3           1           1           3           1
           1           3           1           1           3           1
           1           3           1           1           3           1
           1           3           1           1           3           1
           1           3           1           1
Shell to atom map                          I   N=          40
           1           1           1           1           2           2
           2           2           3           3           3           3
           4           4           4           4           5           5
           5           6           6           6           7           7
           7           8           8           8           9           9
           9          10          10          10          11          11
          11          12          12          12
Primitive exponents                        R   N=          84
  5.48467166E+03  8.25234946E+02  1.88046958E+02  5.29645000E+01  1.68975704E+01
  5.79963534E+00  1.55396162E+01  3.59993359E+00  1.01376175E+00  2.70005823E-01
  8.00000000E-01  5.48467166E+03  8.25234946E+02  1.88046958E+02  5.29645000E+01
  1.68975704E+01  5.79963534E+00  1.55396162E+01  3.59993359E+00  1.01376175E+00
  2.70005823E-01  8.00000000E-01  5.48467166E+03  8.25234946E+02  1.88046958E+02
  5.29645000E+01  1.68975704E+01  5.79963534E+00  1.55396162E+01  3.59993359E+00
  1.01376175E+00  2.70005823E-01  8.00000000E-01  5.48467166E+03  8.25234946E+02
  1.88046958E+02  5.29645000E+01  1.68975704E+01  5.79963534E+00  1.55396162E+01
  3.59993359E+00  1.01376175E+00  2.70005823E-01  8.00000000E-01  1.87311370E+01
  2.82539436E+00  6.40121692E-01  1.61277759E-01  1.10000000E+00  1.87311370E+01
  2.82539436E+00  6.40121692E-01  1.61277759E-01  1.10000000E+00  1.87311370E+01
  2.82539436E+00  6.40121692E-01  1.61277759E-01  1.10000000E+00  1.87311370E+01
  2.82539436E+00  6.40121692E-01  1.61277759E-01  1.10000000E+00  1.87311370E+01
  2.82539436E+00  6.40121692E-01  1.61277759E-01  1.10000000E+00  1.87311370E+01
  2.82539436E+00  6.40121692E-01  1.61277759E-01  1.10000000E+00  1.87311370E+01
  2.82539436E+00  6.40121692E-01  1.61277759E-01  1.10000000E+00  1.87311370E+01
  2.82539436E+00  6.40121692E-01  1.61277759E-01  1.10000000E+00
Contraction coefficients                   R   N=          84
  1.83107443E-03  1.39501722E-02  6.84450781E-02  2.32714336E-01  4.70192898E-01
  3.58520853E-01 -1.10777550E-01 -1.48026263E-01  1.13076702E+00  1.00000000E+00
  1.00000000E+00  1.83107443E-03  1.39501722E-02  6.84450781E-02  2.32714336E-01
  4.70192898E-01  3.58520853E-01 -1.10777550E-01 -1.48026263E-01  1.13076702E+00
  1.00000000E+00  1.00000000E+00  1.83107443E-03  1.39501722E-02  6.84450781E-02
  2.32714336E-01  4.70192898E-01  3.58520853E-01 -1.10777550E-01 -1.48026263E-01
  1.13076702E+00  1.00000000E+00  1.00000000E+00  1.83107443E-03  1.39501722E-02
  6.84450781E-02  2.32714336E-01  4.70192898E-01  3.58520853E-01 -1.10777550E-01
 -1.48026263E-01  1.13076702E+00  1.00000000E+00  1.00000000E+00  3.34946043E-02
  2.34726953E-01  8.13757326E-01  1.00000000E+00  1.00000000E+00  3.34946043E-02
  2.34726953E-01  8.13757326E-01  1.00000000E+00  1.00000000E+00  3.34946043E-02
  2.34726953E-01  8.13757326E-01  1.00000000E+00  1.00000000E+00  3.34946043E-02
  2.34726953E-01  8.13757326E-01  1.00000000E+00  1.00000000E+00  3.34946043E-02
  2.34726953E-01  8.13757326E-01  1.00000000E+00  1.00000000E+00  3.34946043E-02
  2.34726953E-01  8.13757326E-01  1.00000000E+00  1.00000000E+00  3.34946043E-02
  2.34726953E-01  8.13757326E-01  1.00000000E+00  1.00000000E+00  3.34946043E-02
  2.34726953E-01  8.13757326E-01  1.00000000E+00  1.00000000E+00
P(S=P) Contraction coefficients            R   N=          84
  0.00000000E+00  0.00000000E+00  0.00000000E+00  0.00000000E+00  0.00000000E+00
  0.00000000E+00  7.08742682E-02  3.39752839E-01  7.27158577E-01  1.00000000E+00
  0.00000000E+00  0.00000000E+00  0.00000000E+00  0.00000000E+00  0.00000000E+00
  0.00000000E+00  0.00000000E+00  7.08742682E-02  3.39752839E-01  7.27158577E-01
  1.00000000E+00  0.00000000E+00  0.00000000E+00  0.00000000E+00  0.00000000E+00
  0.00000000E+00  0.00000000E+00  0.00000000E+00  7.08742682E-02  3.39752839E-01
  7.27158577E-01  1.00000000E+00  0.00000000E+00  0.00000000E+00  0.00000000E+00
  0.00000000E+00  0.00000000E+00  0.00000000E+00  0.00000000E+00  7.08742682E-02
  3.39752839E-01  7.27158577E-01  1.00000000E+00  0.00000000E+00  0.00000000E+00
  0.00000000E+00  0.00000000E+00  0.00000000E+00  0.00000000E+00  0.00000000E+00
  0.00000000E+00  0.00000000E+00  0.00000000E+00  0.00000000E+00  0.00000000E+00
  0.00000000E+00  0.00000000E+00  0.00000000E+00  0.00000000E+00  0.00000000E+00
  0.00000000E+00  0.00000000E+00  0.00000000E+00  0.00000000E+00  0.00000000E+00
  0.00000000E+00  0.00000000E+00  0.00000000E+00  0.00000000E+00  0.00000000E+00
  0.00000000E+00  0.00000000E+00  0.00000000E+00  0.00000000E+00  0.00000000E+00
  0.00000000E+00  0.00000000E+00  0.00000000E+00  0.00000000E+00  0.00000000E+00
  0.00000000E+00  0.00000000E+00  0.00000000E+00  0.00000000E+00
Coordinates of each shell                  R   N=         120
  1.05265153E+01 -2.41129828E+01 -2.02839555E+01  1.05265153E+01 -2.41129828E+01
 -2.02839555E+01  1.05265153E+01 -2.41129828E+01 -2.02839555E+01  1.05265153E+01
 -2.41129828E+01 -2.02839555E+01  1.05536555E+01 -2.94649215E+01 -2.16748884E+01
  1.05536555E+01 -2.94649215E+01 -2.16748884E+01  1.05536555E+01 -2.94649215E+01
 -2.16748884E+01  1.05536555E+01 -2.94649215E+01 -2.16748884E+01  1.46630370E+01
 -3.11898692E+01 -2.50313519E+01  1.46630370E+01 -3.11898692E+01 -2.50313519E+01
  1.46630370E+01 -3.11898692E+01 -2.50313519E+01  1.46630370E+01 -3.11898692E+01
 -2.50313519E+01  1.05661769E+01 -2.93540381E+01 -1.64410274E+01  1.05661769E+01
 -2.93540381E+01 -1.64410274E+01  1.05661769E+01 -2.93540381E+01 -1.64410274E+01
  1.05661769E+01 -2.93540381E+01 -1.64410274E+01  8.77344660E+00 -2.42410798E+01
 -1.98570305E+01  8.77344660E+00 -2.42410798E+01 -1.98570305E+01  8.77344660E+00
 -2.42410798E+01 -1.98570305E+01  1.13076525E+01 -2.34423738E+01 -1.87966655E+01
  1.13076525E+01 -2.34423738E+01 -1.87966655E+01  1.13076525E+01 -2.34423738E+01
 -1.87966655E+01  8.84108934E+00 -2.90041213E+01 -2.20308448E+01  8.84108934E+00
 -2.90041213E+01 -2.20308448E+01  8.84108934E+00 -2.90041213E+01 -2.20308448E+01
  1.13441828E+01 -2.79179445E+01 -2.11710515E+01  1.13441828E+01 -2.79179445E+01
 -2.11710515E+01  1.13441828E+01 -2.79179445E+01 -2.11710515E+01  1.38099655E+01
 -3.06346091E+01 -2.35360646E+01  1.38099655E+01 -3.06346091E+01 -2.35360646E+01
  1.38099655E+01 -3.06346091E+01 -2.35360646E+01  1.61331437E+01 -3.01406725E+01
 -2.51308649E+01  1.61331437E+01 -3.01406725E+01 -2.51308649E+01  1.61331437E+01
 -3.01406725E+01 -2.51308649E+01  1.19228094E+01 -3.03692708E+01 -1.58079521E+01
  1.19228094E+01 -3.03692708E+01 -1.58079521E+01  1.19228094E+01 -3.03692708E+01
 -1.58079521E+01  1.03486278E+01 -2.99029053E+01 -1.81508043E+01  1.03486278E+01
 -2.99029053E+01 -1.81508043E+01  1.03486278E+01 -2.99029053E+01 -1.81508043E+01
Num ILSW                                   I              100
ILSW                                       I   N=         100
           0           0           0           0           2           0
           0           0           0           0           0          -1
           5           0           0           0           0           0
           0           0           0           0           0           0
           1           1           0           0           0           0
           0           0      100000           0          -1           0
           0           0           0           0           0           0
           0           0           0           1           0           0
           0 -2000000000           1           0           0           0
           0           0           4          52           0           0
           0           1           0           0           0           0
           0           0           0          12           0           1
           0           0           0           0           0           0
           0           0           0           0           0           0
           0           0           0           0           0           0
           0           0           0           0           0           0
           0           0           0           0
Num RLSW                                   I               52
RLSW                                       R   N=          52
  1.00000000E+00  1.00000000E+00  1.00000000E+00  1.00000000E+00  1.00000000E+00
  0.00000000E+00  0.00000000E+00  1.00000000E+00  0.00000000E+00  0.00000000E+00
  0.00000000E+00  0.00000000E+00  1.00000000E+00  0.00000000E+00  0.00000000E+00
  0.00000000E+00  0.00000000E+00  1.00000000E+00  0.00000000E+00  0.00000000E+00
  0.00000000E+00  0.00000000E+00  1.00000000E+00  0.00000000E+00  0.00000000E+00
  0.00000000E+00  0.00000000E+00  1.00000000E+00  0.00000000E+00  0.00000000E+00
  0.00000000E+00  0.00000000E+00  1.00000000E+00  0.00000000E+00  0.00000000E+00
  0.00000000E+00  0.00000000E+00  0.00000000E+00  1.00000000E+00  1.00000000E+00
  0.00000000E+00  1.00000000E+00  0.00000000E+00  0.00000000E+00  0.00000000E+00
  0.00000000E+00  0.00000000E+00  0.00000000E+00  0.00000000E+00  0.00000000E+00
  0.00000000E+00  0.00000000E+00
MxBond                                     I                2
NBond                                      I   N=          12
           2           2           2           2           1           1
           1           1           1           1           1           1
IBond                                      I   N=          24
           5           6           7           8           9          10
          11          12           1           0           1           0
           2           0           2           0           3           0
           3           0           4           0           4           0
RBond                                      R   N=          24
  1.00000000E+00  1.00000000E+00  1.00000000E+00  1.00000000E+00  1.00000000E+00
  1.00000000E+00  1.00000000E+00  1.00000000E+00  1.00000000E+00  0.00000000E+00
  1.00000000E+00  0.00000000E+00  1.00000000E+00  0.00000000E+00  1.00000000E+00
  0.00000000E+00  1.00000000E+00  0.00000000E+00  1.00000000E+00  0.00000000E+00
  1.00000000E+00  0.00000000E+00  1.00000000E+00  0.00000000E+00
Virial Ratio                               R      2.046456609273639E+00
SCF Energy                                 R     -3.177429955759649E+02
Total Energy                               R     -3.177429955759649E+02
RMS Density                                R      6.370194194355729E-09
Job Status                                 I                1
Nuclear derivative order                   I                0
External E-field                           R   N=          35
  0.00000000E+00  0.00000000E+00  0.00000000E+00  0.00000000E+00  0.00000000E+00
  0.00000000E+00  0.00000000E+00  0.00000000E+00  0.00000000E+00  0.00000000E+00
  0.00000000E+00  0.00000000E+00  0.00000000E+00  0.00000000E+00  0.00000000E+00
  0.00000000E+00  0.00000000E+00  0.00000000E+00  0.00000000E+00  0.00000000E+00
  0.00000000E+00  0.00000000E+00  0.00000000E+00  0.00000000E+00  0.00000000E+00
  0.00000000E+00  0.00000000E+00  0.00000000E+00  0.00000000E+00  0.00000000E+00
  0.00000000E+00  0.00000000E+00  0.00000000E+00  0.00000000E+00  0.00000000E+00
IOpCl                                      I                0
IROHF                                      I                0
Alpha Orbital Energies                     R   N=          96
 -2.06019114E+01 -2.05845328E+01 -2.05301666E+01 -2.05081468E+01 -1.39135318E+00
 -1.36830459E+00 -1.31261071E+00 -1.29318507E+00 -7.56621619E-01 -7.32592162E-01
 -6.74404277E-01 -6.61929799E-01 -6.32614573E-01 -6.01968226E-01 -5.48590155E-01
 -5.44100763E-01 -5.28992587E-01 -5.15485610E-01 -4.70862634E-01 -4.51216968E-01
  1.65811057E-01  2.20660551E-01  2.93719888E-01  3.00499399E-01  3.59607926E-01
  3.77267275E-01  4.03572866E-01  4.29560541E-01  9.45223660E-01  9.87631253E-01
  1.01717387E+00  1.04429937E+00  1.06303730E+00  1.08478505E+00  1.11616473E+00
  1.12996139E+00  1.13906269E+00  1.16745242E+00  1.18951710E+00  1.21757827E+00
  1.23198828E+00  1.26899053E+00  1.27917389E+00  1.28394793E+00  1.31336327E+00
  1.34487055E+00  1.38617173E+00  1.41299276E+00  1.56450102E+00  1.66300551E+00
  1.69410306E+00  1.71657857E+00  1.78384983E+00  1.78859379E+00  1.81364385E+00
  1.83788965E+00  1.84565281E+00  1.84814882E+00  1.86854491E+00  1.88114988E+00
  1.93392582E+00  1.95736294E+00  1.98894309E+00  2.01795385E+00  2.52645565E+00
  2.54950541E+00  2.57612860E+00  2.60776926E+00  2.62849162E+00  2.63606945E+00
  2.63892754E+00  2.69281416E+00  2.78020592E+00  2.80493903E+00  2.85748062E+00
  2.86215099E+00  2.92791543E+00  2.93850515E+00  2.97291713E+00  3.01550536E+00
  3.04109476E+00  3.04501240E+00  3.05163358E+00  3.12195704E+00  3.33692074E+00
  3.39557551E+00  3.43268614E+00  3.44090091E+00  3.72382827E+00  3.76666496E+00
  3.80339455E+00  3.82436966E+00  3.91865991E+00  3.96472226E+00  3.98776024E+00
  4.02638251E+00
Alpha MO coefficients                      R   N=        9216
  1.12740448E-05  3.83868034E-05  3.85243382E-06 -7.24651729E-06  7.57560266E-07
 -1.10265208E-04 -2.43686896E-05  2.19670464E-05 -4.04712225E-05 -3.35287221E-06
 -6.33560641E-06  6.78264702E-07  5.70705952E-06 -7.45851919E-07  2.41183858E-04
  2.76730127E-04 -1.65594531E-05 -6.01125935E-05  1.21719871E-04 -6.51188609E-04
  1.65404274E-05  1.18137435E-04 -6.49775976E-04 -9.67202651E-05  1.38706646E-05
  2.12238404E-05 -3.37676045E-06 -1.99323062E-05 -8.73181166E-06 -2.69967535E-05
 -1.50776816E-06  4.08675973E-06 -2.72363093E-06  1.20594441E-04 -3.56882819E-05
  1.02860614E-05  6.43882859E-05  7.52878999E-06 -1.11671273E-05  8.34276500E-06
  1.97856735E-06 -3.97418359E-06  9.95716445E-01  2.22287095E-02  1.06615586E-03
 -1.43072677E-03 -8.97642794E-04 -6.85516997E-03 -3.43409105E-04  8.06086834E-04
  9.96380998E-04  1.02232608E-04  2.51294272E-04 -2.15080269E-05  7.41121877E-05
 -2.44575215E-04  2.48232338E-06  3.12508330E-06  2.91415834E-06 -6.57101654E-07
  6.35719259E-07  1.45579694E-05  5.84208159E-05 -5.84302780E-06 -1.01603267E-05
 -1.26376196E-05  1.12370541E-04 -2.57103783E-04 -3.51055320E-05 -1.56088422E-05
  4.43183724E-05  3.43836678E-05  1.01052223E-04 -2.39430280E-05 -4.43926146E-05
  2.54154209E-05 -3.67693074E-06 -1.74371773E-04 -5.73494111E-06  4.11604137E-06
  2.80597624E-05 -7.91738608E-06  3.17744688E-05 -1.71080888E-06 -2.97515929E-07
 -2.44214478E-06 -4.68850194E-04  1.00698724E-03  8.99290736E-04 -7.14455281E-04
  3.45254058E-04 -3.88213436E-04  2.52553893E-03 -5.42791522E-05 -2.87157518E-04
 -9.37325304E-04  2.19736349E-05  1.08391929E-04  3.11617573E-05 -7.01345177E-05
 -1.56458838E-05 -1.27332991E-04 -2.19562642E-04  3.06748116E-04  8.67976741E-05
  4.66767300E-06 -2.75642273E-05 -1.18794417E-05  6.59550594E-05  1.86310639E-05
  9.95707293E-01  2.23552837E-02 -7.95212475E-04  1.67796050E-03  3.07536465E-04
 -6.70074737E-03 -2.67939387E-05 -7.88814235E-04 -5.26178278E-04 -3.70309338E-04
  2.51835458E-04  9.34120484E-05  1.66831833E-04  3.67028645E-05  3.98443719E-05
  1.65147688E-04 -5.79209884E-06 -2.08404655E-06  2.91627599E-05 -6.08961979E-04
  2.00624682E-04 -8.58613796E-05 -3.23133835E-04 -2.07329508E-05  6.32051822E-05
 -3.43824827E-05 -1.87641975E-05  1.54924161E-05 -2.10930890E-04  3.01751448E-04
 -3.57550370E-05 -2.13202955E-05 -5.99402709E-05 -1.02573226E-03  1.56225190E-04
  1.02177193E-04  6.21494554E-04 -1.12135131E-04 -3.53280073E-06 -1.07087996E-05
 -2.10070726E-06  4.48296930E-06 -3.38851928E-05 -2.02594011E-04 -4.66449040E-05
 -2.60984651E-05  1.16499170E-05  4.63669522E-05 -7.14314056E-05  2.82447000E-05
 -3.46648273E-05 -1.86468483E-06 -5.55345542E-04  9.75381787E-04 -1.13396559E-03
  3.63565035E-04 -1.88463328E-04 -3.06603329E-04  1.51598562E-03  4.11918029E-04
  9.20583800E-04  3.10035285E-04  5.33222405E-05  8.45985519E-04 -3.81339079E-05
 -1.94544904E-05 -7.66153641E-05  7.53313919E-05 -2.02279502E-04  5.19689775E-06
  4.20441203E-06  8.70160557E-06  7.71393979E-05 -3.16532393E-04  1.16439275E-05
 -1.72667150E-05 -1.74837304E-06  1.70201289E-04  1.41489834E-03  4.73695164E-05
  1.20361739E-04 -1.01552650E-04  9.95701213E-01  2.21020449E-02 -7.98677365E-04
  2.92026299E-04  1.72319845E-03 -6.08046089E-03  2.97585787E-04  1.27507832E-04
 -6.88168127E-04  5.32405410E-05  1.13439455E-04  1.84560219E-04  3.78618419E-04
  1.84367598E-04 -5.87987745E-06  1.74200797E-04  2.60290174E-05  5.03756295E-06
 -3.07605446E-06 -7.86026903E-04 -3.08119316E-04 -4.42192121E-04 -1.46111779E-04
  3.50349019E-05 -1.84270607E-05 -5.13256202E-05  1.06033358E-04 -7.21719224E-05
 -5.99078455E-05 -5.29699492E-05  1.90680202E-06  7.28442638E-06 -1.80845399E-06
  2.25023531E-04 -7.35848939E-05  1.65519808E-05  1.12913196E-04  1.99467317E-05
 -1.94343148E-05  1.57478690E-05  2.59913413E-06 -9.76821554E-06 -8.57901368E-06
  2.78936202E-05  9.60532062E-06  2.19025627E-05 -1.37512447E-05 -1.50667392E-07
 -2.08060514E-05 -7.97695156E-05  5.58139163E-05 -1.59541493E-05  7.98140750E-06
  7.85971472E-06  3.67319720E-06 -5.56044032E-06 -4.97367703E-04  1.17636951E-03
 -1.09769445E-03 -9.74191211E-05  3.18112014E-04 -5.24297083E-04  1.15246524E-03
  4.69514049E-04  4.02008543E-04  9.89709755E-04 -3.00061946E-05 -1.86540812E-04
 -2.19060697E-05  2.20137432E-05 -9.09660820E-06  3.15839555E-05  1.28644869E-03
 -1.40656308E-04 -6.77781881E-05 -3.17091020E-05 -1.17108560E-05 -3.05955771E-04
 -2.66412708E-05  9.62004337E-06  4.37058858E-05  4.78399175E-07  3.59191824E-05
 -1.86017685E-06 -1.86660114E-06 -4.83119145E-06 -3.07483967E-06 -2.02510771E-05
  1.29511763E-05  1.93981534E-06 -6.17922776E-06  4.16291030E-05 -1.35747141E-04
 -2.94157859E-06 -5.77596891E-06 -2.02659555E-07  5.54275837E-05 -3.30994008E-05
 -8.46843356E-06  2.32525920E-05  7.62805416E-06  4.31465650E-05  3.71124431E-05
 -9.90968217E-05 -4.19500668E-05 -8.93609163E-06  1.05670149E-06  1.18660950E-06
 -1.41744391E-05 -5.91358835E-06 -2.98536899E-05  1.07782275E-04  9.77069204E-05
 -5.61940157E-05 -4.05634737E-05  2.89058261E-05 -6.08191248E-04  3.13682827E-04
  1.71914600E-04 -1.84007850E-05  7.90608764E-05 -3.19735611E-05  9.25813801E-06
 -3.65334677E-05  9.95717436E-01  2.21578595E-02  5.85658127E-04  1.46198967E-03
  1.35290452E-03 -6.64885249E-03 -5.87364514E-06 -7.68865159E-04 -1.01001162E-03
 -5.26493783E-05 -2.37124470E-04  7.42235336E-05  1.59257605E-04  2.44846322E-04
  5.44476534E-06 -1.83613647E-05 -6.96164230E-06 -5.31997558E-06  7.12923487E-06
  4.32957950E-05  2.09790881E-05  6.57604349E-06 -3.46609920E-05  8.77208193E-06
  3.75812337E-06 -1.23051116E-06  2.71479186E-06 -9.87658623E-07 -1.37804894E-06
  3.78224506E-05  6.48242108E-06  1.05047694E-05  1.67689854E-06  2.58140814E-06
  2.97571671E-05 -9.99111820E-06  7.78953864E-06 -4.66893199E-06 -2.06036352E-04
 -1.92952747E-04 -6.84325128E-05  3.45344738E-06 -3.91609212E-05  1.50236894E-04
 -4.36817145E-04  8.06881257E-05 -4.71998095E-06  1.02125106E-06 -4.48828901E-04
  2.26866453E-03 -4.66472045E-04  3.62694783E-04  8.41696899E-04 -4.74598172E-04
  1.04559166E-03  9.32380081E-04  7.14962748E-04  5.76353315E-06 -1.02676573E-05
 -5.67878860E-06 -4.64025293E-07 -4.27800895E-06  5.94637792E-06 -2.23492094E-05
  1.61475977E-05  1.42751828E-05 -4.22580785E-06 -5.69956579E-06 -5.97321712E-03
  1.25946483E-02 -7.60655765E-04 -1.07651484E-03  1.55188345E-03  1.25774531E-02
  3.74394451E-04 -2.58174538E-03  6.47321782E-04 -6.12437803E-05  9.29892157E-06
 -1.29346719E-05 -3.16291045E-04  8.65318438E-07 -7.80690222E-02  1.70703561E-01
 -1.12699601E-02  2.55848067E-02  9.58756422E-03  1.66436806E-01 -2.41814101E-03
  8.28984964E-03  1.04367113E-02  4.59623529E-04 -4.02789623E-05  4.36514440E-04
  3.02432211E-05 -2.80112295E-04 -2.62821050E-03  5.77352313E-03 -3.05357459E-04
  8.81551868E-04  1.18494598E-03  4.63878206E-03 -1.82480183E-04  3.22592273E-04
  2.57295887E-04  6.63129163E-07 -8.06920206E-05  6.57233276E-05  2.50682296E-05
 -4.06689788E-05 -1.96440036E-01  4.32789946E-01  3.91206468E-02 -5.20374316E-02
 -3.82518212E-02  4.13274218E-01  1.37401033E-02 -1.69359341E-02 -1.61371904E-02
  9.29197868E-04 -9.67294939E-05  2.59262761E-03 -8.16720948E-05 -3.55787157E-03
  3.48647592E-03  1.62070139E-03  8.62756939E-04  8.16678503E-05 -1.79143552E-04
  3.24226186E-03  9.60537758E-04 -3.79125203E-04 -2.05893502E-04 -5.81695153E-04
  5.05681868E-02  4.71332915E-03  9.24882815E-03 -1.72855212E-03  2.16015639E-03
  5.20324908E-02  4.49197563E-04 -4.72777057E-03 -8.30555956E-03 -2.11808561E-03
  3.27464343E-03  1.63170969E-03  1.68652712E-04 -6.92572363E-05 -2.82096320E-04
  1.50069406E-03  4.13093027E-05 -2.66131487E-04 -1.72345101E-04  5.10216895E-05
  1.34733262E-01  1.50107777E-02 -1.76425778E-02  1.26265763E-02 -1.05199823E-02
  1.32242454E-01  4.14422616E-04  4.48522484E-03  5.77720162E-03  2.31545473E-02
 -1.48166376E-02  3.15825773E-02 -1.97526062E-03 -2.04127974E-03  3.59022881E-03
  3.21695549E-02  5.55169180E-04 -4.77237262E-03 -4.13585131E-04 -3.65880879E-04
 -2.87363614E-05  3.29923857E-04 -6.91148720E-04 -8.77004721E-05 -1.97179700E-01
  4.34649460E-01 -3.01165118E-02  6.78927204E-02  7.59904588E-03  4.19939221E-01
 -6.46056808E-03  2.65068576E-02  9.47946591E-03 -2.10065569E-03  5.35451507E-04
  1.28121419E-03 -7.02397271E-05 -6.81149099E-04 -9.17952952E-03  2.00020792E-02
 -6.37267458E-04  2.96316273E-03  3.70577308E-03  1.76778014E-02 -6.95345653E-04
  1.18063697E-03  1.39811089E-03  5.33713688E-05 -2.90728665E-04  2.54652370E-04
  7.60489458E-05 -1.20882965E-04  8.14185394E-02 -1.80032793E-01 -1.75326060E-02
  2.17820974E-02  9.32606954E-03 -1.75351691E-01 -5.77923490E-03  8.55181664E-03
  3.26025882E-03  3.02429854E-04 -2.53913120E-04 -1.05489579E-03  1.66757026E-05
  1.63817145E-03  9.20420077E-03  2.12708690E-03  2.04827333E-03  1.63561009E-04
 -2.93043983E-04  8.82870054E-03  9.02552449E-04 -9.87250264E-04 -5.77935738E-04
 -1.38971540E-03  1.32470402E-01  7.89700317E-03  2.32925955E-02 -4.46416619E-03
  5.20880321E-03  1.29187504E-01 -3.24927592E-03 -1.15195479E-02 -1.99863303E-02
 -7.13524145E-03  1.02263564E-02  3.15858433E-03  5.50531756E-04 -2.04933359E-04
 -7.99275250E-04  5.35000456E-03  4.93693053E-04 -9.44153266E-04 -6.18107038E-04
  1.50662254E-04 -5.79891008E-02 -6.26234829E-03  7.32330727E-03 -5.35088688E-03
  4.32258621E-03 -4.47760816E-02  6.36862568E-03 -1.67533846E-03 -2.01198967E-03
 -9.49115359E-03 -2.12647396E-01  4.68684576E-01 -3.42079470E-02  1.59044466E-02
  7.03526286E-02  4.50707704E-01 -1.16485228E-02 -1.76931950E-03  2.61590140E-02
  1.58627601E-03 -8.03433554E-04  1.80261613E-03  1.57326406E-03  7.19835802E-04
  1.78405759E-02 -3.96589205E-02  3.57202573E-03 -3.19985479E-03  1.52003173E-04
 -4.05704948E-02  1.30900011E-03  8.97752298E-05 -2.87516986E-04 -8.13525970E-05
 -6.82526782E-05  2.35574987E-04 -6.80263922E-04  1.35120995E-04  3.54892875E-03
 -7.77751863E-03 -2.04013985E-04 -1.02021066E-03 -1.04072625E-03 -7.38785842E-03
 -3.87133997E-05 -4.19846176E-04 -4.60719552E-04 -2.48269448E-05  5.29243936E-05