#INFO: **** input file is /home/liwei01/wsr/dftpart/test_2body/w32/gfea_c8.py ****
from dftpart import gfea3
from pyscf import lib

par = 8
with lib.with_omp_threads(par):
    fr0 = gfea3.GFEA()
    fr0.inputstyle = 'frg'
    fr0.method = ['hf', '6-31gss','charge']
    fr0.gjfname = 'w32'
    fr0.output = 'w32'
    fr0.verbose = 9
    fr0.showinter = True
    #fr0.do_deriv = True
    fr0.kernel()

#INFO: ******************** input file end ********************


System: uname_result(system='Linux', node='master', release='3.10.0-693.el7.x86_64', version='#1 SMP Tue Aug 22 21:09:27 UTC 2017', machine='x86_64', processor='x86_64')  Threads 8
Python 3.7.6 (default, Jan  8 2020, 19:59:22) 
[GCC 7.3.0]
numpy 1.18.1  scipy 1.4.1
Date: Tue Jun 16 20:58:05 2020
PySCF version 1.6.1
PySCF path  /home/liwei01/zcheng/pyscf/pyscf
GIT HEAD      ref: refs/heads/master
GIT master branch  3adc7fd25839fe674469a52b764c3661e32d7318

[CONFIG] DEBUG = False
[CONFIG] MAX_MEMORY = 4000
[CONFIG] TMPDIR = .
[CONFIG] UNIT = angstrom
[CONFIG] VERBOSE = 3
[CONFIG] conf_file = None
[INPUT] verbose = 9
[INPUT] max_memory = 4000 
[INPUT] num. atoms = 12
[INPUT] num. electrons = 40
[INPUT] charge = 0
[INPUT] spin (= nelec alpha-beta = 2S) = 0
[INPUT] symmetry False subgroup None
[INPUT] Mole.unit = angstrom
[INPUT]  1 O      9.739714000000 -14.560219000000 -13.084136000000 AA   18.405391991592 -27.514826223689 -24.725433616562 Bohr
[INPUT]  2 O      5.584754000000 -15.592165000000 -11.469857000000 AA   10.553655533069 -29.464921539029 -21.674888417925 Bohr
[INPUT]  3 O      8.491932000000 -14.159618000000 -15.711024000000 AA   16.047425748430 -26.757800048462 -29.689532496469 Bohr
[INPUT]  4 O      7.759345000000 -16.504968000000 -13.246021000000 AA   14.663036956013 -31.189869214710 -25.031351930237 Bohr
[INPUT]  5 H      9.436683000000 -13.920876000000 -12.439430000000 AA   17.832746394339 -26.306643054031 -23.507115845698 Bohr
[INPUT]  6 H     10.652707000000 -14.322974000000 -13.246584000000 AA   20.130698715237 -27.066498149266 -25.032415846046 Bohr
[INPUT]  7 H      4.678503000000 -15.348320000000 -11.658221000000 AA    8.841089342956 -29.004121272184 -22.030844789653 Bohr
[INPUT]  8 H      6.003083000000 -14.773540000000 -11.203238000000 AA   11.344182773032 -27.917944490307 -21.171051528320 Bohr
[INPUT]  9 H      8.843942000000 -15.043720000000 -15.814399000000 AA   16.712628241538 -28.428510694642 -29.884882934596 Bohr
[INPUT] 10 H      8.918348000000 -13.822113000000 -14.923311000000 AA   16.853235203563 -26.120008032790 -28.200970661709 Bohr
[INPUT] 11 H      7.307919000000 -16.211137000000 -12.454749000000 AA   13.809965450505 -30.634609097803 -23.536064560201 Bohr
[INPUT] 12 H      8.537292000000 -15.949757000000 -13.298681000000 AA   16.133143725440 -30.140672483364 -25.130864907957 Bohr
[INPUT] ---------------- BASIS SET ---------------- 
[INPUT] l, kappa, [nprim/nctr], expnt,             c_1 c_2 ...
[INPUT] H
[INPUT] 0    0    [3    /1   ]  18.731137         0.0334946
                                2.8253937         0.23472695
                                0.6401217         0.81375733
[INPUT] 0    0    [1    /1   ]  0.1612778            1
[INPUT] 1    0    [1    /1   ]  1.1                  1
[INPUT] O
[INPUT] 0    0    [6    /1   ]  5484.6717         0.0018311
                                825.23495         0.0139501
                                188.04696         0.0684451
                                52.9645           0.2327143
                                16.89757          0.470193
                                5.7996353         0.3585209
[INPUT] 0    0    [3    /1   ]  15.539616         -0.1107775
                                3.5999336         -0.1480263
                                1.0137618         1.130767
[INPUT] 0    0    [1    /1   ]  0.2700058            1
[INPUT] 1    0    [3    /1   ]  15.539616         0.0708743
                                3.5999336         0.3397528
                                1.0137618         0.7271586
[INPUT] 1    0    [1    /1   ]  0.2700058            1
[INPUT] 2    0    [1    /1   ]  0.8                  1

nuclear repulsion = 128.751254294997
number of shells = 48
number of NR pGTOs = 164
number of NR cGTOs = 96
basis = 6-31gss
ecp = {}
bas 0, expnt(s) = [5484.6717     825.23495    188.04696     52.9645      16.89757
    5.7996353]
bas 1, expnt(s) = [15.539616   3.5999336  1.0137618]
bas 2, expnt(s) = [0.2700058]
bas 3, expnt(s) = [15.539616   3.5999336  1.0137618]
bas 4, expnt(s) = [0.2700058]
bas 5, expnt(s) = [0.8]
bas 6, expnt(s) = [5484.6717     825.23495    188.04696     52.9645      16.89757
    5.7996353]
bas 7, expnt(s) = [15.539616   3.5999336  1.0137618]
bas 8, expnt(s) = [0.2700058]
bas 9, expnt(s) = [15.539616   3.5999336  1.0137618]
bas 10, expnt(s) = [0.2700058]
bas 11, expnt(s) = [0.8]
bas 12, expnt(s) = [5484.6717     825.23495    188.04696     52.9645      16.89757
    5.7996353]
bas 13, expnt(s) = [15.539616   3.5999336  1.0137618]
bas 14, expnt(s) = [0.2700058]
bas 15, expnt(s) = [15.539616   3.5999336  1.0137618]
bas 16, expnt(s) = [0.2700058]
bas 17, expnt(s) = [0.8]
bas 18, expnt(s) = [5484.6717     825.23495    188.04696     52.9645      16.89757
    5.7996353]
bas 19, expnt(s) = [15.539616   3.5999336  1.0137618]
bas 20, expnt(s) = [0.2700058]
bas 21, expnt(s) = [15.539616   3.5999336  1.0137618]
bas 22, expnt(s) = [0.2700058]
bas 23, expnt(s) = [0.8]
bas 24, expnt(s) = [18.731137   2.8253937  0.6401217]
bas 25, expnt(s) = [0.1612778]
bas 26, expnt(s) = [1.1]
bas 27, expnt(s) = [18.731137   2.8253937  0.6401217]
bas 28, expnt(s) = [0.1612778]
bas 29, expnt(s) = [1.1]
bas 30, expnt(s) = [18.731137   2.8253937  0.6401217]
bas 31, expnt(s) = [0.1612778]
bas 32, expnt(s) = [1.1]
bas 33, expnt(s) = [18.731137   2.8253937  0.6401217]
bas 34, expnt(s) = [0.1612778]
bas 35, expnt(s) = [1.1]
bas 36, expnt(s) = [18.731137   2.8253937  0.6401217]
bas 37, expnt(s) = [0.1612778]
bas 38, expnt(s) = [1.1]
bas 39, expnt(s) = [18.731137   2.8253937  0.6401217]
bas 40, expnt(s) = [0.1612778]
bas 41, expnt(s) = [1.1]
bas 42, expnt(s) = [18.731137   2.8253937  0.6401217]
bas 43, expnt(s) = [0.1612778]
bas 44, expnt(s) = [1.1]
bas 45, expnt(s) = [18.731137   2.8253937  0.6401217]
bas 46, expnt(s) = [0.1612778]
bas 47, expnt(s) = [1.1]
CPU time:       759.96
arg.atm = [[ 8 20  1 23  0  0]
 [ 8 24  1 27  0  0]
 [ 8 28  1 31  0  0]
 [ 8 32  1 35  0  0]
 [ 1 36  1 39  0  0]
 [ 1 40  1 43  0  0]
 [ 1 44  1 47  0  0]
 [ 1 48  1 51  0  0]
 [ 1 52  1 55  0  0]
 [ 1 56  1 59  0  0]
 [ 1 60  1 63  0  0]
 [ 1 64  1 67  0  0]]
arg.bas = [[  0   0   6   1   0  78  84   0]
 [  0   0   3   1   0  90  93   0]
 [  0   0   1   1   0  96  97   0]
 [  0   1   3   1   0  98 101   0]
 [  0   1   1   1   0 104 105   0]
 [  0   2   1   1   0 106 107   0]
 [  1   0   6   1   0  78  84   0]
 [  1   0   3   1   0  90  93   0]
 [  1   0   1   1   0  96  97   0]
 [  1   1   3   1   0  98 101   0]
 [  1   1   1   1   0 104 105   0]
 [  1   2   1   1   0 106 107   0]
 [  2   0   6   1   0  78  84   0]
 [  2   0   3   1   0  90  93   0]
 [  2   0   1   1   0  96  97   0]
 [  2   1   3   1   0  98 101   0]
 [  2   1   1   1   0 104 105   0]
 [  2   2   1   1   0 106 107   0]
 [  3   0   6   1   0  78  84   0]
 [  3   0   3   1   0  90  93   0]
 [  3   0   1   1   0  96  97   0]
 [  3   1   3   1   0  98 101   0]
 [  3   1   1   1   0 104 105   0]
 [  3   2   1   1   0 106 107   0]
 [  4   0   3   1   0  68  71   0]
 [  4   0   1   1   0  74  75   0]
 [  4   1   1   1   0  76  77   0]
 [  5   0   3   1   0  68  71   0]
 [  5   0   1   1   0  74  75   0]
 [  5   1   1   1   0  76  77   0]
 [  6   0   3   1   0  68  71   0]
 [  6   0   1   1   0  74  75   0]
 [  6   1   1   1   0  76  77   0]
 [  7   0   3   1   0  68  71   0]
 [  7   0   1   1   0  74  75   0]
 [  7   1   1   1   0  76  77   0]
 [  8   0   3   1   0  68  71   0]
 [  8   0   1   1   0  74  75   0]
 [  8   1   1   1   0  76  77   0]
 [  9   0   3   1   0  68  71   0]
 [  9   0   1   1   0  74  75   0]
 [  9   1   1   1   0  76  77   0]
 [ 10   0   3   1   0  68  71   0]
 [ 10   0   1   1   0  74  75   0]
 [ 10   1   1   1   0  76  77   0]
 [ 11   0   3   1   0  68  71   0]
 [ 11   0   1   1   0  74  75   0]
 [ 11   1   1   1   0  76  77   0]]
arg.env = [ 1.37036000e+02  0.00000000e+00  0.00000000e+00  0.00000000e+00
  0.00000000e+00  0.00000000e+00  0.00000000e+00  0.00000000e+00
  0.00000000e+00  0.00000000e+00  0.00000000e+00  0.00000000e+00
  0.00000000e+00  0.00000000e+00  0.00000000e+00  0.00000000e+00
  0.00000000e+00  0.00000000e+00  0.00000000e+00  0.00000000e+00
  1.84053920e+01 -2.75148262e+01 -2.47254336e+01  0.00000000e+00
  1.05536555e+01 -2.94649215e+01 -2.16748884e+01  0.00000000e+00
  1.60474257e+01 -2.67578000e+01 -2.96895325e+01  0.00000000e+00
  1.46630370e+01 -3.11898692e+01 -2.50313519e+01  0.00000000e+00
  1.78327464e+01 -2.63066431e+01 -2.35071158e+01  0.00000000e+00
  2.01306987e+01 -2.70664981e+01 -2.50324158e+01  0.00000000e+00
  8.84108934e+00 -2.90041213e+01 -2.20308448e+01  0.00000000e+00
  1.13441828e+01 -2.79179445e+01 -2.11710515e+01  0.00000000e+00
  1.67126282e+01 -2.84285107e+01 -2.98848829e+01  0.00000000e+00
  1.68532352e+01 -2.61200080e+01 -2.82009707e+01  0.00000000e+00
  1.38099655e+01 -3.06346091e+01 -2.35360646e+01  0.00000000e+00
  1.61331437e+01 -3.01406725e+01 -2.51308649e+01  0.00000000e+00
  1.87311370e+01  2.82539370e+00  6.40121700e-01  7.61926220e-01
  1.29237100e+00  1.47131900e+00  1.61277800e-01  6.42977783e-01
  1.10000000e+00  3.28643653e+00  5.48467170e+03  8.25234950e+02
  1.88046960e+02  5.29645000e+01  1.68975700e+01  5.79963530e+00
  2.94842455e+00  5.42657124e+00  8.78126489e+00  1.15432129e+01
  9.90055015e+00  3.38516599e+00  1.55396160e+01  3.59993360e+00
  1.01376180e+00 -2.19051792e+00 -9.77405528e-01  2.88629094e+00
  2.70005800e-01  9.46334873e-01  1.55396160e+01  3.59993360e+00
  1.01376180e+00  6.37930734e+00  4.91490975e+00  2.15791055e+00
  2.70005800e-01  5.67807022e-01  8.00000000e-01  1.76578110e+00]
ecpbas  = []


******** <class 'pyscf.qmmm.itrf.mm_charge.<locals>.QMMM'> ********
method = QMMM-RHF
initial guess = minao
damping factor = 0
level shift factor = 0
DIIS = <class 'pyscf.scf.diis.CDIIS'>
DIIS start cycle = 1
DIIS space = 8
SCF tol = 1e-09
SCF gradient tol = None
max. SCF cycles = 50
direct_scf = True
direct_scf_tol = 1e-13
chkfile to save SCF result = /home/liwei01/wsr/dftpart/test_2body/w32/tmp0w1zc428
max_memory 4000 MB (current use 329 MB)
** Add background charges for <class 'pyscf.scf.hf.RHF'> **
Charge      Location
-1.056075    [ 15.8591958  -22.32322322 -21.16584533]
0.523264    [ 15.44903263 -23.69303655 -20.05800473]
0.517699    [ 17.48403712 -21.75849557 -20.60647128]
-1.035697    [ 20.23144001 -20.50137794 -19.07019386]
0.520608    [ 21.7723038  -21.39222885 -18.74761761]
0.515624    [ 19.97024207 -19.49608333 -17.58928542]
-1.009926    [ 16.42785407 -26.58707085 -18.04142885]
0.499922    [ 15.53371882 -25.95112132 -16.60336995]
0.507893    [ 16.16245338 -28.37548309 -17.98600129]
-1.024266    [ 13.70105109 -18.63199472 -24.76194313]
0.515186    [ 13.45609723 -19.31578456 -26.41855264]
0.515422    [ 13.87339411 -20.08163576 -23.69387937]
-1.050024    [ 10.52651529 -24.11298283 -20.2839555 ]
0.521386    [  8.7734466  -24.2410798  -19.85703047]
0.506414    [ 11.30765248 -23.44237383 -18.79666545]
-1.032359    [ 13.1641969  -17.47579981 -19.41562257]
0.514165    [ 13.18112696 -18.60438393 -20.82910748]
0.518479    [ 14.52136419 -16.32434621 -19.73837456]
-1.052762    [ 13.11969196 -22.35429031 -15.81898054]
0.521035    [ 14.16458201 -22.84877684 -14.42771692]
0.525545    [ 13.80909996 -20.77345693 -16.36451423]
-1.054902    [ 19.05772167 -18.14703431 -25.87868434]
0.517977    [ 18.59105569 -18.66655214 -27.54728983]
0.522623    [ 17.51229609 -18.19498233 -24.93991564]
-0.997115    [ 17.90283445 -15.11249509 -20.63210731]
0.530073    [ 18.89257472 -16.62132612 -20.50652934]
0.49195    [ 18.18557149 -14.25298717 -19.06582671]
-1.032188    [ 15.97118286 -20.09833149 -29.6421136 ]
0.47982    [ 15.3540909  -19.66610766 -31.28659296]
0.534069    [ 17.50300052 -21.00734455 -29.95701189]
-0.992133    [  7.63287216 -21.21078113 -24.19682809]
0.480184    [  8.55071592 -22.76668147 -24.10379498]
0.504586    [  8.37549106 -20.32880248 -25.59058803]
-0.985176    [ 16.63195772 -23.48150439 -12.27810621]
0.500614    [ 17.11266814 -22.20236011 -11.09293235]
0.508291    [ 16.89319913 -25.03868407 -11.39557387]
-0.979947    [ 19.94097588 -17.12125506 -14.67509908]
0.500341    [ 18.95312155 -17.86288753 -13.35371942]
0.493696    [ 19.00620207 -15.6543646  -15.17143564]
-0.983713    [ 20.17321188 -22.53529584 -29.89394228]
0.505479    [ 21.06170253 -23.16751127 -28.4507471 ]
0.512532    [ 20.35114661 -23.83370776 -31.14069287]
-0.999332    [ 25.43111026 -22.24828235 -18.47023794]
0.512801    [ 26.28398524 -20.77981964 -19.09325419]
0.507583    [ 26.7410892  -23.47726762 -18.25698991]
-1.016163    [ 10.56617686 -29.35403808 -16.44102735]
0.483053    [ 11.92280935 -30.36927076 -15.8079521 ]
0.523726    [ 10.34862781 -29.90290525 -18.15080431]
-0.976012    [ 10.09067452 -21.18806662 -29.24260093]
0.486289    [ 11.11173701 -19.76402949 -29.69146191]
0.496485    [ 10.37375928 -22.38512875 -30.56881072]
-0.977833    [ 24.5589393  -27.80514674 -21.18389789]
0.50587    [ 23.21796885 -28.65180829 -20.31390388]
0.463809    [ 25.76766104 -27.42438582 -19.8931866 ]
-0.989717    [  8.77070649 -15.37911655 -23.94499373]
0.487556    [  8.68859978 -13.74216775 -23.17975481]
0.496916    [ 10.53805395 -15.75730555 -24.01835668]
-0.992057    [ 16.93410036 -32.15697813 -17.52810554]
0.50918    [ 16.39069828 -32.53931319 -15.84570882]
0.510293    [ 15.6895513  -32.92540692 -18.59231236]
-0.998393    [ 24.35861321 -18.31258187 -25.98586582]
0.466984    [ 25.48944989 -18.60606579 -24.60492389]
0.51604    [ 22.70911474 -18.4111103  -25.25008395]
-1.010464    [  9.27281806 -14.9477601  -17.25327322]
0.476424    [  7.6789399  -15.16789619 -18.07972415]
0.517552    [ 10.24747455 -16.38576609 -17.75736144]
-0.991473    [  5.5836248  -24.00414405 -18.66237963]
0.501887    [  5.79022289 -25.52045085 -17.69798247]
0.510487    [  5.17491673 -22.73885336 -17.43603619]
-1.029267    [  7.95719829 -25.19119252 -14.2761212 ]
0.497876    [  9.38018663 -24.0850659  -14.1227926 ]
0.519667    [  8.66153702 -26.76190075 -14.83174226]
-1.001943    [ 16.13613705 -11.83176802 -24.46883904]
0.509813    [ 16.78082846 -12.94299123 -23.1954641 ]
0.477312    [ 17.5304658  -11.57071369 -25.59117007]
-1.019724    [ 21.67798379 -29.0173418  -14.20699124]
0.475311    [ 20.53074618 -29.01816194 -15.60548117]
0.514632    [ 22.50198564 -27.40961194 -14.29731259]
-0.9959    [ 24.21450458 -24.60133719 -13.9203349 ]
0.499354    [ 23.58737251 -23.46499007 -12.66043371]
0.511038    [ 23.91476757 -23.75039163 -15.48812918]
-1.001922    [ 21.40011279 -32.14724982 -20.33868764]
0.487648    [ 22.14106118 -33.75675602 -19.97480576]
0.509505    [ 19.73399418 -32.24696878 -19.64152988]
Set gradient conv threshold to 3.16228e-05
Nelec from initial guess = 39.95295801847947
cond(S) = 144.6078717944693
E1 = -670.0039180138516  E_coul = 237.9262173473139
init E= -303.495447456768
    CPU time for initialize scf      1.15 sec, wall time      0.15 sec
  HOMO = -0.44927810186617  LUMO = 0.0880853163254516
  mo_energy =
[-20.8227809  -20.81307928 -20.80960794 -20.76946218  -1.6574539
  -1.63646586  -1.61936968  -1.58389638  -0.78508826  -0.75948794
  -0.75896235  -0.72444796  -0.62724896  -0.6043288   -0.59761769
  -0.54529439  -0.5079453   -0.48986997  -0.47864049  -0.4492781
   0.08808532   0.12840141   0.17848327   0.21692111   0.25874432
   0.27230604   0.28552809   0.33067479   0.88971757   0.93618662
   0.95012222   0.9591468    0.96552825   0.98251964   0.99033898
   1.00217531   1.04836884   1.06386831   1.0766491    1.11217075
   1.12206633   1.13709886   1.16658197   1.19110447   1.21277909
   1.27240317   1.30980934   1.35896994   1.48233113   1.50626556
   1.59912648   1.65240988   1.70409823   1.71353512   1.71562493
   1.71998509   1.74037749   1.74945234   1.79228513   1.8012706
   1.81234034   1.8463785    1.86405573   1.93470257   2.47576644
   2.48102356   2.51003628   2.5296029    2.5520268    2.56813432
   2.60095187   2.63842439   2.71620251   2.73079569   2.7555592
   2.80415941   2.89277116   2.90914624   2.92339562   2.93688947
   2.93918639   2.94635497   2.96912553   3.00682091   3.32685857
   3.32885267   3.35506373   3.36853248   3.69385799   3.70018496
   3.73000735   3.74558473   3.85976914   3.86802855   3.88583835
   3.9235352 ]
E1 = -680.0880740132633  E_coul = 247.49799971012888
cycle= 1 E= -304.007821093365  delta_E= -0.512  |g|= 0.866  |ddm|= 2.37
    CPU time for cycle= 1      0.16 sec, wall time      0.02 sec
diis-norm(errvec)=1.56202
diis-c [-2.43989981  1.        ]
  HOMO = -0.34740172835994  LUMO = 0.185111528711962
  mo_energy =
[-20.42486787 -20.35446697 -20.28197155 -20.23281615  -1.34146289
  -1.30339798  -1.24028799  -1.20202427  -0.71646943  -0.683432
  -0.6265387   -0.61459173  -0.55219328  -0.51775277  -0.49680726
  -0.45411019  -0.44810981  -0.4163057   -0.38600811  -0.34740173
   0.18511153   0.22458654   0.2829869    0.28884179   0.33240944
   0.37107237   0.38972172   0.50434759   0.95731604   1.0146239
   1.03873686   1.0644659    1.08201941   1.09796673   1.16117753
   1.16893494   1.18894522   1.19999443   1.24750543   1.26321038
   1.28609993   1.31743682   1.33277241   1.37620463   1.39061168
   1.40524764   1.42969145   1.52897093   1.61836255   1.67225073
   1.7451814    1.77746221   1.80916983   1.83544816   1.84834308
   1.85486613   1.86886517   1.89830485   1.91579548   1.96830796
   2.00080162   2.00697047   2.05366546   2.09174771   2.5114837
   2.54867299   2.5706154    2.60405493   2.61189523   2.66469287
   2.67981361   2.77511933   2.795781     2.83645854   2.86707118
   2.94091455   2.96525561   2.97466699   2.97520803   3.00820573
   3.02868494   3.04733611   3.08842364   3.10102796   3.35292191
   3.3846539    3.43815042   3.49517092   3.73049528   3.75589287
   3.8144173    3.88112284   3.92133251   3.97723895   4.03478211
   4.12051136]
E1 = -674.0121892691615  E_coul = 241.3100719298294
cycle= 2 E= -304.119864129563  delta_E= -0.112  |g|= 0.419  |ddm|= 0.689
    CPU time for cycle= 2      0.16 sec, wall time      0.02 sec
diis-norm(errvec)=0.696498
diis-c [-0.11209531  0.28586908  0.71413092]
  HOMO = -0.449472037427738  LUMO = 0.185481504925829
  mo_energy =
[-20.61252609 -20.61243486 -20.56341772 -20.52940504  -1.38410119
  -1.37605719  -1.32565505  -1.29683512  -0.74496751  -0.73812087
  -0.69048548  -0.67978525  -0.61627533  -0.59567574  -0.56405992
  -0.53640593  -0.52502623  -0.51401312  -0.48010008  -0.44947204
   0.1854815    0.21876516   0.26952381   0.29083382   0.32681849
   0.35269298   0.37078304   0.47053839   0.95135329   0.99483463
   1.01912707   1.03888029   1.06791207   1.08491297   1.1127351
   1.12481855   1.12738987   1.14466688   1.18310633   1.20509451
   1.22826179   1.25741336   1.26601093   1.31405125   1.32894764
   1.35881902   1.3801298    1.46684544   1.57103704   1.61914444
   1.69813111   1.76455284   1.76593518   1.79225156   1.80729131
   1.8164641    1.82319184   1.85206891   1.87294803   1.92049004
   1.94061735   1.95269397   1.99103025   2.03429822   2.52525769
   2.55451645   2.55562991   2.56142551   2.60935653   2.61849755
   2.65774695   2.73220257   2.77402113   2.79913148   2.82389438
   2.92033781   2.94805134   2.96077971   2.96539697   2.9783282
   3.00285345   3.02272889   3.05866538   3.06228734   3.35434249
   3.3679007    3.41154845   3.4583234    3.72455741   3.73697266
   3.78014859   3.83633222   3.89847769   3.93413807   3.9805051
   4.05589724]
E1 = -676.6932993062234  E_coul = 243.96079547337797
cycle= 3 E= -304.150250623076  delta_E= -0.0304  |g|= 0.0612  |ddm|= 0.271
    CPU time for cycle= 3      0.16 sec, wall time      0.02 sec
diis-norm(errvec)=0.114211
diis-c [-0.00599155 -0.02392225  0.06926263  0.95465962]
  HOMO = -0.44150690700776  LUMO = 0.19237208033638
  mo_energy =
[-20.58453207 -20.57631495 -20.52735847 -20.49816071  -1.36956569
  -1.36064574  -1.31219048  -1.28620804  -0.73088205  -0.72414781
  -0.67860183  -0.67031358  -0.60591107  -0.58502255  -0.55403885
  -0.52495695  -0.51458505  -0.50587833  -0.46963575  -0.44150691
   0.19237208   0.22530441   0.2748422    0.29836084   0.33421781
   0.35890193   0.37731835   0.47628485   0.96062162   1.0042399
   1.02763831   1.04510571   1.07986713   1.09664259   1.1216185
   1.13403024   1.13638124   1.15351472   1.19153808   1.21343203
   1.23631987   1.26549513   1.27595817   1.32406799   1.33748071
   1.36867754   1.3906681    1.47570793   1.58214835   1.62916972
   1.70790302   1.77458669   1.77899053   1.80393811   1.8182206
   1.82689639   1.8333685    1.86160025   1.88354476   1.93044218
   1.94933765   1.96201423   1.99939574   2.04229602   2.53794276
   2.56713392   2.5678461    2.57385764   2.61872827   2.62867289
   2.66583129   2.74094415   2.78789013   2.81222174   2.8353636
   2.93030197   2.95963613   2.97165682   2.97709579   2.98996903
   3.01214792   3.03172891   3.06547807   3.06949773   3.36707983
   3.37934191   3.42065969   3.46476578   3.74060232   3.75285636
   3.79344955   3.84687245   3.91237082   3.94743834   3.99213447
   4.06440542]
E1 = -676.3897784405938  E_coul = 243.6564163445676
cycle= 4 E= -304.151108886257  delta_E= -0.000858  |g|= 0.0101  |ddm|= 0.0394
    CPU time for cycle= 4      0.15 sec, wall time      0.02 sec
diis-norm(errvec)=0.0209818
diis-c [-1.15342607e-04 -9.20929444e-03 -3.99649866e-02 -1.73902082e-01
  1.22307636e+00]
  HOMO = -0.442646492488966  LUMO = 0.192494662033092
  mo_energy =
[-20.58441376 -20.57867526 -20.53043313 -20.49841879  -1.36945096
  -1.36145765  -1.31365537  -1.28681306  -0.72998182  -0.72415831
  -0.6791852   -0.67031891  -0.60601593  -0.58534163  -0.55490259
  -0.52602203  -0.51545735  -0.50645741  -0.47163784  -0.44264649
   0.19249466   0.22536575   0.27475341   0.29901667   0.33461142
   0.35877367   0.37729763   0.47656999   0.96094632   1.00438579
   1.02753987   1.04478834   1.07986694   1.0965766    1.12097002
   1.13377932   1.13565903   1.15308622   1.19053049   1.21330347
   1.23602648   1.26514747   1.27589779   1.32379483   1.33709765
   1.36830997   1.39062736   1.4756076    1.58177606   1.62850608
   1.7076973    1.77443305   1.7795161    1.80381802   1.81806548
   1.82690493   1.83275239   1.86132568   1.88343763   1.93011849
   1.94871214   1.96175293   1.99911697   2.04217269   2.53867792
   2.56759345   2.56834116   2.57386432   2.61862709   2.62805996
   2.66591145   2.74090937   2.78865915   2.81239929   2.83501319
   2.93065783   2.96025186   2.97210959   2.97735352   2.99042109
   3.01214959   3.03146566   3.06538379   3.06950194   3.36806203
   3.37973837   3.42049283   3.4648449    3.74111053   3.75325229
   3.79314642   3.84698346   3.91331847   3.94772626   3.99178682
   4.06464622]
E1 = -676.3977274920986  E_coul = 243.66431907840413
cycle= 5 E= -304.151155203925  delta_E= -4.63e-05  |g|= 0.00195  |ddm|= 0.0131
    CPU time for cycle= 5      0.16 sec, wall time      0.02 sec
diis-norm(errvec)=0.0035695
diis-c [-8.39808953e-06  1.60475110e-03  4.59196978e-03 -1.98989007e-03
 -1.35287842e-01  1.13108101e+00]
  HOMO = -0.44327554663698  LUMO = 0.192417841491389
  mo_energy =
[-20.58508351 -20.57769019 -20.52940043 -20.49967745  -1.36974698
  -1.36116521  -1.31342304  -1.2873187   -0.73005779  -0.72379663
  -0.6788975   -0.67059637  -0.60615588  -0.5853328   -0.55493292
  -0.52597471  -0.51570385  -0.50690788  -0.4715423   -0.44327555
   0.19241784   0.22537457   0.27469709   0.29904655   0.3346526
   0.35871264   0.37728157   0.47635671   0.96078959   1.00442298
   1.0274461    1.04459644   1.07982633   1.09656594   1.1208281
   1.13354277   1.13566286   1.15300404   1.19049995   1.21311587
   1.23577112   1.26487144   1.275958     1.32380213   1.33702311
   1.36827212   1.39036267   1.47538466   1.58182562   1.62856576
   1.70763147   1.77427721   1.77928099   1.80392131   1.81806425
   1.82671575   1.83273991   1.86116759   1.88328921   1.93004488
   1.94864004   1.96164449   1.99886554   2.04187899   2.53852734
   2.56750291   2.5682347    2.57397513   2.61853671   2.62809551
   2.66568815   2.74063126   2.78845524   2.81245269   2.83505128
   2.93037027   2.96018202   2.97196977   2.97742588   2.99031366
   3.01210275   3.03140549   3.06513645   3.06926603   3.36790329
   3.37980458   3.42048433   3.46455324   3.74106302   3.7532506
   3.79317744   3.84669699   3.91309798   3.94780099   3.99187537
   4.06423897]
E1 = -676.3953092256161  E_coul = 243.66189924660566
cycle= 6 E= -304.151156769241  delta_E= -1.57e-06  |g|= 0.000853  |ddm|= 0.00268
    CPU time for cycle= 6      0.16 sec, wall time      0.02 sec
diis-norm(errvec)=0.0015078
diis-c [-6.93828405e-07  1.20898388e-03  4.67382336e-03  1.14838336e-02
 -1.32305926e-01  3.03539476e-01  8.11399809e-01]
  HOMO = -0.44314165808021  LUMO = 0.192424071322969
  mo_energy =
[-20.58467869 -20.57803139 -20.52983664 -20.49906433  -1.36963014
  -1.36128849  -1.31358837  -1.28714628  -0.7299212   -0.72385805
  -0.67898891  -0.67047768  -0.60614282  -0.58537015  -0.55502494
  -0.52607367  -0.51571207  -0.50680902  -0.47174149  -0.44314166
   0.19242407   0.22535955   0.27467408   0.29907804   0.33465994
   0.35870164   0.37726463   0.47640414   0.96080991   1.00437954
   1.02742106   1.04459968   1.07980752   1.09653376   1.12080976
   1.13357149   1.13555861   1.15297141   1.19041125   1.21315386
   1.23579922   1.26492248   1.27592005   1.32376398   1.33699722
   1.36825264   1.39043517   1.47545267   1.58179603   1.62849648
   1.70762136   1.77429258   1.77934364   1.80384986   1.81802991
   1.82673775   1.83266166   1.86117495   1.88330302   1.93001584
   1.94859898   1.96163915   1.99891591   2.04194338   2.53855292
   2.56751607   2.56824818   2.57389547   2.61850104   2.62798811
   2.66571137   2.74067857   2.78850899   2.81240184   2.83495222
   2.93043185   2.96018217   2.97199028   2.97738546   2.9903164
   3.01204443   3.03136461   3.06516904   3.06929643   3.36794425
   3.37975586   3.42040945   3.46460057   3.74106909   3.75323666
   3.79309272   3.84675437   3.9131668    3.94774223   3.99176083
   4.06434149]
E1 = -676.3942791734577  E_coul = 243.66086900122113
cycle= 7 E= -304.151156962467  delta_E= -1.93e-07  |g|= 0.000159  |ddm|= 0.000783
    CPU time for cycle= 7      0.15 sec, wall time      0.02 sec
diis-norm(errvec)=0.000294351
diis-c [-1.51167089e-08 -2.61419296e-04 -8.09289642e-04 -2.09731508e-03
  2.66184569e-02 -1.28471080e-01 -9.91191246e-02  1.20413977e+00]
  HOMO = -0.443175963207773  LUMO = 0.192424097393916
  mo_energy =
[-20.58469341 -20.57796458 -20.5297737  -20.49909542  -1.36963597
  -1.3612684   -1.31357892  -1.28716721  -0.72990777  -0.72382915
  -0.6789711   -0.67048383  -0.60614494  -0.58536461  -0.55503095
  -0.52606933  -0.51572805  -0.50683066  -0.47174589  -0.44317596
   0.1924241    0.22536554   0.27467638   0.29909038   0.33466989
   0.35870033   0.37726688   0.47640106   0.96081424   1.00439514
   1.02742489   1.04459467   1.07981464   1.09654121   1.12080663
   1.13356749   1.13555873   1.15297114   1.19041151   1.21315298
   1.23579297   1.26491546   1.27593681   1.32377672   1.33700158
   1.36825845   1.39043186   1.47545133   1.5818051    1.62850248
   1.7076241    1.77429053   1.7793441    1.80386305   1.81803571
   1.82673387   1.83266178   1.86117093   1.88330154   1.93001561
   1.94859567   1.96163877   1.99890927   2.04193362   2.53856071
   2.56752191   2.56825381   2.5739115    2.61850045   2.62799198
   2.66570799   2.74067365   2.78851433   2.81241622   2.83495916
   2.93042791   2.96019084   2.97199351   2.97739598   2.99032099
   3.0120516    3.03135936   3.06515937   3.06929067   3.36795231
   3.37977019   3.42041232   3.46459299   3.74108062   3.75324963
   3.79310142   3.84675035   3.91317219   3.94775861   3.99176869
   4.06433084]
E1 = -676.3939826867838  E_coul = 243.66057250326614
cycle= 8 E= -304.151156973748  delta_E= -1.13e-08  |g|= 1.91e-05  |ddm|= 0.000247
    CPU time for cycle= 8      0.16 sec, wall time      0.02 sec
diis-norm(errvec)=3.57542e-05
diis-c [-8.69669321e-10 -1.78057330e-05 -7.75400627e-05 -1.90739465e-04
  2.08225748e-03 -1.21322373e-03 -1.33000997e-02 -6.39603456e-02
  1.07667750e+00]
  HOMO = -0.443174623949623  LUMO = 0.192424487170143
  mo_energy =
[-20.5846862  -20.57796326 -20.52977132 -20.49909297  -1.36963311
  -1.36126668  -1.3135774   -1.28716555  -0.72990462  -0.7238266
  -0.67896859  -0.67048097  -0.60614263  -0.58536342  -0.55502954
  -0.52606761  -0.51572606  -0.50682916  -0.47174447  -0.44317462
   0.19242449   0.22536581   0.27467598   0.29909106   0.33467099
   0.35870192   0.37726829   0.47640277   0.96081488   1.00439531
   1.02742524   1.04459617   1.079815     1.09654157   1.12080747
   1.13356828   1.13555855   1.15297215   1.19041251   1.21315447
   1.23579391   1.264917     1.27593765   1.32377796   1.33700247
   1.36825952   1.39043397   1.47545284   1.58180657   1.62850375
   1.70762562   1.77429184   1.77934561   1.80386424   1.81803718
   1.82673556   1.83266273   1.86117235   1.88330307   1.93001713
   1.94859686   1.96163997   1.99891016   2.04193512   2.53856126
   2.56752341   2.56825534   2.57391255   2.61850133   2.62799297
   2.66570933   2.74067489   2.78851596   2.81241748   2.83496012
   2.93042923   2.96019191   2.971995     2.97739736   2.99032183
   3.01205087   3.0313615    3.06516109   3.06929201   3.36795346
   3.37977153   3.42041344   3.46459464   3.7410819    3.75325086
   3.79310186   3.84675174   3.91317419   3.94775992   3.99177011
   4.06433245]
E1 = -676.3939660418491  E_coul = 243.6605558581177
cycle= 9 E= -304.151156973962  delta_E= -2.14e-10  |g|= 6.73e-06  |ddm|= 3.31e-05
    CPU time for cycle= 9      0.17 sec, wall time      0.02 sec
  HOMO = -0.443174192324994  LUMO = 0.192424089732147
  mo_energy =
[-20.58469047 -20.57796369 -20.52977275 -20.499093    -1.36963446
  -1.36126674  -1.31357773  -1.28716542  -0.72990593  -0.72382679
  -0.67896899  -0.67048125  -0.6061434   -0.58536392  -0.55503027
  -0.52606741  -0.51572689  -0.50682932  -0.47174454  -0.44317419
   0.19242409   0.22536565   0.2746758    0.29909061   0.33467063
   0.35870172   0.37726802   0.47640256   0.96081429   1.00439519
   1.02742487   1.04459593   1.07981447   1.09654102   1.12080741
   1.13356816   1.13555797   1.15297179   1.19041234   1.21315413
   1.23579351   1.26491671   1.27593748   1.32377795   1.33700214
   1.36825897   1.39043316   1.47545262   1.58180628   1.62850337
   1.70762531   1.77429165   1.77934467   1.80386413   1.81803709
   1.82673499   1.83266247   1.86117214   1.88330255   1.93001661
   1.94859669   1.96163985   1.99891022   2.04193477   2.5385607
   2.56752281   2.56825474   2.57391238   2.61850103   2.62799266
   2.66570908   2.74067486   2.78851502   2.81241727   2.83495974
   2.93042895   2.96019141   2.97199456   2.97739711   2.9903213
   3.0120507    3.03136108   3.06516089   3.06929196   3.36795264
   3.37977129   3.42041312   3.46459456   3.74108122   3.75325029
   3.79310146   3.84675159   3.91317311   3.94775968   3.99176971
   4.0643324 ]
E1 = -676.3939833307473  E_coul = 243.6605731469882
Extra cycle  E= -304.15115697399  delta_E= -2.77e-11  |g|= 3.38e-06  |ddm|= 1.13e-05
    CPU time for scf_cycle      2.73 sec, wall time      0.35 sec
    CPU time for SCF      2.82 sec, wall time      0.37 sec
converged SCF energy = -304.15115697399
