 Entering Gaussian System, Link 0=g16
 Input=w32_57.gjf
 Output=w32_57.log
 Initial command:
 /home/soft/g16/l1.exe "/tmp/liwei01/gaussian/wsr/Gau-7753.inp" -scrdir="/tmp/liwei01/gaussian/wsr/"
 Entering Link 1 = /home/soft/g16/l1.exe PID=      7756.
  
 Copyright (c) 1988,1990,1992,1993,1995,1998,2003,2009,2016,
            Gaussian, Inc.  All Rights Reserved.
  
 This is part of the Gaussian(R) 16 program.  It is based on
 the Gaussian(R) 09 system (copyright 2009, Gaussian, Inc.),
 the Gaussian(R) 03 system (copyright 2003, Gaussian, Inc.),
 the Gaussian(R) 98 system (copyright 1998, Gaussian, Inc.),
 the Gaussian(R) 94 system (copyright 1995, Gaussian, Inc.),
 the Gaussian 92(TM) system (copyright 1992, Gaussian, Inc.),
 the Gaussian 90(TM) system (copyright 1990, Gaussian, Inc.),
 the Gaussian 88(TM) system (copyright 1988, Gaussian, Inc.),
 the Gaussian 86(TM) system (copyright 1986, Carnegie Mellon
 University), and the Gaussian 82(TM) system (copyright 1983,
 Carnegie Mellon University). Gaussian is a federally registered
 trademark of Gaussian, Inc.
  
 This software contains proprietary and confidential information,
 including trade secrets, belonging to Gaussian, Inc.
  
 This software is provided under written license and may be
 used, copied, transmitted, or stored only in accord with that
 written license.
  
 The following legend is applicable only to US Government
 contracts under FAR:
  
                    RESTRICTED RIGHTS LEGEND
  
 Use, reproduction and disclosure by the US Government is
 subject to restrictions as set forth in subparagraphs (a)
 and (c) of the Commercial Computer Software - Restricted
 Rights clause in FAR 52.227-19.
  
 Gaussian, Inc.
 340 Quinnipiac St., Bldg. 40, Wallingford CT 06492
  
  
 ---------------------------------------------------------------
 Warning -- This program may not be used in any manner that
 competes with the business of Gaussian, Inc. or will provide
 assistance to any competitor of Gaussian, Inc.  The licensee
 of this program is prohibited from giving any competitor of
 Gaussian, Inc. access to this program.  By using this program,
 the user acknowledges that Gaussian, Inc. is engaged in the
 business of creating and licensing software in the field of
 computational chemistry and represents and warrants to the
 licensee that it is not a competitor of Gaussian, Inc. and that
 it will not use this program in any manner prohibited above.
 ---------------------------------------------------------------
  

 Cite this work as:
 Gaussian 16, Revision A.03,
 M. J. Frisch, G. W. Trucks, H. B. Schlegel, G. E. Scuseria, 
 M. A. Robb, J. R. Cheeseman, G. Scalmani, V. Barone, 
 G. A. Petersson, H. Nakatsuji, X. Li, M. Caricato, A. V. Marenich, 
 J. Bloino, B. G. Janesko, R. Gomperts, B. Mennucci, H. P. Hratchian, 
 J. V. Ortiz, A. F. Izmaylov, J. L. Sonnenberg, D. Williams-Young, 
 F. Ding, F. Lipparini, F. Egidi, J. Goings, B. Peng, A. Petrone, 
 T. Henderson, D. Ranasinghe, V. G. Zakrzewski, J. Gao, N. Rega, 
 G. Zheng, W. Liang, M. Hada, M. Ehara, K. Toyota, R. Fukuda, 
 J. Hasegawa, M. Ishida, T. Nakajima, Y. Honda, O. Kitao, H. Nakai, 
 T. Vreven, K. Throssell, J. A. Montgomery, Jr., J. E. Peralta, 
 F. Ogliaro, M. J. Bearpark, J. J. Heyd, E. N. Brothers, K. N. Kudin, 
 V. N. Staroverov, T. A. Keith, R. Kobayashi, J. Normand, 
 K. Raghavachari, A. P. Rendell, J. C. Burant, S. S. Iyengar, 
 J. Tomasi, M. Cossi, J. M. Millam, M. Klene, C. Adamo, R. Cammi, 
 J. W. Ochterski, R. L. Martin, K. Morokuma, O. Farkas, 
 J. B. Foresman, and D. J. Fox, Gaussian, Inc., Wallingford CT, 2016.
 
 ******************************************
 Gaussian 16:  ES64L-G16RevA.03 25-Dec-2016
                15-May-2020 
 ******************************************
 %chk=w32_57.chk
 %nproc=4
 Will use up to    4 processors via shared memory.
 %mem=1gb
 -----------------------------------------
 #p hf/6-31g** 5d 7f pop=npa charge nosymm
 -----------------------------------------
 1/18=10,28=-2,38=1,125=101,172=1/1;
 2/12=2,15=1,17=6,18=5,40=1/2;
 3/5=1,6=6,7=101,8=11,11=9,25=1,30=1/1,2,3;
 4//1;
 5/5=2,38=5/2;
 6/7=2,8=2,9=2,10=2,28=1,40=-1/1,7;
 99/5=1,9=1/99;
 Leave Link    1 at Fri May 15 22:36:02 2020, MaxMem=   134217728 cpu:               0.3 elap:               0.1
 (Enter /home/soft/g16/l101.exe)
 -------------
 Atom number=9
 -------------
 Symbolic Z-matrix:
 Charge =  0 Multiplicity = 1
 o                     8.39232  -11.81294  -11.20048 
 o                     10.08491  -9.603    -13.69441 
 o                     9.47377  -7.99719  -10.91804 
 h                     8.17528  -12.53782  -10.61424 
 h                     9.25215  -11.5141  -10.90447 
 h                     9.83796  -9.87791  -14.5774 
 h                     9.26711  -9.62837  -13.19764 
 h                     9.99752  -8.79563  -10.85159 
 h                     9.62339  -7.54236  -10.0892 
 
 ITRead=  0  0  0  0  0  0  0  0  0
 MicOpt= -1 -1 -1 -1 -1 -1 -1 -1 -1
 NAtoms=      9 NQM=        9 NQMF=       0 NMMI=      0 NMMIF=      0
                NMic=       0 NMicF=      0.
                    Isotopes and Nuclear Properties:
 (Nuclear quadrupole moments (NQMom) in fm**2, nuclear magnetic moments (NMagM)
  in nuclear magnetons)

  Atom         1           2           3           4           5           6           7           8           9
 IAtWgt=          16          16          16           1           1           1           1           1           1
 AtmWgt=  15.9949146  15.9949146  15.9949146   1.0078250   1.0078250   1.0078250   1.0078250   1.0078250   1.0078250
 NucSpn=           0           0           0           1           1           1           1           1           1
 AtZEff=  -0.0000000  -0.0000000  -0.0000000  -0.0000000  -0.0000000  -0.0000000  -0.0000000  -0.0000000  -0.0000000
 NQMom=    0.0000000   0.0000000   0.0000000   0.0000000   0.0000000   0.0000000   0.0000000   0.0000000   0.0000000
 NMagM=    0.0000000   0.0000000   0.0000000   2.7928460   2.7928460   2.7928460   2.7928460   2.7928460   2.7928460
 AtZNuc=   8.0000000   8.0000000   8.0000000   1.0000000   1.0000000   1.0000000   1.0000000   1.0000000   1.0000000
 Background charge distribution read from input stream:
 Point Charges:
 XYZ=   10.7060  -10.8489  -10.0915 Q=   -1.0357 A=    0.0000 R=    0.0000 C=    0.0000
 XYZ=   11.5214  -11.3203   -9.9208 Q=    0.5206 A=    0.0000 R=    0.0000 C=    0.0000
 XYZ=   10.5678  -10.3169   -9.3078 Q=    0.5156 A=    0.0000 R=    0.0000 C=    0.0000
 XYZ=    8.6932  -14.0693   -9.5471 Q=   -1.0099 A=    0.0000 R=    0.0000 C=    0.0000
 XYZ=    8.2201  -13.7327   -8.7861 Q=    0.4999 A=    0.0000 R=    0.0000 C=    0.0000
 XYZ=    8.5528  -15.0157   -9.5178 Q=    0.5079 A=    0.0000 R=    0.0000 C=    0.0000
 XYZ=    7.2503   -9.8596  -13.1035 Q=   -1.0243 A=    0.0000 R=    0.0000 C=    0.0000
 XYZ=    7.1207  -10.2215  -13.9801 Q=    0.5152 A=    0.0000 R=    0.0000 C=    0.0000
 XYZ=    7.3415  -10.6267  -12.5383 Q=    0.5154 A=    0.0000 R=    0.0000 C=    0.0000
 XYZ=    5.5704  -12.7600  -10.7338 Q=   -1.0500 A=    0.0000 R=    0.0000 C=    0.0000
 XYZ=    4.6427  -12.8278  -10.5079 Q=    0.5214 A=    0.0000 R=    0.0000 C=    0.0000
 XYZ=    5.9838  -12.4052   -9.9468 Q=    0.5064 A=    0.0000 R=    0.0000 C=    0.0000
 XYZ=    6.9662   -9.2478  -10.2743 Q=   -1.0324 A=    0.0000 R=    0.0000 C=    0.0000
 XYZ=    6.9752   -9.8450  -11.0223 Q=    0.5142 A=    0.0000 R=    0.0000 C=    0.0000
 XYZ=    7.6844   -8.6385  -10.4451 Q=    0.5185 A=    0.0000 R=    0.0000 C=    0.0000
 XYZ=    6.9426  -11.8294   -8.3710 Q=   -1.0528 A=    0.0000 R=    0.0000 C=    0.0000
 XYZ=    7.4956  -12.0911   -7.6348 Q=    0.5210 A=    0.0000 R=    0.0000 C=    0.0000
 XYZ=    7.3075  -10.9928   -8.6597 Q=    0.5255 A=    0.0000 R=    0.0000 C=    0.0000
 XYZ=    9.7397  -14.5602  -13.0841 Q=   -1.0029 A=    0.0000 R=    0.0000 C=    0.0000
 XYZ=    9.4367  -13.9209  -12.4394 Q=    0.5215 A=    0.0000 R=    0.0000 C=    0.0000
 XYZ=   10.6527  -14.3230  -13.2466 Q=    0.4988 A=    0.0000 R=    0.0000 C=    0.0000
 XYZ=    8.4516  -10.6356  -15.6859 Q=   -1.0322 A=    0.0000 R=    0.0000 C=    0.0000
 XYZ=    8.1250  -10.4069  -16.5562 Q=    0.4798 A=    0.0000 R=    0.0000 C=    0.0000
 XYZ=    9.2622  -11.1166  -15.8526 Q=    0.5341 A=    0.0000 R=    0.0000 C=    0.0000
 XYZ=    4.0391  -11.2243  -12.8044 Q=   -0.9921 A=    0.0000 R=    0.0000 C=    0.0000
 XYZ=    4.5248  -12.0476  -12.7552 Q=    0.4802 A=    0.0000 R=    0.0000 C=    0.0000
 XYZ=    4.4321  -10.7575  -13.5420 Q=    0.5046 A=    0.0000 R=    0.0000 C=    0.0000
 XYZ=    5.5848  -15.5922  -11.4699 Q=   -1.0129 A=    0.0000 R=    0.0000 C=    0.0000
 XYZ=    4.6785  -15.3483  -11.6582 Q=    0.5050 A=    0.0000 R=    0.0000 C=    0.0000
 XYZ=    6.0031  -14.7735  -11.2032 Q=    0.5257 A=    0.0000 R=    0.0000 C=    0.0000
 XYZ=    8.8013  -12.4259   -6.4973 Q=   -0.9852 A=    0.0000 R=    0.0000 C=    0.0000
 XYZ=    9.0556  -11.7490   -5.8701 Q=    0.5006 A=    0.0000 R=    0.0000 C=    0.0000
 XYZ=    8.9395  -13.2499   -6.0303 Q=    0.5083 A=    0.0000 R=    0.0000 C=    0.0000
 XYZ=   10.5523   -9.0602   -7.7657 Q=   -0.9799 A=    0.0000 R=    0.0000 C=    0.0000
 XYZ=   10.0296   -9.4526   -7.0665 Q=    0.5003 A=    0.0000 R=    0.0000 C=    0.0000
 XYZ=   10.0576   -8.2839   -8.0284 Q=    0.4937 A=    0.0000 R=    0.0000 C=    0.0000
 XYZ=    8.4919  -14.1596  -15.7110 Q=   -0.9823 A=    0.0000 R=    0.0000 C=    0.0000
 XYZ=    8.8439  -15.0437  -15.8144 Q=    0.4799 A=    0.0000 R=    0.0000 C=    0.0000
 XYZ=    8.9183  -13.8221  -14.9233 Q=    0.4950 A=    0.0000 R=    0.0000 C=    0.0000
 XYZ=   10.6752  -11.9252  -15.8192 Q=   -0.9837 A=    0.0000 R=    0.0000 C=    0.0000
 XYZ=   11.1454  -12.2597  -15.0555 Q=    0.5055 A=    0.0000 R=    0.0000 C=    0.0000
 XYZ=   10.7694  -12.6123  -16.4789 Q=    0.5125 A=    0.0000 R=    0.0000 C=    0.0000
 XYZ=    7.7593  -16.5050  -13.2460 Q=   -1.0112 A=    0.0000 R=    0.0000 C=    0.0000
 XYZ=    7.3079  -16.2111  -12.4547 Q=    0.4926 A=    0.0000 R=    0.0000 C=    0.0000
 XYZ=    8.5373  -15.9498  -13.2987 Q=    0.4973 A=    0.0000 R=    0.0000 C=    0.0000
 XYZ=   13.4576  -11.7733   -9.7740 Q=   -0.9993 A=    0.0000 R=    0.0000 C=    0.0000
 XYZ=   13.9089  -10.9962  -10.1037 Q=    0.5128 A=    0.0000 R=    0.0000 C=    0.0000
 XYZ=   14.1508  -12.4236   -9.6612 Q=    0.5076 A=    0.0000 R=    0.0000 C=    0.0000
 XYZ=    5.5914  -15.5335   -8.7002 Q=   -1.0162 A=    0.0000 R=    0.0000 C=    0.0000
 XYZ=    6.3093  -16.0707   -8.3652 Q=    0.4831 A=    0.0000 R=    0.0000 C=    0.0000
 XYZ=    5.4763  -15.8239   -9.6050 Q=    0.5237 A=    0.0000 R=    0.0000 C=    0.0000
 XYZ=    5.3398  -11.2122  -15.4745 Q=   -0.9760 A=    0.0000 R=    0.0000 C=    0.0000
 XYZ=    5.8801  -10.4587  -15.7120 Q=    0.4863 A=    0.0000 R=    0.0000 C=    0.0000
 XYZ=    5.4896  -11.8457  -16.1763 Q=    0.4965 A=    0.0000 R=    0.0000 C=    0.0000
 XYZ=   12.9960  -14.7139  -11.2100 Q=   -0.9778 A=    0.0000 R=    0.0000 C=    0.0000
 XYZ=   12.2864  -15.1619  -10.7497 Q=    0.5059 A=    0.0000 R=    0.0000 C=    0.0000
 XYZ=   13.6357  -14.5124  -10.5270 Q=    0.4638 A=    0.0000 R=    0.0000 C=    0.0000
 XYZ=    4.6413   -8.1383  -12.6711 Q=   -0.9897 A=    0.0000 R=    0.0000 C=    0.0000
 XYZ=    4.5978   -7.2720  -12.2662 Q=    0.4876 A=    0.0000 R=    0.0000 C=    0.0000
 XYZ=    5.5765   -8.3384  -12.7100 Q=    0.4969 A=    0.0000 R=    0.0000 C=    0.0000
 XYZ=    8.9611  -17.0167   -9.2755 Q=   -0.9921 A=    0.0000 R=    0.0000 C=    0.0000
 XYZ=    8.6736  -17.2191   -8.3852 Q=    0.5092 A=    0.0000 R=    0.0000 C=    0.0000
 XYZ=    8.3026  -17.4234   -9.8386 Q=    0.5103 A=    0.0000 R=    0.0000 C=    0.0000
 XYZ=   12.8900   -9.6906  -13.7511 Q=   -0.9984 A=    0.0000 R=    0.0000 C=    0.0000
 XYZ=   13.4884   -9.8459  -13.0204 Q=    0.4670 A=    0.0000 R=    0.0000 C=    0.0000
 XYZ=   12.0171   -9.7427  -13.3618 Q=    0.5160 A=    0.0000 R=    0.0000 C=    0.0000
 XYZ=    4.9070   -7.9100   -9.1300 Q=   -1.0105 A=    0.0000 R=    0.0000 C=    0.0000
 XYZ=    4.0635   -8.0265   -9.5674 Q=    0.4764 A=    0.0000 R=    0.0000 C=    0.0000
 XYZ=    5.4227   -8.6710   -9.3968 Q=    0.5176 A=    0.0000 R=    0.0000 C=    0.0000
 XYZ=    2.9547  -12.7024   -9.8757 Q=   -0.9915 A=    0.0000 R=    0.0000 C=    0.0000
 XYZ=    3.0641  -13.5048   -9.3654 Q=    0.5019 A=    0.0000 R=    0.0000 C=    0.0000
 XYZ=    2.7384  -12.0329   -9.2268 Q=    0.5105 A=    0.0000 R=    0.0000 C=    0.0000
 XYZ=    4.2108  -13.3306   -7.5546 Q=   -1.0293 A=    0.0000 R=    0.0000 C=    0.0000
 XYZ=    4.9638  -12.7453   -7.4735 Q=    0.4979 A=    0.0000 R=    0.0000 C=    0.0000
 XYZ=    4.5835  -14.1618   -7.8486 Q=    0.5197 A=    0.0000 R=    0.0000 C=    0.0000
 XYZ=    8.5389   -6.2611  -12.9484 Q=   -1.0019 A=    0.0000 R=    0.0000 C=    0.0000
 XYZ=    8.8800   -6.8491  -12.2745 Q=    0.5098 A=    0.0000 R=    0.0000 C=    0.0000
 XYZ=    9.2767   -6.1230  -13.5423 Q=    0.4773 A=    0.0000 R=    0.0000 C=    0.0000
 XYZ=   11.4715  -15.3553   -7.5180 Q=   -1.0197 A=    0.0000 R=    0.0000 C=    0.0000
 XYZ=   10.8644  -15.3558   -8.2581 Q=    0.4753 A=    0.0000 R=    0.0000 C=    0.0000
 XYZ=   11.9075  -14.5045   -7.5658 Q=    0.5146 A=    0.0000 R=    0.0000 C=    0.0000
 XYZ=   12.8138  -13.0185   -7.3663 Q=   -0.9959 A=    0.0000 R=    0.0000 C=    0.0000
 XYZ=   12.4819  -12.4171   -6.6996 Q=    0.4994 A=    0.0000 R=    0.0000 C=    0.0000
 XYZ=   12.6552  -12.5682   -8.1960 Q=    0.5110 A=    0.0000 R=    0.0000 C=    0.0000
 XYZ=   11.3245  -17.0116  -10.7628 Q=   -1.0019 A=    0.0000 R=    0.0000 C=    0.0000
 XYZ=   11.7165  -17.8633  -10.5702 Q=    0.4876 A=    0.0000 R=    0.0000 C=    0.0000
 XYZ=   10.4428  -17.0644  -10.3939 Q=    0.5095 A=    0.0000 R=    0.0000 C=    0.0000
 Pt Chg Charge=              0.0045 electrons
 Pt Chg Dipole moment (Debye):
    X=             16.3104    Y=             -4.8697    Z=             12.3097  Tot=             21.0065
 Pt Chg Quadrupole moment (Debye-Ang):
   XX=            253.0427   YY=            124.6396   ZZ=           -207.0326
   XY=           -190.6582   XZ=            -75.8049   YZ=           -102.5387
 Pt Chg Traceless Quadrupole moment (Debye-Ang):
   XX=            196.1595   YY=             67.7564   ZZ=           -263.9158
   XY=           -190.6582   XZ=            -75.8049   YZ=           -102.5387
 Pt Chg Octapole moment (Debye-Ang**2):
  XXX=           3358.8465  YYY=          -2714.2046  ZZZ=           2339.1352  XYY=           2372.5810
  XXY=          -2650.1054  XXZ=          -1873.6555  XZZ=            299.9109  YZZ=           2077.4891
  YYZ=            753.2365  XYZ=            939.3396
 Pt Chg Hexadecapole moment (Debye-Ang**3):
 XXXX=          45329.7932 YYYY=          57021.0111 ZZZZ=         -14917.9245 XXXY=         -33919.3088
 XXXZ=         -28438.8588 YYYX=         -33248.7540 YYYZ=          -1792.0973 ZZZX=          -3709.6248
 ZZZY=         -24748.4986 XXYY=          28788.8118 XXZZ=          15583.5475 YYZZ=         -22844.8548
 XXYZ=          20568.6475 YYXZ=         -11907.8233 ZZXY=          -4600.4686
 Leave Link  101 at Fri May 15 22:36:02 2020, MaxMem=   134217728 cpu:               0.6 elap:               0.2
 (Enter /home/soft/g16/l202.exe)
                          Input orientation:                          
 ---------------------------------------------------------------------
 Center     Atomic      Atomic             Coordinates (Angstroms)
 Number     Number       Type             X           Y           Z
 ---------------------------------------------------------------------
      1          8           0        8.392325  -11.812941  -11.200483
      2          8           0       10.084912   -9.602997  -13.694410
      3          8           0        9.473772   -7.997188  -10.918041
      4          1           0        8.175276  -12.537815  -10.614239
      5          1           0        9.252154  -11.514100  -10.904475
      6          1           0        9.837963   -9.877914  -14.577398
      7          1           0        9.267108   -9.628370  -13.197635
      8          1           0        9.997520   -8.795627  -10.851588
      9          1           0        9.623390   -7.542356  -10.089201
 ---------------------------------------------------------------------
                    Distance matrix (angstroms):
                    1          2          3          4          5
     1  O    0.000000
     2  O    3.737429   0.000000
     3  O    3.976088   3.265018   0.000000
     4  H    0.957201   4.663402   4.732408   0.000000
     5  H    0.957200   3.482749   3.523914   1.513901   0.000000
     6  H    4.151837   0.957200   4.130455   5.054328   4.063329
     7  H    3.086456   0.957200   2.810696   4.041151   2.968970
     8  H    3.435486   2.956539   0.957201   4.169038   2.819302
     9  H    4.581306   4.178131   0.957201   5.227553   4.071515
                    6          7          8          9
     6  H    0.000000
     7  H    1.513900   0.000000
     8  H    3.883100   2.594398   0.000000
     9  H    5.064068   3.760419   1.513901   0.000000
 Symmetry turned off by external request.
 Stoichiometry    H6O3
 Framework group  C1[X(H6O3)]
 Deg. of freedom    21
 Full point group                 C1      NOp   1
 Rotational constants (GHZ):           5.0271104           3.3343027           2.0306473
 Leave Link  202 at Fri May 15 22:36:02 2020, MaxMem=   134217728 cpu:               0.1 elap:               0.0
 (Enter /home/soft/g16/l301.exe)
 Standard basis: 6-31G(d,p) (5D, 7F)
 Ernie: Thresh=  0.10000D-02 Tol=  0.10000D-05 Strict=F.
    72 basis functions,   126 primitive gaussians,    75 cartesian basis functions
    15 alpha electrons       15 beta electrons
       nuclear repulsion energy        70.9555444161 Hartrees.
 IExCor=    0 DFT=F Ex=HF Corr=None ExCW=0 ScaHFX=  1.000000
 ScaDFX=  1.000000  1.000000  1.000000  1.000000 ScalE2=  1.000000  1.000000
 IRadAn=      5 IRanWt=     -1 IRanGd=            0 ICorTp=0 IEmpDi=  4
 NAtoms=    9 NActive=    9 NUniq=    9 SFac= 1.00D+00 NAtFMM=   60 NAOKFM=F Big=F
 Integral buffers will be    131072 words long.
 Raffenetti 1 integral format.
 Two-electron integral symmetry is turned off.
 Background charge distribution read from rwf.
 PtFMM for NChg=        96 BoxLen=    40.00 Levels= 1 LMax=20 SMax=    22.2 ICnFMM=     1:
 Self energy of the charges =       -13.9956148610 a.u.
 MM   energy of the charges =         0.0000000000 a.u.
 Nuclei-charges interaction =         0.3076092061 a.u.
 Nuclear repulsion after external point charges =       57.2675387612 Hartrees.
 Leave Link  301 at Fri May 15 22:36:02 2020, MaxMem=   134217728 cpu:               0.3 elap:               0.1
 (Enter /home/soft/g16/l302.exe)
 NPDir=0 NMtPBC=     1 NCelOv=     1 NCel=       1 NClECP=     1 NCelD=      1
         NCelK=      1 NCelE2=     1 NClLst=     1 CellRange=     0.0.
 One-electron integrals computed using PRISM.
 NBasis=    72 RedAO= T EigKep=  3.86D-02  NBF=    72
 NBsUse=    72 1.00D-06 EigRej= -1.00D+00 NBFU=    72
 Leave Link  302 at Fri May 15 22:36:02 2020, MaxMem=   134217728 cpu:               0.5 elap:               0.2
 (Enter /home/soft/g16/l303.exe)
 DipDrv:  MaxL=1.
 Leave Link  303 at Fri May 15 22:36:02 2020, MaxMem=   134217728 cpu:               0.1 elap:               0.1
 (Enter /home/soft/g16/l401.exe)
 ExpMin= 1.61D-01 ExpMax= 5.48D+03 ExpMxC= 8.25D+02 IAcc=3 IRadAn=         5 AccDes= 0.00D+00
 Harris functional with IExCor=  205 and IRadAn=       5 diagonalized for initial guess.
 HarFok:  IExCor=  205 AccDes= 0.00D+00 IRadAn=         5 IDoV= 1 UseB2=F ITyADJ=14
 ICtDFT=  3500011 ScaDFX=  1.000000  1.000000  1.000000  1.000000
 FoFCou: FMM=F IPFlag=           0 FMFlag=      100000 FMFlg1=           0
         NFxFlg=           0 DoJE=T BraDBF=F KetDBF=T FulRan=T
         wScrn=  0.000000 ICntrl=       500 IOpCl=  0 I1Cent=   200000004 NGrid=           0
         NMat0=    1 NMatS0=      1 NMatT0=    0 NMatD0=    1 NMtDS0=    0 NMtDT0=    0
 Symmetry not used in FoFCou.
 Harris En= -242.451278661317    
 JPrj=0 DoOrth=F DoCkMO=F.
 Leave Link  401 at Fri May 15 22:36:02 2020, MaxMem=   134217728 cpu:               1.3 elap:               0.3
 (Enter /home/soft/g16/l502.exe)
 Keep R1 ints in memory in canonical form, NReq=4305598.
 FoFCou: FMM=F IPFlag=           0 FMFlag=           0 FMFlg1=           0
         NFxFlg=           0 DoJE=F BraDBF=F KetDBF=F FulRan=T
         wScrn=  0.000000 ICntrl=       600 IOpCl=  0 I1Cent=           0 NGrid=           0
         NMat0=    1 NMatS0=   2628 NMatT0=    0 NMatD0=    1 NMtDS0=    0 NMtDT0=    0
 Symmetry not used in FoFCou.
 Two-electron integral symmetry not used.
 Closed shell SCF:
 Using DIIS extrapolation, IDIIS=  1040.
 NGot=   134217728 LenX=   130750732 LenY=   130744666
 Requested convergence on RMS density matrix=1.00D-08 within 128 cycles.
 Requested convergence on MAX density matrix=1.00D-06.
 Requested convergence on             energy=1.00D-06.
 No special actions if energy rises.

 Cycle   1  Pass 1  IDiag  1:
 E= -241.899471873237    
 DIIS: error= 5.97D-02 at cycle   1 NSaved=   1.
 NSaved= 1 IEnMin= 1 EnMin= -241.899471873237     IErMin= 1 ErrMin= 5.97D-02
 ErrMax= 5.97D-02  0.00D+00 EMaxC= 1.00D-01 BMatC= 3.91D-01 BMatP= 3.91D-01
 IDIUse=3 WtCom= 4.03D-01 WtEn= 5.97D-01
 Coeff-Com:  0.100D+01
 Coeff-En:   0.100D+01
 Coeff:      0.100D+01
 Gap=     0.505 Goal=   None    Shift=    0.000
 GapD=    0.505 DampG=2.000 DampE=0.500 DampFc=1.0000 IDamp=-1.
 RMSDP=7.07D-03 MaxDP=1.25D-01              OVMax= 1.30D-01

 Cycle   2  Pass 1  IDiag  1:
 E= -242.081536703008     Delta-E=       -0.182064829771 Rises=F Damp=F
 DIIS: error= 3.21D-02 at cycle   2 NSaved=   2.
 NSaved= 2 IEnMin= 2 EnMin= -242.081536703008     IErMin= 2 ErrMin= 3.21D-02
 ErrMax= 3.21D-02  0.00D+00 EMaxC= 1.00D-01 BMatC= 1.23D-01 BMatP= 3.91D-01
 IDIUse=3 WtCom= 6.79D-01 WtEn= 3.21D-01
 Coeff-Com:  0.348D+00 0.652D+00
 Coeff-En:   0.881D-01 0.912D+00
 Coeff:      0.265D+00 0.735D+00
 Gap=     0.645 Goal=   None    Shift=    0.000
 RMSDP=3.19D-03 MaxDP=5.41D-02 DE=-1.82D-01 OVMax= 4.71D-02

 Cycle   3  Pass 1  IDiag  1:
 E= -242.162710108013     Delta-E=       -0.081173405005 Rises=F Damp=F
 DIIS: error= 6.12D-03 at cycle   3 NSaved=   3.
 NSaved= 3 IEnMin= 3 EnMin= -242.162710108013     IErMin= 3 ErrMin= 6.12D-03
 ErrMax= 6.12D-03  0.00D+00 EMaxC= 1.00D-01 BMatC= 3.13D-03 BMatP= 1.23D-01
 IDIUse=3 WtCom= 9.39D-01 WtEn= 6.12D-02
 Coeff-Com: -0.314D-01 0.950D-01 0.936D+00
 Coeff-En:   0.000D+00 0.000D+00 0.100D+01
 Coeff:     -0.294D-01 0.891D-01 0.940D+00
 Gap=     0.630 Goal=   None    Shift=    0.000
 RMSDP=4.45D-04 MaxDP=8.18D-03 DE=-8.12D-02 OVMax= 9.47D-03

 Cycle   4  Pass 1  IDiag  1:
 E= -242.165112501193     Delta-E=       -0.002402393181 Rises=F Damp=F
 DIIS: error= 5.74D-04 at cycle   4 NSaved=   4.
 NSaved= 4 IEnMin= 4 EnMin= -242.165112501193     IErMin= 4 ErrMin= 5.74D-04
 ErrMax= 5.74D-04  0.00D+00 EMaxC= 1.00D-01 BMatC= 2.47D-05 BMatP= 3.13D-03
 IDIUse=3 WtCom= 9.94D-01 WtEn= 5.74D-03
 Coeff-Com:  0.590D-02-0.437D-01-0.273D+00 0.131D+01
 Coeff-En:   0.000D+00 0.000D+00 0.000D+00 0.100D+01
 Coeff:      0.587D-02-0.435D-01-0.271D+00 0.131D+01
 Gap=     0.631 Goal=   None    Shift=    0.000
 RMSDP=8.16D-05 MaxDP=1.19D-03 DE=-2.40D-03 OVMax= 1.61D-03

 Cycle   5  Pass 1  IDiag  1:
 E= -242.165149148836     Delta-E=       -0.000036647642 Rises=F Damp=F
 DIIS: error= 1.01D-04 at cycle   5 NSaved=   5.
 NSaved= 5 IEnMin= 5 EnMin= -242.165149148836     IErMin= 5 ErrMin= 1.01D-04
 ErrMax= 1.01D-04  0.00D+00 EMaxC= 1.00D-01 BMatC= 7.65D-07 BMatP= 2.47D-05
 IDIUse=3 WtCom= 9.99D-01 WtEn= 1.01D-03
 Coeff-Com:  0.150D-02-0.691D-02-0.513D-01 0.904D-01 0.966D+00
 Coeff-En:   0.000D+00 0.000D+00 0.000D+00 0.000D+00 0.100D+01
 Coeff:      0.150D-02-0.690D-02-0.512D-01 0.903D-01 0.966D+00
 Gap=     0.632 Goal=   None    Shift=    0.000
 RMSDP=1.64D-05 MaxDP=2.82D-04 DE=-3.66D-05 OVMax= 3.91D-04

 Cycle   6  Pass 1  IDiag  1:
 E= -242.165150343330     Delta-E=       -0.000001194495 Rises=F Damp=F
 DIIS: error= 3.39D-05 at cycle   6 NSaved=   6.
 NSaved= 6 IEnMin= 6 EnMin= -242.165150343330     IErMin= 6 ErrMin= 3.39D-05
 ErrMax= 3.39D-05  0.00D+00 EMaxC= 1.00D-01 BMatC= 1.03D-07 BMatP= 7.65D-07
 IDIUse=1 WtCom= 1.00D+00 WtEn= 0.00D+00
 Coeff-Com: -0.159D-03 0.214D-02 0.122D-01-0.966D-01 0.199D+00 0.883D+00
 Coeff:     -0.159D-03 0.214D-02 0.122D-01-0.966D-01 0.199D+00 0.883D+00
 Gap=     0.632 Goal=   None    Shift=    0.000
 RMSDP=5.33D-06 MaxDP=9.06D-05 DE=-1.19D-06 OVMax= 1.08D-04

 Cycle   7  Pass 1  IDiag  1:
 E= -242.165150475462     Delta-E=       -0.000000132132 Rises=F Damp=F
 DIIS: error= 7.35D-06 at cycle   7 NSaved=   7.
 NSaved= 7 IEnMin= 7 EnMin= -242.165150475462     IErMin= 7 ErrMin= 7.35D-06
 ErrMax= 7.35D-06  0.00D+00 EMaxC= 1.00D-01 BMatC= 3.93D-09 BMatP= 1.03D-07
 IDIUse=1 WtCom= 1.00D+00 WtEn= 0.00D+00
 Coeff-Com: -0.982D-04 0.381D-03 0.311D-02-0.134D-02-0.892D-01-0.567D-01
 Coeff-Com:  0.114D+01
 Coeff:     -0.982D-04 0.381D-03 0.311D-02-0.134D-02-0.892D-01-0.567D-01
 Coeff:      0.114D+01
 Gap=     0.632 Goal=   None    Shift=    0.000
 RMSDP=1.64D-06 MaxDP=2.44D-05 DE=-1.32D-07 OVMax= 4.06D-05

 Cycle   8  Pass 1  IDiag  1:
 E= -242.165150483380     Delta-E=       -0.000000007918 Rises=F Damp=F
 DIIS: error= 1.38D-06 at cycle   8 NSaved=   8.
 NSaved= 8 IEnMin= 8 EnMin= -242.165150483380     IErMin= 8 ErrMin= 1.38D-06
 ErrMax= 1.38D-06  0.00D+00 EMaxC= 1.00D-01 BMatC= 1.42D-10 BMatP= 3.93D-09
 IDIUse=1 WtCom= 1.00D+00 WtEn= 0.00D+00
 Coeff-Com:  0.394D-04-0.206D-03-0.155D-02 0.377D-02 0.283D-01-0.532D-02
 Coeff-Com: -0.423D+00 0.140D+01
 Coeff:      0.394D-04-0.206D-03-0.155D-02 0.377D-02 0.283D-01-0.532D-02
 Coeff:     -0.423D+00 0.140D+01
 Gap=     0.632 Goal=   None    Shift=    0.000
 RMSDP=2.61D-07 MaxDP=4.20D-06 DE=-7.92D-09 OVMax= 7.19D-06

 Cycle   9  Pass 1  IDiag  1:
 E= -242.165150483694     Delta-E=       -0.000000000314 Rises=F Damp=F
 DIIS: error= 2.47D-07 at cycle   9 NSaved=   9.
 NSaved= 9 IEnMin= 9 EnMin= -242.165150483694     IErMin= 9 ErrMin= 2.47D-07
 ErrMax= 2.47D-07  0.00D+00 EMaxC= 1.00D-01 BMatC= 3.20D-12 BMatP= 1.42D-10
 IDIUse=1 WtCom= 1.00D+00 WtEn= 0.00D+00
 Coeff-Com: -0.573D-05 0.352D-04 0.259D-03-0.945D-03-0.289D-02 0.361D-02
 Coeff-Com:  0.531D-01-0.293D+00 0.124D+01
 Coeff:     -0.573D-05 0.352D-04 0.259D-03-0.945D-03-0.289D-02 0.361D-02
 Coeff:      0.531D-01-0.293D+00 0.124D+01
 Gap=     0.632 Goal=   None    Shift=    0.000
 RMSDP=4.04D-08 MaxDP=5.69D-07 DE=-3.14D-10 OVMax= 1.24D-06

 Cycle  10  Pass 1  IDiag  1:
 E= -242.165150483701     Delta-E=       -0.000000000007 Rises=F Damp=F
 DIIS: error= 4.54D-08 at cycle  10 NSaved=  10.
 NSaved=10 IEnMin=10 EnMin= -242.165150483701     IErMin=10 ErrMin= 4.54D-08
 ErrMax= 4.54D-08  0.00D+00 EMaxC= 1.00D-01 BMatC= 2.06D-13 BMatP= 3.20D-12
 IDIUse=1 WtCom= 1.00D+00 WtEn= 0.00D+00
 Coeff-Com: -0.230D-05 0.128D-04 0.954D-04-0.277D-03-0.147D-02 0.665D-03
 Coeff-Com:  0.234D-01-0.918D-01 0.147D+00 0.922D+00
 Coeff:     -0.230D-05 0.128D-04 0.954D-04-0.277D-03-0.147D-02 0.665D-03
 Coeff:      0.234D-01-0.918D-01 0.147D+00 0.922D+00
 Gap=     0.632 Goal=   None    Shift=    0.000
 RMSDP=8.61D-09 MaxDP=1.09D-07 DE=-6.88D-12 OVMax= 2.42D-07

 SCF Done:  E(RHF) =  -242.165150484     A.U. after   10 cycles
            NFock= 10  Conv=0.86D-08     -V/T= 2.0637
 KE= 2.276650451332D+02 PE=-6.844490591482D+02 EE= 1.573513247701D+02
 Leave Link  502 at Fri May 15 22:36:03 2020, MaxMem=   134217728 cpu:               0.8 elap:               0.2
 (Enter /home/soft/g16/l601.exe)
 Copying SCF densities to generalized density rwf, IOpCl= 0 IROHF=0.

 **********************************************************************

            Population analysis using the SCF density.

 **********************************************************************

 Alpha  occ. eigenvalues --  -20.61155 -20.54328 -20.52011  -1.39305  -1.32585
 Alpha  occ. eigenvalues --   -1.30180  -0.75296  -0.68534  -0.66415  -0.62793
 Alpha  occ. eigenvalues --   -0.56511  -0.55423  -0.54248  -0.48930  -0.46354
 Alpha virt. eigenvalues --    0.16852   0.24200   0.30035   0.30714   0.38795
 Alpha virt. eigenvalues --    0.40343   0.93837   1.01573   1.04362   1.07443
 Alpha virt. eigenvalues --    1.09796   1.11733   1.12885   1.16114   1.17021
 Alpha virt. eigenvalues --    1.19384   1.22327   1.23734   1.30503   1.31675
 Alpha virt. eigenvalues --    1.38985   1.55723   1.63908   1.67709   1.75640
 Alpha virt. eigenvalues --    1.77516   1.82202   1.83847   1.84666   1.86408
 Alpha virt. eigenvalues --    1.86877   1.93320   1.95772   2.53378   2.54149
 Alpha virt. eigenvalues --    2.61033   2.61206   2.63064   2.63213   2.76584
 Alpha virt. eigenvalues --    2.83834   2.87501   2.92876   2.94503   3.00183
 Alpha virt. eigenvalues --    3.01343   3.02321   3.03552   3.33180   3.40455
 Alpha virt. eigenvalues --    3.42323   3.71058   3.78769   3.80929   3.89936
 Alpha virt. eigenvalues --    3.95059   3.99453
          Condensed to atoms (all electrons):
               1          2          3          4          5          6
     1  O    8.166718  -0.000164  -0.000056   0.317820   0.313321  -0.000009
     2  O   -0.000164   8.147318  -0.000182   0.000005   0.000487   0.319289
     3  O   -0.000056  -0.000182   8.106271   0.000000   0.000213   0.000019
     4  H    0.317820   0.000005   0.000000   0.306010  -0.020527   0.000000
     5  H    0.313321   0.000487   0.000213  -0.020527   0.301634  -0.000004
     6  H   -0.000009   0.319289   0.000019   0.000000  -0.000004   0.309754
     7  H    0.001867   0.315309   0.001398  -0.000037  -0.000116  -0.022861
     8  H    0.000429   0.001580   0.314863  -0.000008   0.000243  -0.000045
     9  H   -0.000002   0.000033   0.306839  -0.000000  -0.000001  -0.000001
               7          8          9
     1  O    0.001867   0.000429  -0.000002
     2  O    0.315309   0.001580   0.000033
     3  O    0.001398   0.314863   0.306839
     4  H   -0.000037  -0.000008  -0.000000
     5  H   -0.000116   0.000243  -0.000001
     6  H   -0.022861  -0.000045  -0.000001
     7  H    0.315884  -0.000689  -0.000033
     8  H   -0.000689   0.318230  -0.023594
     9  H   -0.000033  -0.023594   0.377406
 Mulliken charges:
               1
     1  O   -0.799924
     2  O   -0.783676
     3  O   -0.729366
     4  H    0.396737
     5  H    0.404751
     6  H    0.393857
     7  H    0.389277
     8  H    0.388992
     9  H    0.339352
 Sum of Mulliken charges =  -0.00000
 Mulliken charges with hydrogens summed into heavy atoms:
               1
     1  O    0.001564
     2  O   -0.000542
     3  O   -0.001022
 Electronic spatial extent (au):  <R**2>=          35385.9157
 Charge=             -0.0000 electrons
 Dipole moment (field-independent basis, Debye):
    X=              0.4972    Y=             -2.4359    Z=              2.7113  Tot=              3.6786
 Quadrupole moment (field-independent basis, Debye-Ang):
   XX=            -12.9780   YY=             31.3017   ZZ=            -70.7720
   XY=            -27.4883   XZ=             23.9864   YZ=              1.4697
 Traceless Quadrupole moment (field-independent basis, Debye-Ang):
   XX=              4.5048   YY=             48.7845   ZZ=            -53.2892
   XY=            -27.4883   XZ=             23.9864   YZ=              1.4697
 Octapole moment (field-independent basis, Debye-Ang**2):
  XXX=           -493.7093  YYY=           -236.8031  ZZZ=           1366.5509  XYY=            334.9506
  XXY=            -83.2547  XXZ=            481.6151  XZZ=           -700.6323  YZZ=            368.3054
  YYZ=            -67.9986  XYZ=             33.2195
 Hexadecapole moment (field-independent basis, Debye-Ang**3):
 XXXX=         -10104.4600 YYYY=            185.1573 ZZZZ=         -23300.3650 XXXY=           2832.9426
 XXXZ=           9463.0765 YYYX=          -2586.7902 YYYZ=           -783.0937 ZZZX=          13941.0322
 ZZZY=          -9571.3056 XXYY=           1341.9377 XXZZ=         -10236.0806 YYZZ=          -3398.5607
 XXYZ=          -2152.8627 YYXZ=           -856.9919 ZZXY=           3651.8249
 N-N= 5.726753876125D+01 E-N=-6.844490590568D+02  KE= 2.276650451332D+02
 No NMR shielding tensors so no spin-rotation constants.
 Leave Link  601 at Fri May 15 22:36:03 2020, MaxMem=   134217728 cpu:               0.6 elap:               0.2
 (Enter /home/soft/g16/l607.exe)
 ******************************Gaussian NBO Version 3.1******************************
             N A T U R A L   A T O M I C   O R B I T A L   A N D
          N A T U R A L   B O N D   O R B I T A L   A N A L Y S I S
 ******************************Gaussian NBO Version 3.1******************************
       /RESON  / : Allow strongly delocalized NBO set

 Analyzing the SCF density

 Job title: Atom number=9                                                   

 Storage needed:     15894 in NPA ( 134217269 available)
 GSVD:  LWork=        2304 too small for GESVD, short by        3132 words or        3132 for optimal perf.


 NATURAL POPULATIONS:  Natural atomic orbital occupancies 
                                                          
   NAO  Atom  No  lang   Type(AO)    Occupancy      Energy
 ----------------------------------------------------------
     1    O    1  S      Cor( 1S)     1.99987     -20.38005
     2    O    1  S      Val( 2S)     1.76045      -1.15222
     3    O    1  S      Ryd( 3S)     0.00086       1.71551
     4    O    1  px     Val( 2p)     1.68866      -0.38377
     5    O    1  px     Ryd( 3p)     0.00140       1.26528
     6    O    1  py     Val( 2p)     1.75120      -0.40548
     7    O    1  py     Ryd( 3p)     0.00141       1.24749
     8    O    1  pz     Val( 2p)     1.85018      -0.44380
     9    O    1  pz     Ryd( 3p)     0.00046       1.20184
    10    O    1  dxy    Ryd( 3d)     0.00054       2.53698
    11    O    1  dxz    Ryd( 3d)     0.00128       2.52193
    12    O    1  dyz    Ryd( 3d)     0.00143       2.72362
    13    O    1  dx2y2  Ryd( 3d)     0.00083       2.69177
    14    O    1  dz2    Ryd( 3d)     0.00131       2.36811

    15    O    2  S      Cor( 1S)     1.99986     -20.35764
    16    O    2  S      Val( 2S)     1.75728      -1.12617
    17    O    2  S      Ryd( 3S)     0.00100       1.75077
    18    O    2  px     Val( 2p)     1.74164      -0.38917
    19    O    2  px     Ryd( 3p)     0.00064       1.23869
    20    O    2  py     Val( 2p)     1.96801      -0.45044
    21    O    2  py     Ryd( 3p)     0.00050       1.21016
    22    O    2  pz     Val( 2p)     1.57446      -0.32143
    23    O    2  pz     Ryd( 3p)     0.00168       1.33075
    24    O    2  dxy    Ryd( 3d)     0.00129       2.29826
    25    O    2  dxz    Ryd( 3d)     0.00121       2.88159
    26    O    2  dyz    Ryd( 3d)     0.00041       2.44918
    27    O    2  dx2y2  Ryd( 3d)     0.00151       2.56340
    28    O    2  dz2    Ryd( 3d)     0.00059       2.76605

    29    O    3  S      Cor( 1S)     1.99986     -20.44841
    30    O    3  S      Val( 2S)     1.75890      -1.21188
    31    O    3  S      Ryd( 3S)     0.00117       1.64167
    32    O    3  px     Val( 2p)     1.88892      -0.51721
    33    O    3  px     Ryd( 3p)     0.00065       1.13186
    34    O    3  py     Val( 2p)     1.64155      -0.42956
    35    O    3  py     Ryd( 3p)     0.00198       1.21726
    36    O    3  pz     Val( 2p)     1.70779      -0.45746
    37    O    3  pz     Ryd( 3p)     0.00098       1.19724
    38    O    3  dxy    Ryd( 3d)     0.00101       2.64669
    39    O    3  dxz    Ryd( 3d)     0.00163       2.29402
    40    O    3  dyz    Ryd( 3d)     0.00106       2.61088
    41    O    3  dx2y2  Ryd( 3d)     0.00054       2.32790
    42    O    3  dz2    Ryd( 3d)     0.00173       2.65734

    43    H    4  S      Val( 1S)     0.46827       0.40413
    44    H    4  S      Ryd( 2S)     0.00045       0.75121
    45    H    4  px     Ryd( 2p)     0.00052       2.71392
    46    H    4  py     Ryd( 2p)     0.00132       3.09215
    47    H    4  pz     Ryd( 2p)     0.00108       2.93232

    48    H    5  S      Val( 1S)     0.46455       0.41545
    49    H    5  S      Ryd( 2S)     0.00064       0.78684
    50    H    5  px     Ryd( 2p)     0.00157       3.29997
    51    H    5  py     Ryd( 2p)     0.00068       2.73968
    52    H    5  pz     Ryd( 2p)     0.00076       2.73150

    53    H    6  S      Val( 1S)     0.46869       0.42610
    54    H    6  S      Ryd( 2S)     0.00056       0.77279
    55    H    6  px     Ryd( 2p)     0.00060       2.75200
    56    H    6  py     Ryd( 2p)     0.00086       2.70734
    57    H    6  pz     Ryd( 2p)     0.00140       3.34553

    58    H    7  S      Val( 1S)     0.47408       0.42035
    59    H    7  S      Ryd( 2S)     0.00099       0.83641
    60    H    7  px     Ryd( 2p)     0.00149       3.26632
    61    H    7  py     Ryd( 2p)     0.00081       2.64433
    62    H    7  pz     Ryd( 2p)     0.00061       2.91495

    63    H    8  S      Val( 1S)     0.47244       0.33541
    64    H    8  S      Ryd( 2S)     0.00088       0.73608
    65    H    8  px     Ryd( 2p)     0.00105       2.80801
    66    H    8  py     Ryd( 2p)     0.00138       3.14304
    67    H    8  pz     Ryd( 2p)     0.00058       2.61063

    68    H    9  S      Val( 1S)     0.51189       0.27198
    69    H    9  S      Ryd( 2S)     0.00105       0.67029
    70    H    9  px     Ryd( 2p)     0.00083       2.57526
    71    H    9  py     Ryd( 2p)     0.00088       2.75978
    72    H    9  pz     Ryd( 2p)     0.00137       3.14206


 Summary of Natural Population Analysis:                  
                                                          
                                       Natural Population 
                Natural  -----------------------------------------------
    Atom  No    Charge         Core      Valence    Rydberg      Total
 -----------------------------------------------------------------------
      O    1   -1.05988      1.99987     7.05050    0.00951     9.05988
      O    2   -1.05008      1.99986     7.04138    0.00883     9.05008
      O    3   -1.00777      1.99986     6.99716    0.01075     9.00777
      H    4    0.52836      0.00000     0.46827    0.00337     0.47164
      H    5    0.53180      0.00000     0.46455    0.00365     0.46820
      H    6    0.52787      0.00000     0.46869    0.00343     0.47213
      H    7    0.52203      0.00000     0.47408    0.00390     0.47797
      H    8    0.52368      0.00000     0.47244    0.00389     0.47632
      H    9    0.48399      0.00000     0.51189    0.00412     0.51601
 =======================================================================
   * Total *   -0.00000      5.99959    23.94895    0.05146    30.00000

                                 Natural Population      
 --------------------------------------------------------
   Core                       5.99959 ( 99.9932% of   6)
   Valence                   23.94895 ( 99.7873% of  24)
   Natural Minimal Basis     29.94854 ( 99.8285% of  30)
   Natural Rydberg Basis      0.05146 (  0.1715% of  30)
 --------------------------------------------------------

    Atom  No          Natural Electron Configuration
 ----------------------------------------------------------------------------
      O    1      [core]2S( 1.76)2p( 5.29)3d( 0.01)
      O    2      [core]2S( 1.76)2p( 5.28)3d( 0.01)
      O    3      [core]2S( 1.76)2p( 5.24)3d( 0.01)
      H    4            1S( 0.47)
      H    5            1S( 0.46)
      H    6            1S( 0.47)
      H    7            1S( 0.47)
      H    8            1S( 0.47)
      H    9            1S( 0.51)


 NBO analysis skipped by request.
 Leave Link  607 at Fri May 15 22:36:03 2020, MaxMem=   134217728 cpu:               0.6 elap:               0.2
 (Enter /home/soft/g16/l9999.exe)

 Test job not archived.
 1\1\GINC-MASTER\SP\RHF\6-31G(d,p)\H6O3\LIWEI01\15-May-2020\0\\#p hf/6-
 31g** 5d 7f pop=npa charge nosymm\\Atom number=9\\0,1\O,0,8.392325,-11
 .812941,-11.200483\O,0,10.084912,-9.602997,-13.69441\O,0,9.473772,-7.9
 97188,-10.918041\H,0,8.175276,-12.537815,-10.614239\H,0,9.252154,-11.5
 141,-10.904475\H,0,9.837963,-9.877914,-14.577398\H,0,9.267108,-9.62837
 ,-13.197635\H,0,9.99752,-8.795627,-10.851588\H,0,9.62339,-7.542356,-10
 .089201\\Version=ES64L-G16RevA.03\HF=-242.1651505\RMSD=8.611e-09\Dipol
 e=0.1955954,-0.9583521,1.0667205\Quadrupole=3.3491724,36.2700683,-39.6
 192407,-20.4368486,17.8333185,1.092695\PG=C01 [X(H6O3)]\\@


 MAN IS THE MEASURE OF ALL THINGS.
  -- PROTAGORAS (5TH CENTURY B.C.)
 Job cpu time:       0 days  0 hours  0 minutes  5.3 seconds.
 Elapsed time:       0 days  0 hours  0 minutes  1.6 seconds.
 File lengths (MBytes):  RWF=     72 Int=      0 D2E=      0 Chk=      8 Scr=      8
 Normal termination of Gaussian 16 at Fri May 15 22:36:03 2020.
