Atom number=21                                                          
SP        RHF                                                         6-31G(d,p)          
Number of atoms                            I               21
Info1-9                                    I   N=           9
         107         106           0           0           0         111
           1           1           2
Full Title                                 C   N=           2
Atom number=21          
Route                                      C   N=           4
#p hf/6-31g** 5d 7f pop=npa charge nosymm       
Charge                                     I                0
Multiplicity                               I                1
Number of electrons                        I               70
Number of alpha electrons                  I               35
Number of beta electrons                   I               35
Number of basis functions                  I              168
Number of independent functions            I              168
Number of point charges in /Mol/           I                0
Number of translation vectors              I                0
Atomic numbers                             I   N=          21
           8           8           8           8           8           8
           8           1           1           1           1           1
           1           1           1           1           1           1
           1           1           1
Nuclear charges                            R   N=          21
  8.00000000E+00  8.00000000E+00  8.00000000E+00  8.00000000E+00  8.00000000E+00
  8.00000000E+00  8.00000000E+00  1.00000000E+00  1.00000000E+00  1.00000000E+00
  1.00000000E+00  1.00000000E+00  1.00000000E+00  1.00000000E+00  1.00000000E+00
  1.00000000E+00  1.00000000E+00  1.00000000E+00  1.00000000E+00  1.00000000E+00
  1.00000000E+00
Current cartesian coordinates              R   N=          63
  1.58591958E+01 -2.23232232E+01 -2.11658453E+01  1.64278541E+01 -2.65870709E+01
 -1.80414289E+01  1.05265153E+01 -2.41129828E+01 -2.02839555E+01  1.31641969E+01
 -1.74757998E+01 -1.94156226E+01  1.31196920E+01 -2.23542903E+01 -1.58189805E+01
  1.66319577E+01 -2.34815044E+01 -1.22781062E+01  7.95719829E+00 -2.51911925E+01
 -1.42761212E+01  1.54490326E+01 -2.36930366E+01 -2.00580047E+01  1.74840371E+01
 -2.17584956E+01 -2.06064713E+01  1.55337188E+01 -2.59511213E+01 -1.66033699E+01
  1.61624534E+01 -2.83754831E+01 -1.79860013E+01  8.77344660E+00 -2.42410798E+01
 -1.98570305E+01  1.13076525E+01 -2.34423738E+01 -1.87966655E+01  1.31811270E+01
 -1.86043839E+01 -2.08291075E+01  1.45213642E+01 -1.63243462E+01 -1.97383746E+01
  1.41645820E+01 -2.28487768E+01 -1.44277169E+01  1.38091000E+01 -2.07734569E+01
 -1.63645142E+01  1.71126681E+01 -2.22023601E+01 -1.10929323E+01  1.68931991E+01
 -2.50386841E+01 -1.13955739E+01  9.38018663E+00 -2.40850659E+01 -1.41227926E+01
  8.66153702E+00 -2.67619008E+01 -1.48317423E+01
Number of symbols in /Mol/                 I                0
Force Field                                I                0
Atom Types                                 C   N=          21
                                                            
                                                            
                                                            
                                                            
            
Int Atom Types                             I   N=          21
           0           0           0           0           0           0
           0           0           0           0           0           0
           0           0           0           0           0           0
           0           0           0
MM charges                                 R   N=          21
  0.00000000E+00  0.00000000E+00  0.00000000E+00  0.00000000E+00  0.00000000E+00
  0.00000000E+00  0.00000000E+00  0.00000000E+00  0.00000000E+00  0.00000000E+00
  0.00000000E+00  0.00000000E+00  0.00000000E+00  0.00000000E+00  0.00000000E+00
  0.00000000E+00  0.00000000E+00  0.00000000E+00  0.00000000E+00  0.00000000E+00
  0.00000000E+00
Integer atomic weights                     I   N=          21
          16          16          16          16          16          16
          16           1           1           1           1           1
           1           1           1           1           1           1
           1           1           1
Real atomic weights                        R   N=          21
  1.59949146E+01  1.59949146E+01  1.59949146E+01  1.59949146E+01  1.59949146E+01
  1.59949146E+01  1.59949146E+01  1.00782504E+00  1.00782504E+00  1.00782504E+00
  1.00782504E+00  1.00782504E+00  1.00782504E+00  1.00782504E+00  1.00782504E+00
  1.00782504E+00  1.00782504E+00  1.00782504E+00  1.00782504E+00  1.00782504E+00
  1.00782504E+00
Atom fragment info                         I   N=          21
           0           0           0           0           0           0
           0           0           0           0           0           0
           0           0           0           0           0           0
           0           0           0
Atom residue num                           I   N=          21
           0           0           0           0           0           0
           0           0           0           0           0           0
           0           0           0           0           0           0
           0           0           0
Nuclear spins                              I   N=          21
           0           0           0           0           0           0
           0           1           1           1           1           1
           1           1           1           1           1           1
           1           1           1
Nuclear ZEff                               R   N=          21
 -5.60000000E+00 -5.60000000E+00 -5.60000000E+00 -5.60000000E+00 -5.60000000E+00
 -5.60000000E+00 -5.60000000E+00 -1.00000000E+00 -1.00000000E+00 -1.00000000E+00
 -1.00000000E+00 -1.00000000E+00 -1.00000000E+00 -1.00000000E+00 -1.00000000E+00
 -1.00000000E+00 -1.00000000E+00 -1.00000000E+00 -1.00000000E+00 -1.00000000E+00
 -1.00000000E+00
Nuclear ZNuc                               R   N=          21
  8.00000000E+00  8.00000000E+00  8.00000000E+00  8.00000000E+00  8.00000000E+00
  8.00000000E+00  8.00000000E+00  1.00000000E+00  1.00000000E+00  1.00000000E+00
  1.00000000E+00  1.00000000E+00  1.00000000E+00  1.00000000E+00  1.00000000E+00
  1.00000000E+00  1.00000000E+00  1.00000000E+00  1.00000000E+00  1.00000000E+00
  1.00000000E+00
Nuclear QMom                               R   N=          21
  0.00000000E+00  0.00000000E+00  0.00000000E+00  0.00000000E+00  0.00000000E+00
  0.00000000E+00  0.00000000E+00  0.00000000E+00  0.00000000E+00  0.00000000E+00
  0.00000000E+00  0.00000000E+00  0.00000000E+00  0.00000000E+00  0.00000000E+00
  0.00000000E+00  0.00000000E+00  0.00000000E+00  0.00000000E+00  0.00000000E+00
  0.00000000E+00
Nuclear GFac                               R   N=          21
  0.00000000E+00  0.00000000E+00  0.00000000E+00  0.00000000E+00  0.00000000E+00
  0.00000000E+00  0.00000000E+00  2.79284600E+00  2.79284600E+00  2.79284600E+00
  2.79284600E+00  2.79284600E+00  2.79284600E+00  2.79284600E+00  2.79284600E+00
  2.79284600E+00  2.79284600E+00  2.79284600E+00  2.79284600E+00  2.79284600E+00
  2.79284600E+00
MicOpt                                     I   N=          21
          -1          -1          -1          -1          -1          -1
          -1          -1          -1          -1          -1          -1
          -1          -1          -1          -1          -1          -1
          -1          -1          -1
Number of residues                         I                0
Number of secondary structures             I                0
Number of contracted shells                I               70
Number of primitive shells                 I              147
Pure/Cartesian d shells                    I                0
Pure/Cartesian f shells                    I                0
Highest angular momentum                   I                2
Largest degree of contraction              I                6
Shell types                                I   N=          70
           0          -1          -1          -2           0          -1
          -1          -2           0          -1          -1          -2
           0          -1          -1          -2           0          -1
          -1          -2           0          -1          -1          -2
           0          -1          -1          -2           0           0
           1           0           0           1           0           0
           1           0           0           1           0           0
           1           0           0           1           0           0
           1           0           0           1           0           0
           1           0           0           1           0           0
           1           0           0           1           0           0
           1           0           0           1
Number of primitives per shell             I   N=          70
           6           3           1           1           6           3
           1           1           6           3           1           1
           6           3           1           1           6           3
           1           1           6           3           1           1
           6           3           1           1           3           1
           1           3           1           1           3           1
           1           3           1           1           3           1
           1           3           1           1           3           1
           1           3           1           1           3           1
           1           3           1           1           3           1
           1           3           1           1           3           1
           1           3           1           1
Shell to atom map                          I   N=          70
           1           1           1           1           2           2
           2           2           3           3           3           3
           4           4           4           4           5           5
           5           5           6           6           6           6
           7           7           7           7           8           8
           8           9           9           9          10          10
          10          11          11          11          12          12
          12          13          13          13          14          14
          14          15          15          15          16          16
          16          17          17          17          18          18
          18          19          19          19          20          20
          20          21          21          21
Primitive exponents                        R   N=         147
  5.48467166E+03  8.25234946E+02  1.88046958E+02  5.29645000E+01  1.68975704E+01
  5.79963534E+00  1.55396162E+01  3.59993359E+00  1.01376175E+00  2.70005823E-01
  8.00000000E-01  5.48467166E+03  8.25234946E+02  1.88046958E+02  5.29645000E+01
  1.68975704E+01  5.79963534E+00  1.55396162E+01  3.59993359E+00  1.01376175E+00
  2.70005823E-01  8.00000000E-01  5.48467166E+03  8.25234946E+02  1.88046958E+02
  5.29645000E+01  1.68975704E+01  5.79963534E+00  1.55396162E+01  3.59993359E+00
  1.01376175E+00  2.70005823E-01  8.00000000E-01  5.48467166E+03  8.25234946E+02
  1.88046958E+02  5.29645000E+01  1.68975704E+01  5.79963534E+00  1.55396162E+01
  3.59993359E+00  1.01376175E+00  2.70005823E-01  8.00000000E-01  5.48467166E+03
  8.25234946E+02  1.88046958E+02  5.29645000E+01  1.68975704E+01  5.79963534E+00
  1.55396162E+01  3.59993359E+00  1.01376175E+00  2.70005823E-01  8.00000000E-01
  5.48467166E+03  8.25234946E+02  1.88046958E+02  5.29645000E+01  1.68975704E+01
  5.79963534E+00  1.55396162E+01  3.59993359E+00  1.01376175E+00  2.70005823E-01
  8.00000000E-01  5.48467166E+03  8.25234946E+02  1.88046958E+02  5.29645000E+01
  1.68975704E+01  5.79963534E+00  1.55396162E+01  3.59993359E+00  1.01376175E+00
  2.70005823E-01  8.00000000E-01  1.87311370E+01  2.82539436E+00  6.40121692E-01
  1.61277759E-01  1.10000000E+00  1.87311370E+01  2.82539436E+00  6.40121692E-01
  1.61277759E-01  1.10000000E+00  1.87311370E+01  2.82539436E+00  6.40121692E-01
  1.61277759E-01  1.10000000E+00  1.87311370E+01  2.82539436E+00  6.40121692E-01
  1.61277759E-01  1.10000000E+00  1.87311370E+01  2.82539436E+00  6.40121692E-01
  1.61277759E-01  1.10000000E+00  1.87311370E+01  2.82539436E+00  6.40121692E-01
  1.61277759E-01  1.10000000E+00  1.87311370E+01  2.82539436E+00  6.40121692E-01
  1.61277759E-01  1.10000000E+00  1.87311370E+01  2.82539436E+00  6.40121692E-01
  1.61277759E-01  1.10000000E+00  1.87311370E+01  2.82539436E+00  6.40121692E-01
  1.61277759E-01  1.10000000E+00  1.87311370E+01  2.82539436E+00  6.40121692E-01
  1.61277759E-01  1.10000000E+00  1.87311370E+01  2.82539436E+00  6.40121692E-01
  1.61277759E-01  1.10000000E+00  1.87311370E+01  2.82539436E+00  6.40121692E-01
  1.61277759E-01  1.10000000E+00  1.87311370E+01  2.82539436E+00  6.40121692E-01
  1.61277759E-01  1.10000000E+00  1.87311370E+01  2.82539436E+00  6.40121692E-01
  1.61277759E-01  1.10000000E+00
Contraction coefficients                   R   N=         147
  1.83107443E-03  1.39501722E-02  6.84450781E-02  2.32714336E-01  4.70192898E-01
  3.58520853E-01 -1.10777550E-01 -1.48026263E-01  1.13076702E+00  1.00000000E+00
  1.00000000E+00  1.83107443E-03  1.39501722E-02  6.84450781E-02  2.32714336E-01
  4.70192898E-01  3.58520853E-01 -1.10777550E-01 -1.48026263E-01  1.13076702E+00
  1.00000000E+00  1.00000000E+00  1.83107443E-03  1.39501722E-02  6.84450781E-02
  2.32714336E-01  4.70192898E-01  3.58520853E-01 -1.10777550E-01 -1.48026263E-01
  1.13076702E+00  1.00000000E+00  1.00000000E+00  1.83107443E-03  1.39501722E-02
  6.84450781E-02  2.32714336E-01  4.70192898E-01  3.58520853E-01 -1.10777550E-01
 -1.48026263E-01  1.13076702E+00  1.00000000E+00  1.00000000E+00  1.83107443E-03
  1.39501722E-02  6.84450781E-02  2.32714336E-01  4.70192898E-01  3.58520853E-01
 -1.10777550E-01 -1.48026263E-01  1.13076702E+00  1.00000000E+00  1.00000000E+00
  1.83107443E-03  1.39501722E-02  6.84450781E-02  2.32714336E-01  4.70192898E-01
  3.58520853E-01 -1.10777550E-01 -1.48026263E-01  1.13076702E+00  1.00000000E+00
  1.00000000E+00  1.83107443E-03  1.39501722E-02  6.84450781E-02  2.32714336E-01
  4.70192898E-01  3.58520853E-01 -1.10777550E-01 -1.48026263E-01  1.13076702E+00
  1.00000000E+00  1.00000000E+00  3.34946043E-02  2.34726953E-01  8.13757326E-01
  1.00000000E+00  1.00000000E+00  3.34946043E-02  2.34726953E-01  8.13757326E-01
  1.00000000E+00  1.00000000E+00  3.34946043E-02  2.34726953E-01  8.13757326E-01
  1.00000000E+00  1.00000000E+00  3.34946043E-02  2.34726953E-01  8.13757326E-01
  1.00000000E+00  1.00000000E+00  3.34946043E-02  2.34726953E-01  8.13757326E-01
  1.00000000E+00  1.00000000E+00  3.34946043E-02  2.34726953E-01  8.13757326E-01
  1.00000000E+00  1.00000000E+00  3.34946043E-02  2.34726953E-01  8.13757326E-01
  1.00000000E+00  1.00000000E+00  3.34946043E-02  2.34726953E-01  8.13757326E-01
  1.00000000E+00  1.00000000E+00  3.34946043E-02  2.34726953E-01  8.13757326E-01
  1.00000000E+00  1.00000000E+00  3.34946043E-02  2.34726953E-01  8.13757326E-01
  1.00000000E+00  1.00000000E+00  3.34946043E-02  2.34726953E-01  8.13757326E-01
  1.00000000E+00  1.00000000E+00  3.34946043E-02  2.34726953E-01  8.13757326E-01
  1.00000000E+00  1.00000000E+00  3.34946043E-02  2.34726953E-01  8.13757326E-01
  1.00000000E+00  1.00000000E+00  3.34946043E-02  2.34726953E-01  8.13757326E-01
  1.00000000E+00  1.00000000E+00
P(S=P) Contraction coefficients            R   N=         147
  0.00000000E+00  0.00000000E+00  0.00000000E+00  0.00000000E+00  0.00000000E+00
  0.00000000E+00  7.08742682E-02  3.39752839E-01  7.27158577E-01  1.00000000E+00
  0.00000000E+00  0.00000000E+00  0.00000000E+00  0.00000000E+00  0.00000000E+00
  0.00000000E+00  0.00000000E+00  7.08742682E-02  3.39752839E-01  7.27158577E-01
  1.00000000E+00  0.00000000E+00  0.00000000E+00  0.00000000E+00  0.00000000E+00
  0.00000000E+00  0.00000000E+00  0.00000000E+00  7.08742682E-02  3.39752839E-01
  7.27158577E-01  1.00000000E+00  0.00000000E+00  0.00000000E+00  0.00000000E+00
  0.00000000E+00  0.00000000E+00  0.00000000E+00  0.00000000E+00  7.08742682E-02
  3.39752839E-01  7.27158577E-01  1.00000000E+00  0.00000000E+00  0.00000000E+00
  0.00000000E+00  0.00000000E+00  0.00000000E+00  0.00000000E+00  0.00000000E+00
  7.08742682E-02  3.39752839E-01  7.27158577E-01  1.00000000E+00  0.00000000E+00
  0.00000000E+00  0.00000000E+00  0.00000000E+00  0.00000000E+00  0.00000000E+00
  0.00000000E+00  7.08742682E-02  3.39752839E-01  7.27158577E-01  1.00000000E+00
  0.00000000E+00  0.00000000E+00  0.00000000E+00  0.00000000E+00  0.00000000E+00
  0.00000000E+00  0.00000000E+00  7.08742682E-02  3.39752839E-01  7.27158577E-01
  1.00000000E+00  0.00000000E+00  0.00000000E+00  0.00000000E+00  0.00000000E+00
  0.00000000E+00  0.00000000E+00  0.00000000E+00  0.00000000E+00  0.00000000E+00
  0.00000000E+00  0.00000000E+00  0.00000000E+00  0.00000000E+00  0.00000000E+00
  0.00000000E+00  0.00000000E+00  0.00000000E+00  0.00000000E+00  0.00000000E+00
  0.00000000E+00  0.00000000E+00  0.00000000E+00  0.00000000E+00  0.00000000E+00
  0.00000000E+00  0.00000000E+00  0.00000000E+00  0.00000000E+00  0.00000000E+00
  0.00000000E+00  0.00000000E+00  0.00000000E+00  0.00000000E+00  0.00000000E+00
  0.00000000E+00  0.00000000E+00  0.00000000E+00  0.00000000E+00  0.00000000E+00
  0.00000000E+00  0.00000000E+00  0.00000000E+00  0.00000000E+00  0.00000000E+00
  0.00000000E+00  0.00000000E+00  0.00000000E+00  0.00000000E+00  0.00000000E+00
  0.00000000E+00  0.00000000E+00  0.00000000E+00  0.00000000E+00  0.00000000E+00
  0.00000000E+00  0.00000000E+00  0.00000000E+00  0.00000000E+00  0.00000000E+00
  0.00000000E+00  0.00000000E+00  0.00000000E+00  0.00000000E+00  0.00000000E+00
  0.00000000E+00  0.00000000E+00  0.00000000E+00  0.00000000E+00  0.00000000E+00
  0.00000000E+00  0.00000000E+00
Coordinates of each shell                  R   N=         210
  1.58591958E+01 -2.23232232E+01 -2.11658453E+01  1.58591958E+01 -2.23232232E+01
 -2.11658453E+01  1.58591958E+01 -2.23232232E+01 -2.11658453E+01  1.58591958E+01
 -2.23232232E+01 -2.11658453E+01  1.64278541E+01 -2.65870709E+01 -1.80414289E+01
  1.64278541E+01 -2.65870709E+01 -1.80414289E+01  1.64278541E+01 -2.65870709E+01
 -1.80414289E+01  1.64278541E+01 -2.65870709E+01 -1.80414289E+01  1.05265153E+01
 -2.41129828E+01 -2.02839555E+01  1.05265153E+01 -2.41129828E+01 -2.02839555E+01
  1.05265153E+01 -2.41129828E+01 -2.02839555E+01  1.05265153E+01 -2.41129828E+01
 -2.02839555E+01  1.31641969E+01 -1.74757998E+01 -1.94156226E+01  1.31641969E+01
 -1.74757998E+01 -1.94156226E+01  1.31641969E+01 -1.74757998E+01 -1.94156226E+01
  1.31641969E+01 -1.74757998E+01 -1.94156226E+01  1.31196920E+01 -2.23542903E+01
 -1.58189805E+01  1.31196920E+01 -2.23542903E+01 -1.58189805E+01  1.31196920E+01
 -2.23542903E+01 -1.58189805E+01  1.31196920E+01 -2.23542903E+01 -1.58189805E+01
  1.66319577E+01 -2.34815044E+01 -1.22781062E+01  1.66319577E+01 -2.34815044E+01
 -1.22781062E+01  1.66319577E+01 -2.34815044E+01 -1.22781062E+01  1.66319577E+01
 -2.34815044E+01 -1.22781062E+01  7.95719829E+00 -2.51911925E+01 -1.42761212E+01
  7.95719829E+00 -2.51911925E+01 -1.42761212E+01  7.95719829E+00 -2.51911925E+01
 -1.42761212E+01  7.95719829E+00 -2.51911925E+01 -1.42761212E+01  1.54490326E+01
 -2.36930366E+01 -2.00580047E+01  1.54490326E+01 -2.36930366E+01 -2.00580047E+01
  1.54490326E+01 -2.36930366E+01 -2.00580047E+01  1.74840371E+01 -2.17584956E+01
 -2.06064713E+01  1.74840371E+01 -2.17584956E+01 -2.06064713E+01  1.74840371E+01
 -2.17584956E+01 -2.06064713E+01  1.55337188E+01 -2.59511213E+01 -1.66033699E+01
  1.55337188E+01 -2.59511213E+01 -1.66033699E+01  1.55337188E+01 -2.59511213E+01
 -1.66033699E+01  1.61624534E+01 -2.83754831E+01 -1.79860013E+01  1.61624534E+01
 -2.83754831E+01 -1.79860013E+01  1.61624534E+01 -2.83754831E+01 -1.79860013E+01
  8.77344660E+00 -2.42410798E+01 -1.98570305E+01  8.77344660E+00 -2.42410798E+01
 -1.98570305E+01  8.77344660E+00 -2.42410798E+01 -1.98570305E+01  1.13076525E+01
 -2.34423738E+01 -1.87966655E+01  1.13076525E+01 -2.34423738E+01 -1.87966655E+01
  1.13076525E+01 -2.34423738E+01 -1.87966655E+01  1.31811270E+01 -1.86043839E+01
 -2.08291075E+01  1.31811270E+01 -1.86043839E+01 -2.08291075E+01  1.31811270E+01
 -1.86043839E+01 -2.08291075E+01  1.45213642E+01 -1.63243462E+01 -1.97383746E+01
  1.45213642E+01 -1.63243462E+01 -1.97383746E+01  1.45213642E+01 -1.63243462E+01
 -1.97383746E+01  1.41645820E+01 -2.28487768E+01 -1.44277169E+01  1.41645820E+01
 -2.28487768E+01 -1.44277169E+01  1.41645820E+01 -2.28487768E+01 -1.44277169E+01
  1.38091000E+01 -2.07734569E+01 -1.63645142E+01  1.38091000E+01 -2.07734569E+01
 -1.63645142E+01  1.38091000E+01 -2.07734569E+01 -1.63645142E+01  1.71126681E+01
 -2.22023601E+01 -1.10929323E+01  1.71126681E+01 -2.22023601E+01 -1.10929323E+01
  1.71126681E+01 -2.22023601E+01 -1.10929323E+01  1.68931991E+01 -2.50386841E+01
 -1.13955739E+01  1.68931991E+01 -2.50386841E+01 -1.13955739E+01  1.68931991E+01
 -2.50386841E+01 -1.13955739E+01  9.38018663E+00 -2.40850659E+01 -1.41227926E+01
  9.38018663E+00 -2.40850659E+01 -1.41227926E+01  9.38018663E+00 -2.40850659E+01
 -1.41227926E+01  8.66153702E+00 -2.67619008E+01 -1.48317423E+01  8.66153702E+00
 -2.67619008E+01 -1.48317423E+01  8.66153702E+00 -2.67619008E+01 -1.48317423E+01
Num ILSW                                   I              100
ILSW                                       I   N=         100
           0           0           0           0           2           0
           0           0           0           0           0          -1
           5           0           0           0           0           0
           0           0           0           0           0           0
           1           1           0           0           0           0
           0           0      100000           0          -1           0
           0           0           0           0           0           0
           0           0           0           1           0           0
           0 -2000000000           1           0           0           0
           0           0           4          52           0           0
           0           1           0           0           0           0
           0           0           0          21           0           1
           0           0           0           0           0           0
           0           0           0           0           0           0
           0           0           0           0           0           0
           0           0           0           0           0           0
           0           0           0           0
Num RLSW                                   I               52
RLSW                                       R   N=          52
  1.00000000E+00  1.00000000E+00  1.00000000E+00  1.00000000E+00  1.00000000E+00
  0.00000000E+00  0.00000000E+00  1.00000000E+00  0.00000000E+00  0.00000000E+00
  0.00000000E+00  0.00000000E+00  1.00000000E+00  0.00000000E+00  0.00000000E+00
  0.00000000E+00  0.00000000E+00  1.00000000E+00  0.00000000E+00  0.00000000E+00
  0.00000000E+00  0.00000000E+00  1.00000000E+00  0.00000000E+00  0.00000000E+00
  0.00000000E+00  0.00000000E+00  1.00000000E+00  0.00000000E+00  0.00000000E+00
  0.00000000E+00  0.00000000E+00  1.00000000E+00  0.00000000E+00  0.00000000E+00
  0.00000000E+00  0.00000000E+00  0.00000000E+00  1.00000000E+00  1.00000000E+00
  0.00000000E+00  1.00000000E+00  0.00000000E+00  0.00000000E+00  0.00000000E+00
  0.00000000E+00  0.00000000E+00  0.00000000E+00  0.00000000E+00  0.00000000E+00
  0.00000000E+00  0.00000000E+00
MxBond                                     I                2
NBond                                      I   N=          21
           2           2           2           2           2           2
           2           1           1           1           1           1
           1           1           1           1           1           1
           1           1           1
IBond                                      I   N=          42
           8           9          10          11          12          13
          14          15          16          17          18          19
          20          21           1           0           1           0
           2           0           2           0           3           0
           3           0           4           0           4           0
           5           0           5           0           6           0
           6           0           7           0           7           0
RBond                                      R   N=          42
  1.00000000E+00  1.00000000E+00  1.00000000E+00  1.00000000E+00  1.00000000E+00
  1.00000000E+00  1.00000000E+00  1.00000000E+00  1.00000000E+00  1.00000000E+00
  1.00000000E+00  1.00000000E+00  1.00000000E+00  1.00000000E+00  1.00000000E+00
  0.00000000E+00  1.00000000E+00  0.00000000E+00  1.00000000E+00  0.00000000E+00
  1.00000000E+00  0.00000000E+00  1.00000000E+00  0.00000000E+00  1.00000000E+00
  0.00000000E+00  1.00000000E+00  0.00000000E+00  1.00000000E+00  0.00000000E+00
  1.00000000E+00  0.00000000E+00  1.00000000E+00  0.00000000E+00  1.00000000E+00
  0.00000000E+00  1.00000000E+00  0.00000000E+00  1.00000000E+00  0.00000000E+00
  1.00000000E+00  0.00000000E+00
Virial Ratio                               R      2.024293613008589E+00
SCF Energy                                 R     -5.442704811757153E+02
Total Energy                               R     -5.442704811757153E+02
RMS Density                                R      5.593241751005231E-09
Job Status                                 I                1
Nuclear derivative order                   I                0
External E-field                           R   N=          35
  0.00000000E+00  0.00000000E+00  0.00000000E+00  0.00000000E+00  0.00000000E+00
  0.00000000E+00  0.00000000E+00  0.00000000E+00  0.00000000E+00  0.00000000E+00
  0.00000000E+00  0.00000000E+00  0.00000000E+00  0.00000000E+00  0.00000000E+00
  0.00000000E+00  0.00000000E+00  0.00000000E+00  0.00000000E+00  0.00000000E+00
  0.00000000E+00  0.00000000E+00  0.00000000E+00  0.00000000E+00  0.00000000E+00
  0.00000000E+00  0.00000000E+00  0.00000000E+00  0.00000000E+00  0.00000000E+00
  0.00000000E+00  0.00000000E+00  0.00000000E+00  0.00000000E+00  0.00000000E+00
IOpCl                                      I                0
IROHF                                      I                0
Alpha Orbital Energies                     R   N=         168
 -2.06623345E+01 -2.06080674E+01 -2.05888545E+01 -2.05521311E+01 -2.05508684E+01
 -2.05489916E+01 -2.05251962E+01 -1.44757124E+00 -1.39407609E+00 -1.37788492E+00
 -1.33577667E+00 -1.33552604E+00 -1.33040188E+00 -1.31035768E+00 -8.08414174E-01
 -7.67019749E-01 -7.51908975E-01 -7.03569077E-01 -6.99726896E-01 -6.94539645E-01
 -6.80625380E-01 -6.73819277E-01 -6.27972271E-01 -6.12261700E-01 -5.94072994E-01
 -5.77373598E-01 -5.69866398E-01 -5.66511023E-01 -5.46350619E-01 -5.42543128E-01
 -5.31461957E-01 -5.02246450E-01 -4.95459148E-01 -4.82870457E-01 -4.71352918E-01
  1.17759145E-01  1.84923074E-01  2.18358339E-01  2.25924821E-01  2.48593088E-01
  2.93843008E-01  3.08928673E-01  3.17891805E-01  3.35584003E-01  3.59956478E-01
  3.70322119E-01  4.21485116E-01  4.32606271E-01  4.66061907E-01  8.90282230E-01
  9.34722821E-01  9.69305460E-01  9.77507691E-01  9.99202241E-01  1.01365077E+00
  1.02174484E+00  1.04229677E+00  1.05893516E+00  1.07118539E+00  1.07925273E+00
  1.09603707E+00  1.10635243E+00  1.10815557E+00  1.12908431E+00  1.13608639E+00
  1.14905631E+00  1.15173026E+00  1.16821569E+00  1.18386428E+00  1.20920186E+00
  1.22986678E+00  1.23187289E+00  1.24969789E+00  1.26676917E+00  1.29207765E+00
  1.31308989E+00  1.31841883E+00  1.33084490E+00  1.34043623E+00  1.34748035E+00
  1.40263439E+00  1.41305821E+00  1.43904336E+00  1.44786627E+00  1.55425736E+00
  1.61129650E+00  1.64780215E+00  1.67296856E+00  1.68523444E+00  1.70087195E+00
  1.72561637E+00  1.74684080E+00  1.76281482E+00  1.77951522E+00  1.80298130E+00
  1.81137666E+00  1.81218114E+00  1.82301212E+00  1.83251995E+00  1.83516634E+00
  1.84029694E+00  1.84742190E+00  1.85206791E+00  1.87771344E+00  1.91854163E+00
  1.92859388E+00  1.94570656E+00  1.95015432E+00  1.96820283E+00  1.98251034E+00
  2.05585327E+00  2.12052869E+00  2.46546457E+00  2.49307376E+00  2.52395148E+00
  2.54541341E+00  2.58241308E+00  2.59526538E+00  2.59931439E+00  2.60228471E+00
  2.60862933E+00  2.61770576E+00  2.62280594E+00  2.65990666E+00  2.67628304E+00
  2.71360246E+00  2.73827052E+00  2.78122669E+00  2.81937212E+00  2.83292493E+00
  2.84321683E+00  2.86470632E+00  2.87418701E+00  2.90715406E+00  2.93689359E+00
  2.94400213E+00  2.95466207E+00  2.98099623E+00  2.98740607E+00  2.99172941E+00
  3.00748798E+00  3.01169392E+00  3.01829144E+00  3.02172421E+00  3.02818692E+00
  3.03594468E+00  3.04715487E+00  3.28551753E+00  3.34699651E+00  3.38611763E+00
  3.39749326E+00  3.41988179E+00  3.42949923E+00  3.44038643E+00  3.66541070E+00
  3.74484040E+00  3.77731160E+00  3.78556950E+00  3.81955383E+00  3.82396562E+00
  3.84076212E+00  3.85144011E+00  3.93845149E+00  3.94591048E+00  3.97432669E+00
  4.01586298E+00  4.02879773E+00  4.03579513E+00
Alpha MO coefficients                      R   N=       28224
 -3.47699084E-06 -1.12773137E-05  2.28270712E-06 -1.40952262E-06 -1.53285259E-06
  3.49992639E-05 -1.37271782E-05 -1.17787709E-05  2.09115846E-05  2.63248581E-06