#INFO: **** input file is /home/liwei01/wsr/dftpart/test_2body/w32/gfea_c8.py ****
from dftpart import gfea3
from pyscf import lib

par = 8
with lib.with_omp_threads(par):
    fr0 = gfea3.GFEA()
    fr0.inputstyle = 'frg'
    fr0.method = ['hf', '6-31gss','charge']
    fr0.gjfname = 'w32'
    fr0.output = 'w32'
    fr0.verbose = 9
    fr0.showinter = True
    #fr0.do_deriv = True
    fr0.kernel()

#INFO: ******************** input file end ********************


System: uname_result(system='Linux', node='master', release='3.10.0-693.el7.x86_64', version='#1 SMP Tue Aug 22 21:09:27 UTC 2017', machine='x86_64', processor='x86_64')  Threads 8
Python 3.7.6 (default, Jan  8 2020, 19:59:22) 
[GCC 7.3.0]
numpy 1.18.1  scipy 1.4.1
Date: Tue Jun 16 20:58:08 2020
PySCF version 1.6.1
PySCF path  /home/liwei01/zcheng/pyscf/pyscf
GIT HEAD      ref: refs/heads/master
GIT master branch  3adc7fd25839fe674469a52b764c3661e32d7318

[CONFIG] DEBUG = False
[CONFIG] MAX_MEMORY = 4000
[CONFIG] TMPDIR = .
[CONFIG] UNIT = angstrom
[CONFIG] VERBOSE = 3
[CONFIG] conf_file = None
[INPUT] verbose = 9
[INPUT] max_memory = 4000 
[INPUT] num. atoms = 12
[INPUT] num. electrons = 40
[INPUT] charge = 0
[INPUT] spin (= nelec alpha-beta = 2S) = 0
[INPUT] symmetry False subgroup None
[INPUT] Mole.unit = angstrom
[INPUT]  1 O     10.706017000000 -10.848862000000 -10.091512000000 AA   20.231440014938 -20.501377943201 -19.070193862762 Bohr
[INPUT]  2 O     13.457564000000 -11.773284000000  -9.774029000000 AA   25.431110263806 -22.248282346724 -18.470237943557 Bohr
[INPUT]  3 O     12.996031000000 -14.713850000000 -11.210036000000 AA   24.558939296357 -27.805146737932 -21.183897886515 Bohr
[INPUT]  4 O     12.813764000000 -13.018467000000  -7.366324000000 AA   24.214504584811 -24.601337191688 -13.920334904811 Bohr
[INPUT]  5 H     11.521407000000 -11.320280000000  -9.920812000000 AA   21.772303799647 -21.392228853391 -18.747617613299 Bohr
[INPUT]  6 H     10.567797000000 -10.316883000000  -9.307849000000 AA   19.970242070000 -19.496083329181 -17.589285418807 Bohr
[INPUT]  7 H     13.908886000000 -10.996207000000 -10.103715000000 AA   26.283985237797 -20.779819639025 -19.093254190660 Bohr
[INPUT]  8 H     14.150775000000 -12.423635000000  -9.661183000000 AA   26.741089200342 -23.477267621561 -18.256989909304 Bohr
[INPUT]  9 H     12.286420000000 -15.161884000000 -10.749655000000 AA   23.217968851379 -28.651808292425 -20.313903883561 Bohr
[INPUT] 10 H     13.635659000000 -14.512360000000 -10.527021000000 AA   25.767661037961 -27.424385821093 -19.893186597545 Bohr
[INPUT] 11 H     12.481900000000 -12.417138000000  -6.699613000000 AA   23.587372514209 -23.464990070930 -12.660433710576 Bohr
[INPUT] 12 H     12.655150000000 -12.568166000000  -8.195965000000 AA   23.914767565290 -23.750391628070 -15.488129176521 Bohr
[INPUT] ---------------- BASIS SET ---------------- 
[INPUT] l, kappa, [nprim/nctr], expnt,             c_1 c_2 ...
[INPUT] H
[INPUT] 0    0    [3    /1   ]  18.731137         0.0334946
                                2.8253937         0.23472695
                                0.6401217         0.81375733
[INPUT] 0    0    [1    /1   ]  0.1612778            1
[INPUT] 1    0    [1    /1   ]  1.1                  1
[INPUT] O
[INPUT] 0    0    [6    /1   ]  5484.6717         0.0018311
                                825.23495         0.0139501
                                188.04696         0.0684451
                                52.9645           0.2327143
                                16.89757          0.470193
                                5.7996353         0.3585209
[INPUT] 0    0    [3    /1   ]  15.539616         -0.1107775
                                3.5999336         -0.1480263
                                1.0137618         1.130767
[INPUT] 0    0    [1    /1   ]  0.2700058            1
[INPUT] 1    0    [3    /1   ]  15.539616         0.0708743
                                3.5999336         0.3397528
                                1.0137618         0.7271586
[INPUT] 1    0    [1    /1   ]  0.2700058            1
[INPUT] 2    0    [1    /1   ]  0.8                  1

nuclear repulsion = 127.904073191712
number of shells = 48
number of NR pGTOs = 164
number of NR cGTOs = 96
basis = 6-31gss
ecp = {}
bas 0, expnt(s) = [5484.6717     825.23495    188.04696     52.9645      16.89757
    5.7996353]
bas 1, expnt(s) = [15.539616   3.5999336  1.0137618]
bas 2, expnt(s) = [0.2700058]
bas 3, expnt(s) = [15.539616   3.5999336  1.0137618]
bas 4, expnt(s) = [0.2700058]
bas 5, expnt(s) = [0.8]
bas 6, expnt(s) = [5484.6717     825.23495    188.04696     52.9645      16.89757
    5.7996353]
bas 7, expnt(s) = [15.539616   3.5999336  1.0137618]
bas 8, expnt(s) = [0.2700058]
bas 9, expnt(s) = [15.539616   3.5999336  1.0137618]
bas 10, expnt(s) = [0.2700058]
bas 11, expnt(s) = [0.8]
bas 12, expnt(s) = [5484.6717     825.23495    188.04696     52.9645      16.89757
    5.7996353]
bas 13, expnt(s) = [15.539616   3.5999336  1.0137618]
bas 14, expnt(s) = [0.2700058]
bas 15, expnt(s) = [15.539616   3.5999336  1.0137618]
bas 16, expnt(s) = [0.2700058]
bas 17, expnt(s) = [0.8]
bas 18, expnt(s) = [5484.6717     825.23495    188.04696     52.9645      16.89757
    5.7996353]
bas 19, expnt(s) = [15.539616   3.5999336  1.0137618]
bas 20, expnt(s) = [0.2700058]
bas 21, expnt(s) = [15.539616   3.5999336  1.0137618]
bas 22, expnt(s) = [0.2700058]
bas 23, expnt(s) = [0.8]
bas 24, expnt(s) = [18.731137   2.8253937  0.6401217]
bas 25, expnt(s) = [0.1612778]
bas 26, expnt(s) = [1.1]
bas 27, expnt(s) = [18.731137   2.8253937  0.6401217]
bas 28, expnt(s) = [0.1612778]
bas 29, expnt(s) = [1.1]
bas 30, expnt(s) = [18.731137   2.8253937  0.6401217]
bas 31, expnt(s) = [0.1612778]
bas 32, expnt(s) = [1.1]
bas 33, expnt(s) = [18.731137   2.8253937  0.6401217]
bas 34, expnt(s) = [0.1612778]
bas 35, expnt(s) = [1.1]
bas 36, expnt(s) = [18.731137   2.8253937  0.6401217]
bas 37, expnt(s) = [0.1612778]
bas 38, expnt(s) = [1.1]
bas 39, expnt(s) = [18.731137   2.8253937  0.6401217]
bas 40, expnt(s) = [0.1612778]
bas 41, expnt(s) = [1.1]
bas 42, expnt(s) = [18.731137   2.8253937  0.6401217]
bas 43, expnt(s) = [0.1612778]
bas 44, expnt(s) = [1.1]
bas 45, expnt(s) = [18.731137   2.8253937  0.6401217]
bas 46, expnt(s) = [0.1612778]
bas 47, expnt(s) = [1.1]
CPU time:       769.80
arg.atm = [[ 8 20  1 23  0  0]
 [ 8 24  1 27  0  0]
 [ 8 28  1 31  0  0]
 [ 8 32  1 35  0  0]
 [ 1 36  1 39  0  0]
 [ 1 40  1 43  0  0]
 [ 1 44  1 47  0  0]
 [ 1 48  1 51  0  0]
 [ 1 52  1 55  0  0]
 [ 1 56  1 59  0  0]
 [ 1 60  1 63  0  0]
 [ 1 64  1 67  0  0]]
arg.bas = [[  0   0   6   1   0  78  84   0]
 [  0   0   3   1   0  90  93   0]
 [  0   0   1   1   0  96  97   0]
 [  0   1   3   1   0  98 101   0]
 [  0   1   1   1   0 104 105   0]
 [  0   2   1   1   0 106 107   0]
 [  1   0   6   1   0  78  84   0]
 [  1   0   3   1   0  90  93   0]
 [  1   0   1   1   0  96  97   0]
 [  1   1   3   1   0  98 101   0]
 [  1   1   1   1   0 104 105   0]
 [  1   2   1   1   0 106 107   0]
 [  2   0   6   1   0  78  84   0]
 [  2   0   3   1   0  90  93   0]
 [  2   0   1   1   0  96  97   0]
 [  2   1   3   1   0  98 101   0]
 [  2   1   1   1   0 104 105   0]
 [  2   2   1   1   0 106 107   0]
 [  3   0   6   1   0  78  84   0]
 [  3   0   3   1   0  90  93   0]
 [  3   0   1   1   0  96  97   0]
 [  3   1   3   1   0  98 101   0]
 [  3   1   1   1   0 104 105   0]
 [  3   2   1   1   0 106 107   0]
 [  4   0   3   1   0  68  71   0]
 [  4   0   1   1   0  74  75   0]
 [  4   1   1   1   0  76  77   0]
 [  5   0   3   1   0  68  71   0]
 [  5   0   1   1   0  74  75   0]
 [  5   1   1   1   0  76  77   0]
 [  6   0   3   1   0  68  71   0]
 [  6   0   1   1   0  74  75   0]
 [  6   1   1   1   0  76  77   0]
 [  7   0   3   1   0  68  71   0]
 [  7   0   1   1   0  74  75   0]
 [  7   1   1   1   0  76  77   0]
 [  8   0   3   1   0  68  71   0]
 [  8   0   1   1   0  74  75   0]
 [  8   1   1   1   0  76  77   0]
 [  9   0   3   1   0  68  71   0]
 [  9   0   1   1   0  74  75   0]
 [  9   1   1   1   0  76  77   0]
 [ 10   0   3   1   0  68  71   0]
 [ 10   0   1   1   0  74  75   0]
 [ 10   1   1   1   0  76  77   0]
 [ 11   0   3   1   0  68  71   0]
 [ 11   0   1   1   0  74  75   0]
 [ 11   1   1   1   0  76  77   0]]
arg.env = [ 1.37036000e+02  0.00000000e+00  0.00000000e+00  0.00000000e+00
  0.00000000e+00  0.00000000e+00  0.00000000e+00  0.00000000e+00
  0.00000000e+00  0.00000000e+00  0.00000000e+00  0.00000000e+00
  0.00000000e+00  0.00000000e+00  0.00000000e+00  0.00000000e+00
  0.00000000e+00  0.00000000e+00  0.00000000e+00  0.00000000e+00
  2.02314400e+01 -2.05013779e+01 -1.90701939e+01  0.00000000e+00
  2.54311103e+01 -2.22482823e+01 -1.84702379e+01  0.00000000e+00
  2.45589393e+01 -2.78051467e+01 -2.11838979e+01  0.00000000e+00
  2.42145046e+01 -2.46013372e+01 -1.39203349e+01  0.00000000e+00
  2.17723038e+01 -2.13922289e+01 -1.87476176e+01  0.00000000e+00
  1.99702421e+01 -1.94960833e+01 -1.75892854e+01  0.00000000e+00
  2.62839852e+01 -2.07798196e+01 -1.90932542e+01  0.00000000e+00
  2.67410892e+01 -2.34772676e+01 -1.82569899e+01  0.00000000e+00
  2.32179689e+01 -2.86518083e+01 -2.03139039e+01  0.00000000e+00
  2.57676610e+01 -2.74243858e+01 -1.98931866e+01  0.00000000e+00
  2.35873725e+01 -2.34649901e+01 -1.26604337e+01  0.00000000e+00
  2.39147676e+01 -2.37503916e+01 -1.54881292e+01  0.00000000e+00
  1.87311370e+01  2.82539370e+00  6.40121700e-01  7.61926220e-01
  1.29237100e+00  1.47131900e+00  1.61277800e-01  6.42977783e-01
  1.10000000e+00  3.28643653e+00  5.48467170e+03  8.25234950e+02
  1.88046960e+02  5.29645000e+01  1.68975700e+01  5.79963530e+00
  2.94842455e+00  5.42657124e+00  8.78126489e+00  1.15432129e+01
  9.90055015e+00  3.38516599e+00  1.55396160e+01  3.59993360e+00
  1.01376180e+00 -2.19051792e+00 -9.77405528e-01  2.88629094e+00
  2.70005800e-01  9.46334873e-01  1.55396160e+01  3.59993360e+00
  1.01376180e+00  6.37930734e+00  4.91490975e+00  2.15791055e+00
  2.70005800e-01  5.67807022e-01  8.00000000e-01  1.76578110e+00]
ecpbas  = []


******** <class 'pyscf.qmmm.itrf.mm_charge.<locals>.QMMM'> ********
method = QMMM-RHF
initial guess = minao
damping factor = 0
level shift factor = 0
DIIS = <class 'pyscf.scf.diis.CDIIS'>
DIIS start cycle = 1
DIIS space = 8
SCF tol = 1e-09
SCF gradient tol = None
max. SCF cycles = 50
direct_scf = True
direct_scf_tol = 1e-13
chkfile to save SCF result = /home/liwei01/wsr/dftpart/test_2body/w32/tmpaj2soidj
max_memory 4000 MB (current use 329 MB)
** Add background charges for <class 'pyscf.scf.hf.RHF'> **
Charge      Location
-1.056075    [ 15.8591958  -22.32322322 -21.16584533]
0.523264    [ 15.44903263 -23.69303655 -20.05800473]
0.517699    [ 17.48403712 -21.75849557 -20.60647128]
-1.009926    [ 16.42785407 -26.58707085 -18.04142885]
0.499922    [ 15.53371882 -25.95112132 -16.60336995]
0.507893    [ 16.16245338 -28.37548309 -17.98600129]
-1.024266    [ 13.70105109 -18.63199472 -24.76194313]
0.515186    [ 13.45609723 -19.31578456 -26.41855264]
0.515422    [ 13.87339411 -20.08163576 -23.69387937]
-1.050024    [ 10.52651529 -24.11298283 -20.2839555 ]
0.521386    [  8.7734466  -24.2410798  -19.85703047]
0.506414    [ 11.30765248 -23.44237383 -18.79666545]
-1.032359    [ 13.1641969  -17.47579981 -19.41562257]
0.514165    [ 13.18112696 -18.60438393 -20.82910748]
0.518479    [ 14.52136419 -16.32434621 -19.73837456]
-1.052762    [ 13.11969196 -22.35429031 -15.81898054]
0.521035    [ 14.16458201 -22.84877684 -14.42771692]
0.525545    [ 13.80909996 -20.77345693 -16.36451423]
-1.002885    [ 18.40539199 -27.51482622 -24.72543362]
0.521542    [ 17.83274639 -26.30664305 -23.50711585]
0.49877    [ 20.13069872 -27.06649815 -25.03241585]
-1.054902    [ 19.05772167 -18.14703431 -25.87868434]
0.517977    [ 18.59105569 -18.66655214 -27.54728983]
0.522623    [ 17.51229609 -18.19498233 -24.93991564]
-0.997115    [ 17.90283445 -15.11249509 -20.63210731]
0.530073    [ 18.89257472 -16.62132612 -20.50652934]
0.49195    [ 18.18557149 -14.25298717 -19.06582671]
-1.032188    [ 15.97118286 -20.09833149 -29.6421136 ]
0.47982    [ 15.3540909  -19.66610766 -31.28659296]
0.534069    [ 17.50300052 -21.00734455 -29.95701189]
-0.992133    [  7.63287216 -21.21078113 -24.19682809]
0.480184    [  8.55071592 -22.76668147 -24.10379498]
0.504586    [  8.37549106 -20.32880248 -25.59058803]
-1.012936    [ 10.55365553 -29.46492154 -21.67488842]
0.504954    [  8.84108934 -29.00412127 -22.03084479]
0.525721    [ 11.34418277 -27.91794449 -21.17105153]
-0.985176    [ 16.63195772 -23.48150439 -12.27810621]
0.500614    [ 17.11266814 -22.20236011 -11.09293235]
0.508291    [ 16.89319913 -25.03868407 -11.39557387]
-0.979947    [ 19.94097588 -17.12125506 -14.67509908]
0.500341    [ 18.95312155 -17.86288753 -13.35371942]
0.493696    [ 19.00620207 -15.6543646  -15.17143564]
-0.982261    [ 16.04742575 -26.75780005 -29.6895325 ]
0.479882    [ 16.71262824 -28.42851069 -29.88488293]
0.495008    [ 16.8532352  -26.12000803 -28.20097066]
-0.983713    [ 20.17321188 -22.53529584 -29.89394228]
0.505479    [ 21.06170253 -23.16751127 -28.4507471 ]
0.512532    [ 20.35114661 -23.83370776 -31.14069287]
-1.011239    [ 14.66303696 -31.18986921 -25.03135193]
0.492592    [ 13.80996545 -30.6346091  -23.53606456]
0.497341    [ 16.13314373 -30.14067248 -25.13086491]
-1.016163    [ 10.56617686 -29.35403808 -16.44102735]
0.483053    [ 11.92280935 -30.36927076 -15.8079521 ]
0.523726    [ 10.34862781 -29.90290525 -18.15080431]
-0.976012    [ 10.09067452 -21.18806662 -29.24260093]
0.486289    [ 11.11173701 -19.76402949 -29.69146191]
0.496485    [ 10.37375928 -22.38512875 -30.56881072]
-0.989717    [  8.77070649 -15.37911655 -23.94499373]
0.487556    [  8.68859978 -13.74216775 -23.17975481]
0.496916    [ 10.53805395 -15.75730555 -24.01835668]
-0.992057    [ 16.93410036 -32.15697813 -17.52810554]
0.50918    [ 16.39069828 -32.53931319 -15.84570882]
0.510293    [ 15.6895513  -32.92540692 -18.59231236]
-0.998393    [ 24.35861321 -18.31258187 -25.98586582]
0.466984    [ 25.48944989 -18.60606579 -24.60492389]
0.51604    [ 22.70911474 -18.4111103  -25.25008395]
-1.010464    [  9.27281806 -14.9477601  -17.25327322]
0.476424    [  7.6789399  -15.16789619 -18.07972415]
0.517552    [ 10.24747455 -16.38576609 -17.75736144]
-0.991473    [  5.5836248  -24.00414405 -18.66237963]
0.501887    [  5.79022289 -25.52045085 -17.69798247]
0.510487    [  5.17491673 -22.73885336 -17.43603619]
-1.029267    [  7.95719829 -25.19119252 -14.2761212 ]
0.497876    [  9.38018663 -24.0850659  -14.1227926 ]
0.519667    [  8.66153702 -26.76190075 -14.83174226]
-1.001943    [ 16.13613705 -11.83176802 -24.46883904]
0.509813    [ 16.78082846 -12.94299123 -23.1954641 ]
0.477312    [ 17.5304658  -11.57071369 -25.59117007]
-1.019724    [ 21.67798379 -29.0173418  -14.20699124]
0.475311    [ 20.53074618 -29.01816194 -15.60548117]
0.514632    [ 22.50198564 -27.40961194 -14.29731259]
-1.001922    [ 21.40011279 -32.14724982 -20.33868764]
0.487648    [ 22.14106118 -33.75675602 -19.97480576]
0.509505    [ 19.73399418 -32.24696878 -19.64152988]
Set gradient conv threshold to 3.16228e-05
Nelec from initial guess = 39.951775170998594
cond(S) = 172.74128924057257
E1 = -670.0428054622454  E_coul = 237.078322412268
init E= -303.473173945941
    CPU time for initialize scf      1.16 sec, wall time      0.16 sec
  HOMO = -0.483343924128128  LUMO = 0.0257813588259484
  mo_energy =
[-20.88745914 -20.86445645 -20.83330418 -20.8117732   -1.71021524
  -1.68636844  -1.64797784  -1.62532903  -0.83551068  -0.83248363
  -0.77574977  -0.7530378   -0.68802138  -0.65458353  -0.61684924
  -0.59897641  -0.55993907  -0.54503814  -0.51209279  -0.48334392
   0.02578136   0.10883805   0.12416978   0.15117045   0.20612813
   0.21660603   0.27284634   0.29869554   0.87203865   0.88001082
   0.89911424   0.91194922   0.92566747   0.94204031   0.96422616
   0.9765107    0.99444915   1.00213896   1.01661373   1.05715092
   1.07233129   1.09363589   1.12958277   1.1333291    1.17716631
   1.20619266   1.22912169   1.25565338   1.43002654   1.50537211
   1.55178133   1.5823257    1.64862091   1.65464565   1.66993604
   1.6877923    1.71432511   1.72368752   1.7269012    1.73758513
   1.75060396   1.80484004   1.8127122    1.91194352   2.43999113
   2.44445182   2.47596668   2.48729042   2.50330808   2.50686109
   2.56130314   2.56478181   2.66537001   2.6899551    2.71431299
   2.73972517   2.8396428    2.8658272    2.87111586   2.898907
   2.90613281   2.91159797   2.94637762   2.9732576    3.25946497
   3.26589111   3.32020081   3.33090453   3.65294594   3.66734782
   3.68835001   3.70637009   3.80169938   3.84269697   3.86318639
   3.879097  ]
E1 = -679.7695594861357  E_coul = 246.2670187253543
cycle= 1 E= -304.011231656745  delta_E= -0.538  |g|= 0.877  |ddm|= 2.36
    CPU time for cycle= 1      0.18 sec, wall time      0.02 sec
diis-norm(errvec)=1.58616
diis-c [-2.51590154  1.        ]
  HOMO = -0.411280558983375  LUMO = 0.122718279282053
  mo_energy =
[-20.47725101 -20.36673789 -20.34591712 -20.31196311  -1.39336021
  -1.32661091  -1.31287815  -1.26837458  -0.77451695  -0.71513484
  -0.69484402  -0.65004531  -0.6189546   -0.55495814  -0.53776244
  -0.52882573  -0.48865509  -0.47550004  -0.46194741  -0.41128056
   0.12271828   0.19315895   0.20698291   0.23226642   0.2802684
   0.32047922   0.36186113   0.42955539   0.93531469   0.97729542
   0.9976157    1.01104773   1.02071626   1.03926959   1.09241473
   1.10354953   1.14343507   1.17779797   1.19725827   1.20041135
   1.20991444   1.25531006   1.27889271   1.29787536   1.32791228
   1.35952505   1.37171711   1.39075978   1.53745182   1.6550613
   1.67740557   1.70519714   1.75109599   1.77667479   1.79455335
   1.81303097   1.82977482   1.846292     1.86568957   1.87625281
   1.92019874   1.95765295   1.97281182   2.0364838    2.45719539
   2.50666335   2.53384917   2.54616886   2.56832395   2.632748
   2.63892736   2.64669198   2.74299563   2.80391058   2.83221066
   2.85135417   2.88029678   2.90288933   2.93819796   2.95385183
   2.99261129   3.00252032   3.01771383   3.03918235   3.30200902
   3.35789177   3.36904237   3.39732954   3.69429507   3.74282511
   3.7638605    3.78497814   3.89429314   3.95376434   3.98324237
   4.02228117]
E1 = -673.6430389892093  E_coul = 240.02707729965968
cycle= 2 E= -304.124652585514  delta_E= -0.113  |g|= 0.43  |ddm|= 0.698
    CPU time for cycle= 2      0.16 sec, wall time      0.02 sec
diis-norm(errvec)=0.715105
diis-c [-0.11276562  0.2894055   0.7105945 ]
  HOMO = -0.504440904548349  LUMO = 0.119185516755779
  mo_energy =
[-20.66866495 -20.64043002 -20.63613489 -20.5908518   -1.4412497
  -1.40419427  -1.39931733  -1.35151382  -0.80974699  -0.77329392
  -0.75798838  -0.71300935  -0.67628336  -0.63468396  -0.62743325
  -0.59049336  -0.57946536  -0.56032254  -0.55652696  -0.5044409
   0.11918552   0.1884458    0.20304724   0.22566008   0.27317608
   0.30475234   0.35033334   0.40401033   0.92156925   0.95312336
   0.98120223   0.99442594   1.00250971   1.02101204   1.04570334
   1.06020407   1.1003015    1.11025902   1.12470362   1.14280097
   1.15299772   1.18531103   1.21442227   1.24164587   1.27915444
   1.30337864   1.30970253   1.33979591   1.50012496   1.60238253
   1.63518786   1.66693856   1.72237804   1.73967485   1.75455004
   1.77488391   1.78268036   1.80406481   1.822315     1.82413443
   1.86400461   1.90355777   1.91708822   1.99113271   2.46521063
   2.48757159   2.53238835   2.53761646   2.57226948   2.58564617
   2.59197608   2.60170208   2.72087117   2.77120025   2.78586396
   2.80841295   2.86741312   2.90394904   2.92233733   2.93396884
   2.96955835   2.97400724   2.99372208   3.02029363   3.29468724
   3.33073373   3.35224644   3.3726771    3.6864921    3.71338562
   3.73094899   3.75413844   3.86705733   3.90596737   3.93115273
   3.96957891]
E1 = -676.3767990183868  E_coul = 242.72891965535533
cycle= 3 E= -304.156570258995  delta_E= -0.0319  |g|= 0.0611  |ddm|= 0.277
    CPU time for cycle= 3      0.16 sec, wall time      0.02 sec
diis-norm(errvec)=0.114314
diis-c [-0.00601186 -0.02319003  0.0680088   0.95518123]
  HOMO = -0.49274976174834  LUMO = 0.126013172462617
  mo_energy =
[-20.64253504 -20.60603936 -20.60132748 -20.55304656  -1.42782628
  -1.39036273  -1.38583434  -1.33649558  -0.79696098  -0.76143607
  -0.74594815  -0.69952352  -0.6662682   -0.62479605  -0.61781564
  -0.5800891   -0.56865168  -0.54930071  -0.5458692   -0.49274976
   0.12601317   0.19488225   0.20981053   0.23202379   0.27974254
   0.31154674   0.35766344   0.41135322   0.93105073   0.96040093
   0.98937153   1.00523842   1.01339389   1.03173821   1.0552355
   1.06928344   1.11133915   1.11977279   1.1321823    1.15071669
   1.16276243   1.19317719   1.22378785   1.2513832    1.28973011
   1.31295175   1.3198489    1.35017764   1.51131768   1.61360583
   1.64534988   1.67783754   1.73406302   1.75048718   1.76525676
   1.78620774   1.79314376   1.81626306   1.83314485   1.83494185
   1.87405982   1.91327728   1.92824456   2.00065234   2.47749721
   2.49908909   2.54250564   2.54790497   2.58365851   2.5973115
   2.60249645   2.61265376   2.7337347    2.78343434   2.79711732
   2.82137679   2.87836127   2.91612675   2.93300927   2.94416364
   2.97907081   2.98412505   3.00404892   3.02984991   3.30588547
   3.33983701   3.36265104   3.38346779   3.70167139   3.72727814
   3.74454548   3.76904249   3.87993678   3.91798011   3.94437777
   3.9805657 ]
E1 = -676.0778447366375  E_coul = 242.42912011429038
cycle= 4 E= -304.157415518311  delta_E= -0.000845  |g|= 0.00999  |ddm|= 0.0378
    CPU time for cycle= 4      0.16 sec, wall time      0.02 sec
diis-norm(errvec)=0.0207529
diis-c [-1.13335298e-04 -9.49579089e-03 -3.95885543e-02 -1.66941803e-01
  1.21602615e+00]
  HOMO = -0.49461252819034  LUMO = 0.126338822801432
  mo_energy =
[-20.64163234 -20.60750649 -20.60255085 -20.556301    -1.42732507
  -1.39119021  -1.38651746  -1.33775818  -0.79598331  -0.76143516
  -0.7459707   -0.69983214  -0.66589551  -0.62527885  -0.61808532
  -0.58033313  -0.56950972  -0.55051447  -0.54694515  -0.49461253
   0.12633882   0.19484891   0.21024629   0.23203884   0.27996922
   0.31182869   0.35808795   0.41164966   0.93132382   0.96032071
   0.98928715   1.00497315   1.0138616    1.03194047   1.05513285
   1.06895008   1.11085648   1.11921557   1.13186779   1.15029349
   1.16248802   1.19267419   1.22312843   1.25146228   1.28994435
   1.31306226   1.31985784   1.3501697    1.51138772   1.61295747
   1.64525763   1.67801944   1.73440383   1.75076324   1.76514197
   1.78636762   1.792958     1.81587524   1.83295312   1.83475833
   1.87376718   1.91310904   1.9277193    2.00081061   2.47835695
   2.49988268   2.54263981   2.54794046   2.58400035   2.59692886
   2.60236166   2.61274464   2.73445549   2.78385922   2.79727588
   2.82136067   2.87918532   2.91725692   2.93309435   2.94414864
   2.97929485   2.98436986   3.00401744   3.0300007    3.30669849
   3.34001819   3.3631632    3.38368979   3.70286371   3.72725254
   3.74454203   3.76897488   3.88094156   3.91838303   3.94449436
   3.98075057]
E1 = -676.0869644381283  E_coul = 242.43819660415056
cycle= 5 E= -304.157458729942  delta_E= -4.32e-05  |g|= 0.0019  |ddm|= 0.0119
    CPU time for cycle= 5      0.16 sec, wall time      0.02 sec
diis-norm(errvec)=0.00347317
diis-c [-8.38770367e-06  1.48848470e-03  3.77320917e-03 -4.25278113e-03
 -1.17716342e-01  1.11670743e+00]
  HOMO = -0.494365315805992  LUMO = 0.126227074308507
  mo_energy =
[-20.64288795 -20.60765873 -20.60284199 -20.55483859  -1.42781489
  -1.39131549  -1.38667706  -1.33737134  -0.79621677  -0.76150343
  -0.74599094  -0.69939246  -0.66629009  -0.62548738  -0.61837215
  -0.58089937  -0.56918697  -0.55078156  -0.54721845  -0.49436532
   0.12622707   0.1948001    0.21021888   0.23198827   0.27992075
   0.31174122   0.35812748   0.41151447   0.93115894   0.96015151
   0.98915693   1.00480332   1.01370532   1.03180089   1.05494429
   1.06876487   1.11081843   1.11903886   1.13170517   1.15015427
   1.16241625   1.19280454   1.22298842   1.25132516   1.28984107
   1.31290783   1.31985888   1.34998788   1.51115234   1.61311858
   1.64508308   1.67778629   1.73416024   1.75051026   1.76496773
   1.78613731   1.7928032    1.81601728   1.83294018   1.83474935
   1.87361918   1.91291202   1.92792377   2.00055093   2.47818963
   2.49954182   2.54249509   2.54780382   2.58397737   2.59707181
   2.60220933   2.61259027   2.73420473   2.78365283   2.79708602
   2.82147785   2.87895837   2.91704126   2.93301452   2.94408429
   2.97915765   2.98440897   3.00403531   3.0298173    3.30650191
   3.33987263   3.3629893    3.38375505   3.70255985   3.72715438
   3.74442691   3.76909349   3.88063959   3.91820648   3.94464337
   3.98057304]
E1 = -676.0861062370113  E_coul = 242.43733698681274
cycle= 6 E= -304.157460146163  delta_E= -1.42e-06  |g|= 0.000837  |ddm|= 0.00249
    CPU time for cycle= 6      0.16 sec, wall time      0.02 sec
diis-norm(errvec)=0.00149571
diis-c [-6.93542748e-07  1.21107130e-03  4.49233697e-03  1.10064996e-02
 -1.29162440e-01  2.96014562e-01  8.16437970e-01]
  HOMO = -0.49462216536501  LUMO = 0.126249288533304
  mo_energy =
[-20.64224025 -20.60753925 -20.60265339 -20.55544929  -1.42761937
  -1.39128324  -1.3866247   -1.33758344  -0.79604102  -0.76142935
  -0.74590748  -0.69951661  -0.66615784  -0.62546724  -0.61831794
  -0.58075407  -0.56940578  -0.55077703  -0.54720036  -0.49462217
   0.12624929   0.19481226   0.21024497   0.23200248   0.27992212
   0.31177216   0.35811501   0.41154877   0.93118989   0.96016762
   0.98916373   1.00481735   1.01373678   1.03181941   1.05496518
   1.06876736   1.11076779   1.11904218   1.13169623   1.15015987
   1.16239671   1.19266784   1.22295632   1.25137864   1.28986723
   1.31294949   1.31983854   1.35004713   1.51124435   1.61301784
   1.64512932   1.6778525    1.73422314   1.75057393   1.76499752
   1.7861971    1.79282634   1.81589892   1.83290041   1.83469744
   1.87364333   1.91295457   1.92777782   2.00062387   2.47822677
   2.49964442   2.54251294   2.54781788   2.58394176   2.59693901
   2.60222018   2.61260811   2.73427659   2.78369709   2.79711343
   2.82136572   2.87901962   2.91711209   2.93301915   2.94409064
   2.97915916   2.98435104   3.00395273   3.02984843   3.30655392
   3.33988575   3.36302316   3.38367139   3.70266616   3.72716254
   3.74444696   3.76899565   3.88073769   3.91823666   3.94452534
   3.9805968 ]
E1 = -676.0848906463683  E_coul = 242.4361212113978
cycle= 7 E= -304.157460330934  delta_E= -1.85e-07  |g|= 0.000156  |ddm|= 0.000746
    CPU time for cycle= 7      0.16 sec, wall time      0.02 sec
diis-norm(errvec)=0.00029096
diis-c [-1.57361974e-08 -2.32349742e-04 -6.50226767e-04 -1.68078512e-03
  2.29400803e-02 -1.20768759e-01 -8.88463587e-02  1.18923840e+00]
  HOMO = -0.494612359086689  LUMO = 0.126252520563096
  mo_energy =
[-20.64228031 -20.60751902 -20.60263625 -20.55536429  -1.42762935
  -1.39128449  -1.38662533  -1.33755886  -0.79603144  -0.76142192
  -0.74589523  -0.69948291  -0.66616997  -0.62547618  -0.61832795
  -0.5807766   -0.56938842  -0.55079197  -0.54721206  -0.49461236
   0.12625252   0.19481339   0.21025377   0.23200252   0.27992957
   0.31177613   0.35813013   0.41155638   0.9311962    0.96016907
   0.98916685   1.00481463   1.01374684   1.03182702   1.05496395
   1.06876695   1.11077493   1.11904218   1.13169612   1.15015854
   1.1624031    1.19268233   1.22295564   1.25138586   1.28987874
   1.3129566    1.3198541    1.3500498    1.51124467   1.61303385
   1.64512977   1.67785419   1.7342233    1.75057266   1.7649959
   1.78619553   1.79282535   1.8159145    1.83290755   1.83470537
   1.87364264   1.91295258   1.92779528   2.00062346   2.47823821
   2.49964382   2.54251321   2.54781826   2.58395433   2.59695604
   2.60222049   2.61261112   2.73428169   2.783701     2.79711675
   2.82138533   2.87902459   2.91712171   2.93302033   2.94408508
   2.97916781   2.98436585   3.00396432   3.02984776   3.30656074
   3.33988762   3.36302806   3.38368799   3.70267507   3.72716666
   3.7444477    3.76901472   3.88074181   3.91824277   3.94454706
   3.98060091]
E1 = -676.0846795839474  E_coul = 242.43591013850187
cycle= 8 E= -304.157460341409  delta_E= -1.05e-08  |g|= 1.88e-05  |ddm|= 0.000227
    CPU time for cycle= 8      0.16 sec, wall time      0.02 sec
diis-norm(errvec)=3.43677e-05
diis-c [-7.08143351e-10 -2.82244656e-05 -1.01071416e-04 -2.83408617e-04
  3.00755240e-03 -6.27183128e-03 -1.86516468e-02 -1.92446151e-02
  1.04157325e+00]
  HOMO = -0.494610139185297  LUMO = 0.126253231993184
  mo_energy =
[-20.64226749 -20.60752012 -20.60263747 -20.55535698  -1.42762503
  -1.39128402  -1.38662456  -1.33755629  -0.79602689  -0.76141947
  -0.74589268  -0.69947964  -0.66616684  -0.62547664  -0.61832757
  -0.58077268  -0.56938673  -0.55079208  -0.54721198  -0.49461014
   0.12625323   0.19481397   0.21025484   0.23200369   0.27992985
   0.31177761   0.35813079   0.41155731   0.93119727   0.96016984
   0.98916772   1.00481517   1.01374805   1.03182769   1.05496414
   1.06876714   1.11077527   1.11904234   1.13169573   1.15015898
   1.1624045    1.19268335   1.22295743   1.25138731   1.28988135
   1.31295874   1.31985576   1.35005173   1.51124682   1.61303516
   1.6451314    1.67785548   1.73422506   1.7505743    1.76499676
   1.78619703   1.79282614   1.81591569   1.83290891   1.83470681
   1.87364301   1.91295341   1.92779667   2.00062478   2.47823922
   2.49964651   2.54251489   2.54781965   2.58395475   2.5969574
   2.60222143   2.61261194   2.73428361   2.78370258   2.79711764
   2.8213868    2.87902636   2.91712321   2.93302107   2.9440876
   2.97916797   2.98436701   3.00396427   3.02984934   3.30656246
   3.33988881   3.36302953   3.38368898   3.70267719   3.72716771
   3.74444935   3.76901582   3.88074434   3.91824415   3.94454883
   3.98060149]
E1 = -676.0846545214833  E_coul = 242.43588507587967
cycle= 9 E= -304.157460341568  delta_E= -1.58e-10  |g|= 6.87e-06  |ddm|= 2.68e-05
    CPU time for cycle= 9      0.16 sec, wall time      0.02 sec
  HOMO = -0.494610941165732  LUMO = 0.126253021849138
  mo_energy =
[-20.64227337 -20.60751755 -20.60263446 -20.55536102  -1.42762666
  -1.39128315  -1.38662344  -1.33755733  -0.79602801  -0.76141896
  -0.74589214  -0.69948052  -0.6661679   -0.62547598  -0.61832723
  -0.58077386  -0.56938802  -0.55079106  -0.54721058  -0.49461094
   0.12625302   0.1948138    0.21025456   0.23200357   0.27992952
   0.3117776    0.35813049   0.4115575    0.93119691   0.96017003
   0.98916765   1.00481504   1.01374743   1.03182737   1.05496434
   1.06876704   1.11077516   1.11904283   1.13169608   1.15015948
   1.16240421   1.19268267   1.22295664   1.25138758   1.28988047
   1.31295834   1.31985543   1.35005152   1.5112463    1.61303465
   1.6451312    1.67785545   1.73422468   1.75057419   1.76499714
   1.78619683   1.79282648   1.81591506   1.83290863   1.83470641
   1.87364375   1.91295378   1.92779597   2.00062463   2.47823894
   2.49964559   2.54251479   2.54781968   2.58395447   2.59695677
   2.60222187   2.61261217   2.73428314   2.78370239   2.79711807
   2.82138606   2.87902591   2.91712256   2.93302118   2.94408771
   2.97916822   2.98436672   3.00396382   3.0298493    3.30656208
   3.33988914   3.36302938   3.38368848   3.7026762    3.7271679
   3.74444961   3.76901517   3.88074361   3.91824417   3.94454803
   3.9806021 ]
E1 = -676.0846706050561  E_coul = 242.43590115943314
Extra cycle  E= -304.157460341587  delta_E= -1.93e-11  |g|= 3.7e-06  |ddm|= 9.79e-06
    CPU time for scf_cycle      2.78 sec, wall time      0.36 sec
    CPU time for SCF      2.88 sec, wall time      0.38 sec
converged SCF energy = -304.157460341587
