 Entering Gaussian System, Link 0=g16
 Input=w32_7.gjf
 Output=w32_7.log
 Initial command:
 /home/soft/g16/l1.exe "/tmp/liwei01/gaussian/wsr/Gau-5249.inp" -scrdir="/tmp/liwei01/gaussian/wsr/"
 Entering Link 1 = /home/soft/g16/l1.exe PID=      5250.
  
 Copyright (c) 1988,1990,1992,1993,1995,1998,2003,2009,2016,
            Gaussian, Inc.  All Rights Reserved.
  
 This is part of the Gaussian(R) 16 program.  It is based on
 the Gaussian(R) 09 system (copyright 2009, Gaussian, Inc.),
 the Gaussian(R) 03 system (copyright 2003, Gaussian, Inc.),
 the Gaussian(R) 98 system (copyright 1998, Gaussian, Inc.),
 the Gaussian(R) 94 system (copyright 1995, Gaussian, Inc.),
 the Gaussian 92(TM) system (copyright 1992, Gaussian, Inc.),
 the Gaussian 90(TM) system (copyright 1990, Gaussian, Inc.),
 the Gaussian 88(TM) system (copyright 1988, Gaussian, Inc.),
 the Gaussian 86(TM) system (copyright 1986, Carnegie Mellon
 University), and the Gaussian 82(TM) system (copyright 1983,
 Carnegie Mellon University). Gaussian is a federally registered
 trademark of Gaussian, Inc.
  
 This software contains proprietary and confidential information,
 including trade secrets, belonging to Gaussian, Inc.
  
 This software is provided under written license and may be
 used, copied, transmitted, or stored only in accord with that
 written license.
  
 The following legend is applicable only to US Government
 contracts under FAR:
  
                    RESTRICTED RIGHTS LEGEND
  
 Use, reproduction and disclosure by the US Government is
 subject to restrictions as set forth in subparagraphs (a)
 and (c) of the Commercial Computer Software - Restricted
 Rights clause in FAR 52.227-19.
  
 Gaussian, Inc.
 340 Quinnipiac St., Bldg. 40, Wallingford CT 06492
  
  
 ---------------------------------------------------------------
 Warning -- This program may not be used in any manner that
 competes with the business of Gaussian, Inc. or will provide
 assistance to any competitor of Gaussian, Inc.  The licensee
 of this program is prohibited from giving any competitor of
 Gaussian, Inc. access to this program.  By using this program,
 the user acknowledges that Gaussian, Inc. is engaged in the
 business of creating and licensing software in the field of
 computational chemistry and represents and warrants to the
 licensee that it is not a competitor of Gaussian, Inc. and that
 it will not use this program in any manner prohibited above.
 ---------------------------------------------------------------
  

 Cite this work as:
 Gaussian 16, Revision A.03,
 M. J. Frisch, G. W. Trucks, H. B. Schlegel, G. E. Scuseria, 
 M. A. Robb, J. R. Cheeseman, G. Scalmani, V. Barone, 
 G. A. Petersson, H. Nakatsuji, X. Li, M. Caricato, A. V. Marenich, 
 J. Bloino, B. G. Janesko, R. Gomperts, B. Mennucci, H. P. Hratchian, 
 J. V. Ortiz, A. F. Izmaylov, J. L. Sonnenberg, D. Williams-Young, 
 F. Ding, F. Lipparini, F. Egidi, J. Goings, B. Peng, A. Petrone, 
 T. Henderson, D. Ranasinghe, V. G. Zakrzewski, J. Gao, N. Rega, 
 G. Zheng, W. Liang, M. Hada, M. Ehara, K. Toyota, R. Fukuda, 
 J. Hasegawa, M. Ishida, T. Nakajima, Y. Honda, O. Kitao, H. Nakai, 
 T. Vreven, K. Throssell, J. A. Montgomery, Jr., J. E. Peralta, 
 F. Ogliaro, M. J. Bearpark, J. J. Heyd, E. N. Brothers, K. N. Kudin, 
 V. N. Staroverov, T. A. Keith, R. Kobayashi, J. Normand, 
 K. Raghavachari, A. P. Rendell, J. C. Burant, S. S. Iyengar, 
 J. Tomasi, M. Cossi, J. M. Millam, M. Klene, C. Adamo, R. Cammi, 
 J. W. Ochterski, R. L. Martin, K. Morokuma, O. Farkas, 
 J. B. Foresman, and D. J. Fox, Gaussian, Inc., Wallingford CT, 2016.
 
 ******************************************
 Gaussian 16:  ES64L-G16RevA.03 25-Dec-2016
                15-May-2020 
 ******************************************
 %chk=w32_7.chk
 %nproc=4
 Will use up to    4 processors via shared memory.
 %mem=1gb
 -----------------------------------------
 #p hf/6-31g** 5d 7f pop=npa charge nosymm
 -----------------------------------------
 1/18=10,28=-2,38=1,125=101,172=1/1;
 2/12=2,15=1,17=6,18=5,40=1/2;
 3/5=1,6=6,7=101,8=11,11=9,25=1,30=1/1,2,3;
 4//1;
 5/5=2,38=5/2;
 6/7=2,8=2,9=2,10=2,28=1,40=-1/1,7;
 99/5=1,9=1/99;
 Leave Link    1 at Fri May 15 22:34:56 2020, MaxMem=   134217728 cpu:               0.3 elap:               0.1
 (Enter /home/soft/g16/l101.exe)
 --------------
 Atom number=21
 --------------
 Symbolic Z-matrix:
 Charge =  0 Multiplicity = 1
 o                     8.39232  -11.81294  -11.20048 
 o                     8.69325  -14.06927  -9.54711 
 o                     5.57039  -12.76004  -10.73381 
 o                     6.96619  -9.24779  -10.27431 
 o                     6.94264  -11.82938  -8.37104 
 o                     8.80125  -12.42588  -6.49729 
 o                     4.21077  -13.33061  -7.5546 
 h                     8.17528  -12.53782  -10.61424 
 h                     9.25215  -11.5141  -10.90447 
 h                     8.22009  -13.73274  -8.78613 
 h                     8.5528   -15.01566  -9.51778 
 h                     4.64271  -12.82783  -10.50789 
 h                     5.98375  -12.40517  -9.94677 
 h                     6.97515  -9.84502  -11.02229 
 h                     7.68438  -8.63847  -10.4451 
 h                     7.49557  -12.09105  -7.63482 
 h                     7.30746  -10.99284  -8.65973 
 h                     9.05563  -11.74898  -5.87013 
 h                     8.9395   -13.2499  -6.03028 
 h                     4.96378  -12.74527  -7.47346 
 h                     4.58349  -14.16179  -7.84862 
 
 ITRead=  0  0  0  0  0  0  0  0  0  0  0  0  0  0  0  0  0  0  0  0
 ITRead=  0
 MicOpt= -1 -1 -1 -1 -1 -1 -1 -1 -1 -1 -1 -1 -1 -1 -1 -1 -1 -1 -1 -1
 MicOpt= -1
 NAtoms=     21 NQM=       21 NQMF=       0 NMMI=      0 NMMIF=      0
                NMic=       0 NMicF=      0.
                    Isotopes and Nuclear Properties:
 (Nuclear quadrupole moments (NQMom) in fm**2, nuclear magnetic moments (NMagM)
  in nuclear magnetons)

  Atom         1           2           3           4           5           6           7           8           9          10
 IAtWgt=          16          16          16          16          16          16          16           1           1           1
 AtmWgt=  15.9949146  15.9949146  15.9949146  15.9949146  15.9949146  15.9949146  15.9949146   1.0078250   1.0078250   1.0078250
 NucSpn=           0           0           0           0           0           0           0           1           1           1
 AtZEff=  -0.0000000  -0.0000000  -0.0000000  -0.0000000  -0.0000000  -0.0000000  -0.0000000  -0.0000000  -0.0000000  -0.0000000
 NQMom=    0.0000000   0.0000000   0.0000000   0.0000000   0.0000000   0.0000000   0.0000000   0.0000000   0.0000000   0.0000000
 NMagM=    0.0000000   0.0000000   0.0000000   0.0000000   0.0000000   0.0000000   0.0000000   2.7928460   2.7928460   2.7928460
 AtZNuc=   8.0000000   8.0000000   8.0000000   8.0000000   8.0000000   8.0000000   8.0000000   1.0000000   1.0000000   1.0000000

  Atom        11          12          13          14          15          16          17          18          19          20
 IAtWgt=           1           1           1           1           1           1           1           1           1           1
 AtmWgt=   1.0078250   1.0078250   1.0078250   1.0078250   1.0078250   1.0078250   1.0078250   1.0078250   1.0078250   1.0078250
 NucSpn=           1           1           1           1           1           1           1           1           1           1
 AtZEff=  -0.0000000  -0.0000000  -0.0000000  -0.0000000  -0.0000000  -0.0000000  -0.0000000  -0.0000000  -0.0000000  -0.0000000
 NQMom=    0.0000000   0.0000000   0.0000000   0.0000000   0.0000000   0.0000000   0.0000000   0.0000000   0.0000000   0.0000000
 NMagM=    2.7928460   2.7928460   2.7928460   2.7928460   2.7928460   2.7928460   2.7928460   2.7928460   2.7928460   2.7928460
 AtZNuc=   1.0000000   1.0000000   1.0000000   1.0000000   1.0000000   1.0000000   1.0000000   1.0000000   1.0000000   1.0000000

  Atom        21
 IAtWgt=           1
 AtmWgt=   1.0078250
 NucSpn=           1
 AtZEff=  -0.0000000
 NQMom=    0.0000000
 NMagM=    2.7928460
 AtZNuc=   1.0000000
 Background charge distribution read from input stream:
 Point Charges:
 XYZ=   10.7060  -10.8489  -10.0915 Q=   -1.0357 A=    0.0000 R=    0.0000 C=    0.0000
 XYZ=   11.5214  -11.3203   -9.9208 Q=    0.5206 A=    0.0000 R=    0.0000 C=    0.0000
 XYZ=   10.5678  -10.3169   -9.3078 Q=    0.5156 A=    0.0000 R=    0.0000 C=    0.0000
 XYZ=    7.2503   -9.8596  -13.1035 Q=   -1.0243 A=    0.0000 R=    0.0000 C=    0.0000
 XYZ=    7.1207  -10.2215  -13.9801 Q=    0.5152 A=    0.0000 R=    0.0000 C=    0.0000
 XYZ=    7.3415  -10.6267  -12.5383 Q=    0.5154 A=    0.0000 R=    0.0000 C=    0.0000
 XYZ=    9.7397  -14.5602  -13.0841 Q=   -1.0029 A=    0.0000 R=    0.0000 C=    0.0000
 XYZ=    9.4367  -13.9209  -12.4394 Q=    0.5215 A=    0.0000 R=    0.0000 C=    0.0000
 XYZ=   10.6527  -14.3230  -13.2466 Q=    0.4988 A=    0.0000 R=    0.0000 C=    0.0000
 XYZ=   10.0849   -9.6030  -13.6944 Q=   -1.0549 A=    0.0000 R=    0.0000 C=    0.0000
 XYZ=    9.8380   -9.8779  -14.5774 Q=    0.5180 A=    0.0000 R=    0.0000 C=    0.0000
 XYZ=    9.2671   -9.6284  -13.1976 Q=    0.5226 A=    0.0000 R=    0.0000 C=    0.0000
 XYZ=    9.4738   -7.9972  -10.9180 Q=   -0.9971 A=    0.0000 R=    0.0000 C=    0.0000
 XYZ=    9.9975   -8.7956  -10.8516 Q=    0.5301 A=    0.0000 R=    0.0000 C=    0.0000
 XYZ=    9.6234   -7.5424  -10.0892 Q=    0.4920 A=    0.0000 R=    0.0000 C=    0.0000
 XYZ=    8.4516  -10.6356  -15.6859 Q=   -1.0322 A=    0.0000 R=    0.0000 C=    0.0000
 XYZ=    8.1250  -10.4069  -16.5562 Q=    0.4798 A=    0.0000 R=    0.0000 C=    0.0000
 XYZ=    9.2622  -11.1166  -15.8526 Q=    0.5341 A=    0.0000 R=    0.0000 C=    0.0000
 XYZ=    4.0391  -11.2243  -12.8044 Q=   -0.9921 A=    0.0000 R=    0.0000 C=    0.0000
 XYZ=    4.5248  -12.0476  -12.7552 Q=    0.4802 A=    0.0000 R=    0.0000 C=    0.0000
 XYZ=    4.4321  -10.7575  -13.5420 Q=    0.5046 A=    0.0000 R=    0.0000 C=    0.0000
 XYZ=    5.5848  -15.5922  -11.4699 Q=   -1.0129 A=    0.0000 R=    0.0000 C=    0.0000
 XYZ=    4.6785  -15.3483  -11.6582 Q=    0.5050 A=    0.0000 R=    0.0000 C=    0.0000
 XYZ=    6.0031  -14.7735  -11.2032 Q=    0.5257 A=    0.0000 R=    0.0000 C=    0.0000
 XYZ=   10.5523   -9.0602   -7.7657 Q=   -0.9799 A=    0.0000 R=    0.0000 C=    0.0000
 XYZ=   10.0296   -9.4526   -7.0665 Q=    0.5003 A=    0.0000 R=    0.0000 C=    0.0000
 XYZ=   10.0576   -8.2839   -8.0284 Q=    0.4937 A=    0.0000 R=    0.0000 C=    0.0000
 XYZ=    8.4919  -14.1596  -15.7110 Q=   -0.9823 A=    0.0000 R=    0.0000 C=    0.0000
 XYZ=    8.8439  -15.0437  -15.8144 Q=    0.4799 A=    0.0000 R=    0.0000 C=    0.0000
 XYZ=    8.9183  -13.8221  -14.9233 Q=    0.4950 A=    0.0000 R=    0.0000 C=    0.0000
 XYZ=   10.6752  -11.9252  -15.8192 Q=   -0.9837 A=    0.0000 R=    0.0000 C=    0.0000
 XYZ=   11.1454  -12.2597  -15.0555 Q=    0.5055 A=    0.0000 R=    0.0000 C=    0.0000
 XYZ=   10.7694  -12.6123  -16.4789 Q=    0.5125 A=    0.0000 R=    0.0000 C=    0.0000
 XYZ=    7.7593  -16.5050  -13.2460 Q=   -1.0112 A=    0.0000 R=    0.0000 C=    0.0000
 XYZ=    7.3079  -16.2111  -12.4547 Q=    0.4926 A=    0.0000 R=    0.0000 C=    0.0000
 XYZ=    8.5373  -15.9498  -13.2987 Q=    0.4973 A=    0.0000 R=    0.0000 C=    0.0000
 XYZ=   13.4576  -11.7733   -9.7740 Q=   -0.9993 A=    0.0000 R=    0.0000 C=    0.0000
 XYZ=   13.9089  -10.9962  -10.1037 Q=    0.5128 A=    0.0000 R=    0.0000 C=    0.0000
 XYZ=   14.1508  -12.4236   -9.6612 Q=    0.5076 A=    0.0000 R=    0.0000 C=    0.0000
 XYZ=    5.5914  -15.5335   -8.7002 Q=   -1.0162 A=    0.0000 R=    0.0000 C=    0.0000
 XYZ=    6.3093  -16.0707   -8.3652 Q=    0.4831 A=    0.0000 R=    0.0000 C=    0.0000
 XYZ=    5.4763  -15.8239   -9.6050 Q=    0.5237 A=    0.0000 R=    0.0000 C=    0.0000
 XYZ=    5.3398  -11.2122  -15.4745 Q=   -0.9760 A=    0.0000 R=    0.0000 C=    0.0000
 XYZ=    5.8801  -10.4587  -15.7120 Q=    0.4863 A=    0.0000 R=    0.0000 C=    0.0000
 XYZ=    5.4896  -11.8457  -16.1763 Q=    0.4965 A=    0.0000 R=    0.0000 C=    0.0000
 XYZ=   12.9960  -14.7139  -11.2100 Q=   -0.9778 A=    0.0000 R=    0.0000 C=    0.0000
 XYZ=   12.2864  -15.1619  -10.7497 Q=    0.5059 A=    0.0000 R=    0.0000 C=    0.0000
 XYZ=   13.6357  -14.5124  -10.5270 Q=    0.4638 A=    0.0000 R=    0.0000 C=    0.0000
 XYZ=    4.6413   -8.1383  -12.6711 Q=   -0.9897 A=    0.0000 R=    0.0000 C=    0.0000
 XYZ=    4.5978   -7.2720  -12.2662 Q=    0.4876 A=    0.0000 R=    0.0000 C=    0.0000
 XYZ=    5.5765   -8.3384  -12.7100 Q=    0.4969 A=    0.0000 R=    0.0000 C=    0.0000
 XYZ=    8.9611  -17.0167   -9.2755 Q=   -0.9921 A=    0.0000 R=    0.0000 C=    0.0000
 XYZ=    8.6736  -17.2191   -8.3852 Q=    0.5092 A=    0.0000 R=    0.0000 C=    0.0000
 XYZ=    8.3026  -17.4234   -9.8386 Q=    0.5103 A=    0.0000 R=    0.0000 C=    0.0000
 XYZ=   12.8900   -9.6906  -13.7511 Q=   -0.9984 A=    0.0000 R=    0.0000 C=    0.0000
 XYZ=   13.4884   -9.8459  -13.0204 Q=    0.4670 A=    0.0000 R=    0.0000 C=    0.0000
 XYZ=   12.0171   -9.7427  -13.3618 Q=    0.5160 A=    0.0000 R=    0.0000 C=    0.0000
 XYZ=    4.9070   -7.9100   -9.1300 Q=   -1.0105 A=    0.0000 R=    0.0000 C=    0.0000
 XYZ=    4.0635   -8.0265   -9.5674 Q=    0.4764 A=    0.0000 R=    0.0000 C=    0.0000
 XYZ=    5.4227   -8.6710   -9.3968 Q=    0.5176 A=    0.0000 R=    0.0000 C=    0.0000
 XYZ=    2.9547  -12.7024   -9.8757 Q=   -0.9915 A=    0.0000 R=    0.0000 C=    0.0000
 XYZ=    3.0641  -13.5048   -9.3654 Q=    0.5019 A=    0.0000 R=    0.0000 C=    0.0000
 XYZ=    2.7384  -12.0329   -9.2268 Q=    0.5105 A=    0.0000 R=    0.0000 C=    0.0000
 XYZ=    8.5389   -6.2611  -12.9484 Q=   -1.0019 A=    0.0000 R=    0.0000 C=    0.0000
 XYZ=    8.8800   -6.8491  -12.2745 Q=    0.5098 A=    0.0000 R=    0.0000 C=    0.0000
 XYZ=    9.2767   -6.1230  -13.5423 Q=    0.4773 A=    0.0000 R=    0.0000 C=    0.0000
 XYZ=   11.4715  -15.3553   -7.5180 Q=   -1.0197 A=    0.0000 R=    0.0000 C=    0.0000
 XYZ=   10.8644  -15.3558   -8.2581 Q=    0.4753 A=    0.0000 R=    0.0000 C=    0.0000
 XYZ=   11.9075  -14.5045   -7.5658 Q=    0.5146 A=    0.0000 R=    0.0000 C=    0.0000
 XYZ=   12.8138  -13.0185   -7.3663 Q=   -0.9959 A=    0.0000 R=    0.0000 C=    0.0000
 XYZ=   12.4819  -12.4171   -6.6996 Q=    0.4994 A=    0.0000 R=    0.0000 C=    0.0000
 XYZ=   12.6552  -12.5682   -8.1960 Q=    0.5110 A=    0.0000 R=    0.0000 C=    0.0000
 XYZ=   11.3245  -17.0116  -10.7628 Q=   -1.0019 A=    0.0000 R=    0.0000 C=    0.0000
 XYZ=   11.7165  -17.8633  -10.5702 Q=    0.4876 A=    0.0000 R=    0.0000 C=    0.0000
 XYZ=   10.4428  -17.0644  -10.3939 Q=    0.5095 A=    0.0000 R=    0.0000 C=    0.0000
 Pt Chg Charge=              0.0333 electrons
 Pt Chg Dipole moment (Debye):
    X=             10.8850    Y=             -7.6834    Z=              6.6316  Tot=             14.8828
 Pt Chg Quadrupole moment (Debye-Ang):
   XX=            171.1628   YY=            145.1374   ZZ=           -128.3986
   XY=           -142.8942   XZ=            -61.2892   YZ=              0.9082
 Pt Chg Traceless Quadrupole moment (Debye-Ang):
   XX=            108.5289   YY=             82.5036   ZZ=           -191.0325
   XY=           -142.8942   XZ=            -61.2892   YZ=              0.9082
 Pt Chg Octapole moment (Debye-Ang**2):
  XXX=           2427.0815  YYY=          -2466.3160  ZZZ=           1351.7759  XYY=           1775.0608
  XXY=          -1881.9772  XXZ=          -1339.4082  XZZ=            299.8960  YZZ=            545.5962
  YYZ=           -606.2638  XYZ=           1169.3778
 Pt Chg Hexadecapole moment (Debye-Ang**3):
 XXXX=          35549.9993 YYYY=          43654.4056 ZZZZ=          -1492.5325 XXXY=         -25110.5980
 XXXZ=         -20728.6882 YYYX=         -23005.7625 YYYZ=          12520.8095 ZZZX=          -4425.6603
 ZZZY=          -4707.9063 XXYY=          20152.0639 XXZZ=          10437.5516 YYZZ=           -960.5989
 XXYZ=          18519.0866 YYXZ=         -16791.6467 ZZXY=         -10953.0663
 Leave Link  101 at Fri May 15 22:34:56 2020, MaxMem=   134217728 cpu:               0.5 elap:               0.1
 (Enter /home/soft/g16/l202.exe)
                          Input orientation:                          
 ---------------------------------------------------------------------
 Center     Atomic      Atomic             Coordinates (Angstroms)
 Number     Number       Type             X           Y           Z
 ---------------------------------------------------------------------
      1          8           0        8.392325  -11.812941  -11.200483
      2          8           0        8.693246  -14.069272   -9.547113
      3          8           0        5.570392  -12.760041  -10.733807
      4          8           0        6.966193   -9.247795  -10.274305
      5          8           0        6.942642  -11.829381   -8.371044
      6          8           0        8.801253  -12.425877   -6.497294
      7          8           0        4.210768  -13.330605   -7.554598
      8          1           0        8.175276  -12.537815  -10.614239
      9          1           0        9.252154  -11.514100  -10.904475
     10          1           0        8.220090  -13.732742   -8.786125
     11          1           0        8.552802  -15.015659   -9.517782
     12          1           0        4.642708  -12.827827  -10.507888
     13          1           0        5.983752  -12.405170   -9.946767
     14          1           0        6.975152   -9.845016  -11.022289
     15          1           0        7.684375   -8.638472  -10.445098
     16          1           0        7.495574  -12.091052   -7.634819
     17          1           0        7.307461  -10.992840   -8.659728
     18          1           0        9.055634  -11.748983   -5.870127
     19          1           0        8.939496  -13.249901   -6.030278
     20          1           0        4.963781  -12.745268   -7.473460
     21          1           0        4.583488  -14.161788   -7.848620
 ---------------------------------------------------------------------
                    Distance matrix (angstroms):
                    1          2          3          4          5
     1  O    0.000000
     2  O    2.813399   0.000000
     3  O    3.012987   3.588112   0.000000
     4  O    3.077602   5.172829   3.807266   0.000000
     5  O    3.179241   3.076502   2.886494   3.207420   0.000000
     6  O    4.760557   3.466094   5.338368   5.266257   2.705768
     7  O    5.751626   4.960681   3.504496   5.626590   3.222327
     8  H    0.957201   1.937114   2.617079   3.521600   2.655784
     9  H    0.957200   2.946814   3.890613   3.280072   3.442604
    10  H    3.089405   0.957200   3.429360   4.888935   2.329581
    11  H    3.621414   0.957201   3.932086   6.029752   3.749665
    12  H    3.945796   4.344092   0.957200   4.274315   3.294343
    13  H    2.779166   3.204733   0.957200   3.322874   1.932332
    14  H    2.431638   4.792946   3.248683   0.957201   3.311776
    15  H    3.339020   5.596230   4.641078   0.957199   3.877340
    16  H    3.687203   3.000773   3.709124   3.915513   0.957200
    17  H    2.881828   3.488880   3.231441   2.401771   0.957200
    18  H    5.371849   4.362945   6.068322   5.478913   3.275024
    19  H    5.394003   3.619411   5.806377   6.158128   3.388877
    20  H    5.149257   4.467878   3.316332   4.907821   2.358049
    21  H    5.591002   4.447870   3.356066   5.975664   3.358371
                    6          7          8          9         10
     6  O    0.000000
     7  O    4.796767   0.000000
     8  H    4.165767   5.070231   0.000000
     9  H    4.523040   6.319568   1.513901   0.000000
    10  H    2.698962   4.213435   2.184459   3.236500   0.000000
    11  H    3.986483   5.054380   2.735773   3.830526   1.513901
    12  H    5.791366   3.026761   3.546048   4.809382   4.071978
    13  H    4.453943   3.118072   2.294753   3.520463   2.847937
    14  H    5.520061   5.640570   2.976234   2.825679   4.654537
    15  H    5.583638   6.514372   3.933760   3.307294   5.384308
    16  H    1.763765   3.511820   3.088452   3.756208   2.132035
    17  H    2.993515   4.034348   2.638212   3.015366   2.890663
    18  H    0.957201   5.367653   4.889160   5.043654   3.624428
    19  H    0.957199   4.968997   4.701468   5.183489   2.888836
    20  H    3.972544   0.957200   4.496802   5.628302   3.647155
    21  H    4.756996   0.957201   4.815275   6.176159   3.779930
                   11         12         13         14         15
    11  H    0.000000
    12  H    4.588655   0.000000
    13  H    3.687641   1.513901   0.000000
    14  H    5.611423   3.821265   2.948561   0.000000
    15  H    6.502507   5.177487   4.162747   1.513901   0.000000
    16  H    3.635465   4.115362   2.780176   4.097618   4.455740
    17  H    4.297697   3.726095   2.324511   2.647569   2.978701
    18  H    4.922337   6.492045   5.146458   5.873523   5.699648
    19  H    3.928119   6.220090   4.978843   6.353901   6.506246
    20  H    4.713279   3.052484   2.696897   5.005124   5.753089
    21  H    4.389835   2.975679   3.073868   5.867431   6.845745
                   16         17         18         19         20
    16  H    0.000000
    17  H    1.513900   0.000000
    18  H    2.380113   3.377830   0.000000
    19  H    2.449978   3.830388   1.513899   0.000000
    20  H    2.619926   3.157700   4.506276   4.259547   0.000000
    21  H    3.579651   4.256778   5.453086   4.807568   1.513901
                   21
    21  H    0.000000
 Symmetry turned off by external request.
 Stoichiometry    H14O7
 Framework group  C1[X(H14O7)]
 Deg. of freedom    57
 Full point group                 C1      NOp   1
 Rotational constants (GHZ):           0.9696681           0.8411657           0.7086911
 Leave Link  202 at Fri May 15 22:34:56 2020, MaxMem=   134217728 cpu:               0.1 elap:               0.0
 (Enter /home/soft/g16/l301.exe)
 Standard basis: 6-31G(d,p) (5D, 7F)
 Ernie: Thresh=  0.10000D-02 Tol=  0.10000D-05 Strict=F.
   168 basis functions,   294 primitive gaussians,   175 cartesian basis functions
    35 alpha electrons       35 beta electrons
       nuclear repulsion energy       363.5885069694 Hartrees.
 IExCor=    0 DFT=F Ex=HF Corr=None ExCW=0 ScaHFX=  1.000000
 ScaDFX=  1.000000  1.000000  1.000000  1.000000 ScalE2=  1.000000  1.000000
 IRadAn=      5 IRanWt=     -1 IRanGd=            0 ICorTp=0 IEmpDi=  4
 NAtoms=   21 NActive=   21 NUniq=   21 SFac= 1.00D+00 NAtFMM=   60 NAOKFM=F Big=F
 Integral buffers will be    131072 words long.
 Raffenetti 1 integral format.
 Two-electron integral symmetry is turned off.
 Background charge distribution read from rwf.
 PtFMM for NChg=        96 BoxLen=    40.00 Levels= 1 LMax=20 SMax=    22.2 ICnFMM=     1:
 Self energy of the charges =       -11.9603401729 a.u.
 MM   energy of the charges =         0.0000000000 a.u.
 Nuclei-charges interaction =         1.9878409023 a.u.
 Nuclear repulsion after external point charges =      353.6160076989 Hartrees.
 Leave Link  301 at Fri May 15 22:34:56 2020, MaxMem=   134217728 cpu:               0.2 elap:               0.1
 (Enter /home/soft/g16/l302.exe)
 NPDir=0 NMtPBC=     1 NCelOv=     1 NCel=       1 NClECP=     1 NCelD=      1
         NCelK=      1 NCelE2=     1 NClLst=     1 CellRange=     0.0.
 One-electron integrals computed using PRISM.
 NBasis=   168 RedAO= T EigKep=  2.08D-02  NBF=   168
 NBsUse=   168 1.00D-06 EigRej= -1.00D+00 NBFU=   168
 Leave Link  302 at Fri May 15 22:34:56 2020, MaxMem=   134217728 cpu:               0.5 elap:               0.1
 (Enter /home/soft/g16/l303.exe)
 DipDrv:  MaxL=1.
 Leave Link  303 at Fri May 15 22:34:56 2020, MaxMem=   134217728 cpu:               0.1 elap:               0.0
 (Enter /home/soft/g16/l401.exe)
 ExpMin= 1.61D-01 ExpMax= 5.48D+03 ExpMxC= 8.25D+02 IAcc=3 IRadAn=         5 AccDes= 0.00D+00
 Harris functional with IExCor=  205 and IRadAn=       5 diagonalized for initial guess.
 HarFok:  IExCor=  205 AccDes= 0.00D+00 IRadAn=         5 IDoV= 1 UseB2=F ITyADJ=14
 ICtDFT=  3500011 ScaDFX=  1.000000  1.000000  1.000000  1.000000
 FoFCou: FMM=F IPFlag=           0 FMFlag=      100000 FMFlg1=           0
         NFxFlg=           0 DoJE=T BraDBF=F KetDBF=T FulRan=T
         wScrn=  0.000000 ICntrl=       500 IOpCl=  0 I1Cent=   200000004 NGrid=           0
         NMat0=    1 NMatS0=      1 NMatT0=    0 NMatD0=    1 NMtDS0=    0 NMtDT0=    0
 Symmetry not used in FoFCou.
 Harris En= -544.907328233334    
 JPrj=0 DoOrth=F DoCkMO=F.
 Leave Link  401 at Fri May 15 22:34:57 2020, MaxMem=   134217728 cpu:               3.9 elap:               1.0
 (Enter /home/soft/g16/l502.exe)
 Keep R1 ints in memory in canonical form, NReq=103496905.
 FoFCou: FMM=F IPFlag=           0 FMFlag=           0 FMFlg1=           0
         NFxFlg=           0 DoJE=F BraDBF=F KetDBF=F FulRan=T
         wScrn=  0.000000 ICntrl=       600 IOpCl=  0 I1Cent=           0 NGrid=           0
         NMat0=    1 NMatS0=  14196 NMatT0=    0 NMatD0=    1 NMtDS0=    0 NMtDT0=    0
 Symmetry not used in FoFCou.
 Two-electron integral symmetry not used.
 Closed shell SCF:
 Using DIIS extrapolation, IDIIS=  1040.
 NGot=   134217728 LenX=    33383508 LenY=    33352442
 Requested convergence on RMS density matrix=1.00D-08 within 128 cycles.
 Requested convergence on MAX density matrix=1.00D-06.
 Requested convergence on             energy=1.00D-06.
 No special actions if energy rises.

 Cycle   1  Pass 1  IDiag  1:
 E= -543.744215807959    
 DIIS: error= 4.41D-02 at cycle   1 NSaved=   1.
 NSaved= 1 IEnMin= 1 EnMin= -543.744215807959     IErMin= 1 ErrMin= 4.41D-02
 ErrMax= 4.41D-02  0.00D+00 EMaxC= 1.00D-01 BMatC= 7.97D-01 BMatP= 7.97D-01
 IDIUse=3 WtCom= 5.59D-01 WtEn= 4.41D-01
 Coeff-Com:  0.100D+01
 Coeff-En:   0.100D+01
 Coeff:      0.100D+01
 Gap=     0.534 Goal=   None    Shift=    0.000
 GapD=    0.534 DampG=2.000 DampE=0.500 DampFc=1.0000 IDamp=-1.
 RMSDP=4.30D-03 MaxDP=1.23D-01              OVMax= 1.17D-01

 Cycle   2  Pass 1  IDiag  1:
 E= -544.111457182019     Delta-E=       -0.367241374060 Rises=F Damp=F
 DIIS: error= 2.43D-02 at cycle   2 NSaved=   2.
 NSaved= 2 IEnMin= 2 EnMin= -544.111457182019     IErMin= 2 ErrMin= 2.43D-02
 ErrMax= 2.43D-02  0.00D+00 EMaxC= 1.00D-01 BMatC= 2.32D-01 BMatP= 7.97D-01
 IDIUse=3 WtCom= 7.57D-01 WtEn= 2.43D-01
 Coeff-Com:  0.337D+00 0.663D+00
 Coeff-En:   0.621D-01 0.938D+00
 Coeff:      0.270D+00 0.730D+00
 Gap=     0.596 Goal=   None    Shift=    0.000
 RMSDP=1.91D-03 MaxDP=5.24D-02 DE=-3.67D-01 OVMax= 4.76D-02

 Cycle   3  Pass 1  IDiag  1:
 E= -544.266271017231     Delta-E=       -0.154813835212 Rises=F Damp=F
 DIIS: error= 3.81D-03 at cycle   3 NSaved=   3.
 NSaved= 3 IEnMin= 3 EnMin= -544.266271017231     IErMin= 3 ErrMin= 3.81D-03
 ErrMax= 3.81D-03  0.00D+00 EMaxC= 1.00D-01 BMatC= 5.27D-03 BMatP= 2.32D-01
 IDIUse=3 WtCom= 9.62D-01 WtEn= 3.81D-02
 Coeff-Com: -0.315D-01 0.851D-01 0.946D+00
 Coeff-En:   0.000D+00 0.000D+00 0.100D+01
 Coeff:     -0.303D-01 0.819D-01 0.948D+00
 Gap=     0.586 Goal=   None    Shift=    0.000
 RMSDP=2.57D-04 MaxDP=7.80D-03 DE=-1.55D-01 OVMax= 8.46D-03

 Cycle   4  Pass 1  IDiag  1:
 E= -544.270382939677     Delta-E=       -0.004111922446 Rises=F Damp=F
 DIIS: error= 3.54D-04 at cycle   4 NSaved=   4.
 NSaved= 4 IEnMin= 4 EnMin= -544.270382939677     IErMin= 4 ErrMin= 3.54D-04
 ErrMax= 3.54D-04  0.00D+00 EMaxC= 1.00D-01 BMatC= 4.84D-05 BMatP= 5.27D-03
 IDIUse=3 WtCom= 9.96D-01 WtEn= 3.54D-03
 Coeff-Com:  0.382D-02-0.314D-01-0.222D+00 0.125D+01
 Coeff-En:   0.000D+00 0.000D+00 0.000D+00 0.100D+01
 Coeff:      0.381D-02-0.313D-01-0.221D+00 0.125D+01
 Gap=     0.588 Goal=   None    Shift=    0.000
 RMSDP=6.61D-05 MaxDP=1.21D-03 DE=-4.11D-03 OVMax= 2.10D-03

 Cycle   5  Pass 1  IDiag  1:
 E= -544.270473080428     Delta-E=       -0.000090140751 Rises=F Damp=F
 DIIS: error= 1.39D-04 at cycle   5 NSaved=   5.
 NSaved= 5 IEnMin= 5 EnMin= -544.270473080428     IErMin= 5 ErrMin= 1.39D-04
 ErrMax= 1.39D-04  0.00D+00 EMaxC= 1.00D-01 BMatC= 6.01D-06 BMatP= 4.84D-05
 IDIUse=3 WtCom= 9.99D-01 WtEn= 1.39D-03
 Coeff-Com:  0.297D-02-0.136D-01-0.114D+00 0.306D+00 0.819D+00
 Coeff-En:   0.000D+00 0.000D+00 0.000D+00 0.000D+00 0.100D+01
 Coeff:      0.297D-02-0.135D-01-0.114D+00 0.305D+00 0.819D+00
 Gap=     0.589 Goal=   None    Shift=    0.000
 RMSDP=1.61D-05 MaxDP=4.77D-04 DE=-9.01D-05 OVMax= 6.90D-04

 Cycle   6  Pass 1  IDiag  1:
 E= -544.270480420707     Delta-E=       -0.000007340279 Rises=F Damp=F
 DIIS: error= 3.64D-05 at cycle   6 NSaved=   6.
 NSaved= 6 IEnMin= 6 EnMin= -544.270480420707     IErMin= 6 ErrMin= 3.64D-05
 ErrMax= 3.64D-05  0.00D+00 EMaxC= 1.00D-01 BMatC= 3.88D-07 BMatP= 6.01D-06
 IDIUse=1 WtCom= 1.00D+00 WtEn= 0.00D+00
 Coeff-Com: -0.181D-03 0.214D-02 0.159D-01-0.113D+00 0.227D-01 0.107D+01
 Coeff:     -0.181D-03 0.214D-02 0.159D-01-0.113D+00 0.227D-01 0.107D+01
 Gap=     0.589 Goal=   None    Shift=    0.000
 RMSDP=6.59D-06 MaxDP=1.33D-04 DE=-7.34D-06 OVMax= 2.02D-04

 Cycle   7  Pass 1  IDiag  1:
 E= -544.270481145255     Delta-E=       -0.000000724548 Rises=F Damp=F
 DIIS: error= 7.19D-06 at cycle   7 NSaved=   7.
 NSaved= 7 IEnMin= 7 EnMin= -544.270481145255     IErMin= 7 ErrMin= 7.19D-06
 ErrMax= 7.19D-06  0.00D+00 EMaxC= 1.00D-01 BMatC= 1.43D-08 BMatP= 3.88D-07
 IDIUse=1 WtCom= 1.00D+00 WtEn= 0.00D+00
 Coeff-Com: -0.157D-03 0.665D-03 0.595D-02-0.123D-01-0.519D-01-0.441D-01
 Coeff-Com:  0.110D+01
 Coeff:     -0.157D-03 0.665D-03 0.595D-02-0.123D-01-0.519D-01-0.441D-01
 Coeff:      0.110D+01
 Gap=     0.589 Goal=   None    Shift=    0.000
 RMSDP=1.38D-06 MaxDP=2.33D-05 DE=-7.25D-07 OVMax= 4.63D-05

 Cycle   8  Pass 1  IDiag  1:
 E= -544.270481174223     Delta-E=       -0.000000028968 Rises=F Damp=F
 DIIS: error= 2.16D-06 at cycle   8 NSaved=   8.
 NSaved= 8 IEnMin= 8 EnMin= -544.270481174223     IErMin= 8 ErrMin= 2.16D-06
 ErrMax= 2.16D-06  0.00D+00 EMaxC= 1.00D-01 BMatC= 7.98D-10 BMatP= 1.43D-08
 IDIUse=1 WtCom= 1.00D+00 WtEn= 0.00D+00
 Coeff-Com:  0.121D-04-0.106D-03-0.873D-03 0.485D-02 0.153D-02-0.349D-01
 Coeff-Com: -0.516D-01 0.108D+01
 Coeff:      0.121D-04-0.106D-03-0.873D-03 0.485D-02 0.153D-02-0.349D-01
 Coeff:     -0.516D-01 0.108D+01
 Gap=     0.589 Goal=   None    Shift=    0.000
 RMSDP=2.21D-07 MaxDP=6.60D-06 DE=-2.90D-08 OVMax= 6.87D-06

 Cycle   9  Pass 1  IDiag  1:
 E= -544.270481175543     Delta-E=       -0.000000001320 Rises=F Damp=F
 DIIS: error= 6.48D-07 at cycle   9 NSaved=   9.
 NSaved= 9 IEnMin= 9 EnMin= -544.270481175543     IErMin= 9 ErrMin= 6.48D-07
 ErrMax= 6.48D-07  0.00D+00 EMaxC= 1.00D-01 BMatC= 1.37D-10 BMatP= 7.98D-10
 IDIUse=1 WtCom= 1.00D+00 WtEn= 0.00D+00
 Coeff-Com:  0.206D-04-0.102D-03-0.896D-03 0.254D-02 0.662D-02-0.173D-02
 Coeff-Com: -0.143D+00 0.249D+00 0.888D+00
 Coeff:      0.206D-04-0.102D-03-0.896D-03 0.254D-02 0.662D-02-0.173D-02
 Coeff:     -0.143D+00 0.249D+00 0.888D+00
 Gap=     0.589 Goal=   None    Shift=    0.000
 RMSDP=7.45D-08 MaxDP=3.28D-06 DE=-1.32D-09 OVMax= 2.71D-06

 Cycle  10  Pass 1  IDiag  1:
 E= -544.270481175720     Delta-E=       -0.000000000177 Rises=F Damp=F
 DIIS: error= 1.89D-07 at cycle  10 NSaved=  10.
 NSaved=10 IEnMin=10 EnMin= -544.270481175720     IErMin=10 ErrMin= 1.89D-07
 ErrMax= 1.89D-07  0.00D+00 EMaxC= 1.00D-01 BMatC= 4.31D-12 BMatP= 1.37D-10
 IDIUse=1 WtCom= 1.00D+00 WtEn= 0.00D+00
 Coeff-Com: -0.140D-05 0.996D-05 0.856D-04-0.437D-03-0.175D-03 0.279D-02
 Coeff-Com:  0.480D-02-0.761D-01-0.155D-01 0.108D+01
 Coeff:     -0.140D-05 0.996D-05 0.856D-04-0.437D-03-0.175D-03 0.279D-02
 Coeff:      0.480D-02-0.761D-01-0.155D-01 0.108D+01
 Gap=     0.589 Goal=   None    Shift=    0.000
 RMSDP=1.88D-08 MaxDP=4.96D-07 DE=-1.77D-10 OVMax= 6.50D-07

 Cycle  11  Pass 1  IDiag  1:
 E= -544.270481175715     Delta-E=        0.000000000004 Rises=F Damp=F
 DIIS: error= 3.21D-08 at cycle  11 NSaved=  11.
 NSaved=11 IEnMin=10 EnMin= -544.270481175720     IErMin=11 ErrMin= 3.21D-08
 ErrMax= 3.21D-08  0.00D+00 EMaxC= 1.00D-01 BMatC= 1.94D-13 BMatP= 4.31D-12
 IDIUse=1 WtCom= 1.00D+00 WtEn= 0.00D+00
 Coeff-Com: -0.837D-06 0.388D-05 0.346D-04-0.821D-04-0.295D-03-0.220D-03
 Coeff-Com:  0.614D-02-0.130D-02-0.406D-01-0.167D+00 0.120D+01
 Coeff:     -0.837D-06 0.388D-05 0.346D-04-0.821D-04-0.295D-03-0.220D-03
 Coeff:      0.614D-02-0.130D-02-0.406D-01-0.167D+00 0.120D+01
 Gap=     0.589 Goal=   None    Shift=    0.000
 RMSDP=5.59D-09 MaxDP=1.23D-07 DE= 4.32D-12 OVMax= 2.15D-07

 SCF Done:  E(RHF) =  -544.270481176     A.U. after   11 cycles
            NFock= 11  Conv=0.56D-08     -V/T= 2.0243
 KE= 5.313617836365D+02 PE=-1.994198752655D+03 EE= 5.649504801435D+02
 Leave Link  502 at Fri May 15 22:35:00 2020, MaxMem=   134217728 cpu:               5.9 elap:               2.9
 (Enter /home/soft/g16/l601.exe)
 Copying SCF densities to generalized density rwf, IOpCl= 0 IROHF=0.

 **********************************************************************

            Population analysis using the SCF density.

 **********************************************************************

 Alpha  occ. eigenvalues --  -20.66233 -20.60807 -20.58885 -20.55213 -20.55087
 Alpha  occ. eigenvalues --  -20.54899 -20.52520  -1.44757  -1.39408  -1.37788
 Alpha  occ. eigenvalues --   -1.33578  -1.33553  -1.33040  -1.31036  -0.80841
 Alpha  occ. eigenvalues --   -0.76702  -0.75191  -0.70357  -0.69973  -0.69454
 Alpha  occ. eigenvalues --   -0.68063  -0.67382  -0.62797  -0.61226  -0.59407
 Alpha  occ. eigenvalues --   -0.57737  -0.56987  -0.56651  -0.54635  -0.54254
 Alpha  occ. eigenvalues --   -0.53146  -0.50225  -0.49546  -0.48287  -0.47135
 Alpha virt. eigenvalues --    0.11776   0.18492   0.21836   0.22592   0.24859
 Alpha virt. eigenvalues --    0.29384   0.30893   0.31789   0.33558   0.35996
 Alpha virt. eigenvalues --    0.37032   0.42149   0.43261   0.46606   0.89028
 Alpha virt. eigenvalues --    0.93472   0.96931   0.97751   0.99920   1.01365
 Alpha virt. eigenvalues --    1.02174   1.04230   1.05894   1.07119   1.07925
 Alpha virt. eigenvalues --    1.09604   1.10635   1.10816   1.12908   1.13609
 Alpha virt. eigenvalues --    1.14906   1.15173   1.16822   1.18386   1.20920
 Alpha virt. eigenvalues --    1.22987   1.23187   1.24970   1.26677   1.29208
 Alpha virt. eigenvalues --    1.31309   1.31842   1.33084   1.34044   1.34748
 Alpha virt. eigenvalues --    1.40263   1.41306   1.43904   1.44787   1.55426
 Alpha virt. eigenvalues --    1.61130   1.64780   1.67297   1.68523   1.70087
 Alpha virt. eigenvalues --    1.72562   1.74684   1.76281   1.77952   1.80298
 Alpha virt. eigenvalues --    1.81138   1.81218   1.82301   1.83252   1.83517
 Alpha virt. eigenvalues --    1.84030   1.84742   1.85207   1.87771   1.91854
 Alpha virt. eigenvalues --    1.92859   1.94571   1.95015   1.96820   1.98251
 Alpha virt. eigenvalues --    2.05585   2.12053   2.46546   2.49307   2.52395
 Alpha virt. eigenvalues --    2.54541   2.58241   2.59527   2.59931   2.60228
 Alpha virt. eigenvalues --    2.60863   2.61771   2.62281   2.65991   2.67628
 Alpha virt. eigenvalues --    2.71360   2.73827   2.78123   2.81937   2.83292
 Alpha virt. eigenvalues --    2.84322   2.86471   2.87419   2.90715   2.93689
 Alpha virt. eigenvalues --    2.94400   2.95466   2.98100   2.98741   2.99173
 Alpha virt. eigenvalues --    3.00749   3.01169   3.01829   3.02172   3.02819
 Alpha virt. eigenvalues --    3.03594   3.04715   3.28552   3.34700   3.38612
 Alpha virt. eigenvalues --    3.39749   3.41988   3.42950   3.44039   3.66541
 Alpha virt. eigenvalues --    3.74484   3.77731   3.78557   3.81955   3.82397
 Alpha virt. eigenvalues --    3.84076   3.85144   3.93845   3.94591   3.97433
 Alpha virt. eigenvalues --    4.01586   4.02880   4.03580
          Condensed to atoms (all electrons):
               1          2          3          4          5          6
     1  O    8.178836  -0.010769  -0.001205  -0.003242  -0.001511  -0.000001
     2  O   -0.010769   8.107152  -0.000189  -0.000000  -0.004223  -0.000317
     3  O   -0.001205  -0.000189   8.200531  -0.000151  -0.008275  -0.000000
     4  O   -0.003242  -0.000000  -0.000151   8.117044  -0.003453  -0.000000
     5  O   -0.001511  -0.004223  -0.008275  -0.003453   8.153490  -0.018786
     6  O   -0.000001  -0.000317  -0.000000  -0.000000  -0.018786   8.075579
     7  O   -0.000000  -0.000000  -0.000718  -0.000000  -0.002359  -0.000002
     8  H    0.306979   0.019487   0.003260   0.000154   0.003874  -0.000014
     9  H    0.316489   0.000955   0.000056   0.000784   0.000189   0.000004
    10  H    0.000663   0.297614   0.000205   0.000002   0.014232   0.002601
    11  H    0.000421   0.311609   0.000038   0.000000   0.000011   0.000007
    12  H    0.000066   0.000003   0.314255   0.000003   0.000256   0.000000
    13  H    0.000920   0.000799   0.306875   0.000369   0.013551   0.000002
    14  H    0.012383   0.000002   0.001468   0.311300   0.000254  -0.000000
    15  H    0.000312   0.000000  -0.000001   0.317710   0.000057   0.000000
    16  H    0.000080   0.000185   0.000234  -0.000108   0.301633   0.017979
    17  H    0.003048   0.000183   0.000403   0.019690   0.300061   0.001068
    18  H    0.000000   0.000018   0.000000   0.000000   0.000882   0.311169
    19  H    0.000000   0.000198   0.000000   0.000000   0.000612   0.313621
    20  H    0.000001   0.000002   0.000238  -0.000001   0.011413   0.000038
    21  H   -0.000000   0.000003   0.000711   0.000000   0.000114  -0.000000
               7          8          9         10         11         12
     1  O   -0.000000   0.306979   0.316489   0.000663   0.000421   0.000066
     2  O   -0.000000   0.019487   0.000955   0.297614   0.311609   0.000003
     3  O   -0.000718   0.003260   0.000056   0.000205   0.000038   0.314255
     4  O   -0.000000   0.000154   0.000784   0.000002   0.000000   0.000003
     5  O   -0.002359   0.003874   0.000189   0.014232   0.000011   0.000256
     6  O   -0.000002  -0.000014   0.000004   0.002601   0.000007   0.000000
     7  O    8.135532  -0.000001   0.000000   0.000009   0.000000   0.002871
     8  H   -0.000001   0.299240  -0.022248  -0.002675  -0.000391  -0.000107
     9  H    0.000000  -0.022248   0.304523   0.000044  -0.000017  -0.000002
    10  H    0.000009  -0.002675   0.000044   0.351174  -0.018990   0.000008
    11  H    0.000000  -0.000391  -0.000017  -0.018990   0.339507  -0.000000
    12  H    0.002871  -0.000107  -0.000002   0.000008  -0.000000   0.293164
    13  H    0.001346  -0.000875  -0.000034   0.000194   0.000012  -0.019158
    14  H   -0.000000  -0.000328  -0.000629  -0.000004  -0.000000  -0.000023
    15  H   -0.000000   0.000006   0.000076  -0.000000  -0.000000   0.000000
    16  H    0.000245  -0.000127  -0.000004  -0.001190  -0.000009  -0.000018
    17  H    0.000078  -0.000348   0.000225  -0.000494   0.000002   0.000015
    18  H   -0.000000  -0.000000  -0.000000  -0.000034  -0.000001  -0.000000
    19  H    0.000000  -0.000001  -0.000000  -0.000197   0.000008  -0.000000
    20  H    0.312642  -0.000003  -0.000000  -0.000029  -0.000001  -0.000047
    21  H    0.316183   0.000000  -0.000000   0.000028   0.000002   0.000092
              13         14         15         16         17         18
     1  O    0.000920   0.012383   0.000312   0.000080   0.003048   0.000000
     2  O    0.000799   0.000002   0.000000   0.000185   0.000183   0.000018
     3  O    0.306875   0.001468  -0.000001   0.000234   0.000403   0.000000
     4  O    0.000369   0.311300   0.317710  -0.000108   0.019690   0.000000
     5  O    0.013551   0.000254   0.000057   0.301633   0.300061   0.000882
     6  O    0.000002  -0.000000   0.000000   0.017979   0.001068   0.311169
     7  O    0.001346  -0.000000  -0.000000   0.000245   0.000078  -0.000000
     8  H   -0.000875  -0.000328   0.000006  -0.000127  -0.000348  -0.000000
     9  H   -0.000034  -0.000629   0.000076  -0.000004   0.000225  -0.000000
    10  H    0.000194  -0.000004  -0.000000  -0.001190  -0.000494  -0.000034
    11  H    0.000012  -0.000000  -0.000000  -0.000009   0.000002  -0.000001
    12  H   -0.019158  -0.000023   0.000000  -0.000018   0.000015  -0.000000
    13  H    0.306153  -0.000005  -0.000010  -0.000258  -0.001466  -0.000000
    14  H   -0.000005   0.312039  -0.022894   0.000015  -0.001281  -0.000000
    15  H   -0.000010  -0.022894   0.324483  -0.000000  -0.000372  -0.000000
    16  H   -0.000258   0.000015  -0.000000   0.304464  -0.018130  -0.001387
    17  H   -0.001466  -0.001281  -0.000372  -0.018130   0.334831  -0.000008
    18  H   -0.000000  -0.000000  -0.000000  -0.001387  -0.000008   0.355129
    19  H   -0.000001  -0.000000  -0.000000  -0.000628  -0.000007  -0.021549
    20  H    0.000485  -0.000000   0.000000  -0.000046  -0.000228  -0.000003
    21  H    0.000135  -0.000000   0.000000   0.000030  -0.000002  -0.000000
              19         20         21
     1  O    0.000000   0.000001  -0.000000
     2  O    0.000198   0.000002   0.000003
     3  O    0.000000   0.000238   0.000711
     4  O    0.000000  -0.000001   0.000000
     5  O    0.000612   0.011413   0.000114
     6  O    0.313621   0.000038  -0.000000
     7  O    0.000000   0.312642   0.316183
     8  H   -0.000001  -0.000003   0.000000
     9  H   -0.000000  -0.000000  -0.000000
    10  H   -0.000197  -0.000029   0.000028
    11  H    0.000008  -0.000001   0.000002
    12  H   -0.000000  -0.000047   0.000092
    13  H   -0.000001   0.000485   0.000135
    14  H   -0.000000  -0.000000  -0.000000
    15  H   -0.000000   0.000000   0.000000
    16  H   -0.000628  -0.000046   0.000030
    17  H   -0.000007  -0.000228  -0.000002
    18  H   -0.021549  -0.000003  -0.000000
    19  H    0.331759  -0.000003  -0.000000
    20  H   -0.000003   0.338130  -0.023741
    21  H   -0.000000  -0.023741   0.310801
 Mulliken charges:
               1
     1  O   -0.803470
     2  O   -0.722711
     3  O   -0.817733
     4  O   -0.760099
     5  O   -0.762023
     6  O   -0.702947
     7  O   -0.765826
     8  H    0.394122
     9  H    0.399589
    10  H    0.356840
    11  H    0.367793
    12  H    0.408622
    13  H    0.390965
    14  H    0.387703
    15  H    0.380635
    16  H    0.397041
    17  H    0.362731
    18  H    0.355783
    19  H    0.376187
    20  H    0.361153
    21  H    0.395646
 Sum of Mulliken charges =  -0.00000
 Mulliken charges with hydrogens summed into heavy atoms:
               1
     1  O   -0.009759
     2  O    0.001922
     3  O   -0.018146
     4  O    0.008239
     5  O   -0.002251
     6  O    0.029022
     7  O   -0.009027
 Electronic spatial extent (au):  <R**2>=          72737.5737
 Charge=             -0.0000 electrons
 Dipole moment (field-independent basis, Debye):
    X=              6.0188    Y=             -1.1284    Z=              6.7898  Tot=              9.1433
 Quadrupole moment (field-independent basis, Debye-Ang):
   XX=             37.8228   YY=             -1.2981   ZZ=           -163.4760
   XY=            -75.4811   XZ=              6.4086   YZ=            -80.6443
 Traceless Quadrupole moment (field-independent basis, Debye-Ang):
   XX=             80.1399   YY=             41.0190   ZZ=           -121.1589
   XY=            -75.4811   XZ=              6.4086   YZ=            -80.6443
 Octapole moment (field-independent basis, Debye-Ang**2):
  XXX=            -63.7232  YYY=            532.2745  ZZZ=           2862.5732  XYY=            770.3415
  XXY=           -420.8773  XXZ=            169.4516  XZZ=           -851.8882  YZZ=           2061.0620
  YYZ=           1219.5231  XYZ=           -132.4828
 Hexadecapole moment (field-independent basis, Debye-Ang**3):
 XXXX=          -5447.1548 YYYY=         -17010.9867 ZZZZ=         -44052.9319 XXXY=           1531.2410
 XXXZ=           4831.8745 YYYX=          -5510.8415 YYYZ=         -20753.1227 ZZZX=          17912.1010
 ZZZY=         -36383.1788 XXYY=           3414.3383 XXZZ=          -7783.4032 YYZZ=         -28510.9145
 XXYZ=          -3027.4453 YYXZ=           3861.6661 ZZXY=          11624.9991
 N-N= 3.536160076989D+02 E-N=-1.994198753134D+03  KE= 5.313617836365D+02
 No NMR shielding tensors so no spin-rotation constants.
 Leave Link  601 at Fri May 15 22:35:00 2020, MaxMem=   134217728 cpu:               0.6 elap:               0.2
 (Enter /home/soft/g16/l607.exe)
 ******************************Gaussian NBO Version 3.1******************************
             N A T U R A L   A T O M I C   O R B I T A L   A N D
          N A T U R A L   B O N D   O R B I T A L   A N A L Y S I S
 ******************************Gaussian NBO Version 3.1******************************
       /RESON  / : Allow strongly delocalized NBO set

 Analyzing the SCF density

 Job title: Atom number=21                                                  

 Storage needed:     86184 in NPA ( 134215397 available)
 GSVD:  LWork=       13440 too small for GESVD, short by       15372 words or       15372 for optimal perf.


 NATURAL POPULATIONS:  Natural atomic orbital occupancies 
                                                          
   NAO  Atom  No  lang   Type(AO)    Occupancy      Energy
 ----------------------------------------------------------
     1    O    1  S      Cor( 1S)     1.99985     -20.37488
     2    O    1  S      Val( 2S)     1.74891      -1.16049
     3    O    1  S      Ryd( 3S)     0.00059       1.92675
     4    O    1  px     Val( 2p)     1.68664      -0.39014
     5    O    1  px     Ryd( 3p)     0.00148       1.33258
     6    O    1  py     Val( 2p)     1.75783      -0.41749
     7    O    1  py     Ryd( 3p)     0.00147       1.29979
     8    O    1  pz     Val( 2p)     1.85897      -0.45799
     9    O    1  pz     Ryd( 3p)     0.00045       1.19480
    10    O    1  dxy    Ryd( 3d)     0.00054       2.54174
    11    O    1  dxz    Ryd( 3d)     0.00125       2.52668
    12    O    1  dyz    Ryd( 3d)     0.00142       2.74600
    13    O    1  dx2y2  Ryd( 3d)     0.00083       2.69802
    14    O    1  dz2    Ryd( 3d)     0.00132       2.36847

    15    O    2  S      Cor( 1S)     1.99985     -20.44177
    16    O    2  S      Val( 2S)     1.75300      -1.20985
    17    O    2  S      Ryd( 3S)     0.00108       1.79208
    18    O    2  px     Val( 2p)     1.90753      -0.52040
    19    O    2  px     Ryd( 3p)     0.00053       1.14439
    20    O    2  py     Val( 2p)     1.57536      -0.40767
    21    O    2  py     Ryd( 3p)     0.00157       1.35535
    22    O    2  pz     Val( 2p)     1.75908      -0.47236
    23    O    2  pz     Ryd( 3p)     0.00121       1.24240
    24    O    2  dxy    Ryd( 3d)     0.00088       2.39434
    25    O    2  dxz    Ryd( 3d)     0.00170       2.52803
    26    O    2  dyz    Ryd( 3d)     0.00082       2.46769
    27    O    2  dx2y2  Ryd( 3d)     0.00119       2.68634
    28    O    2  dz2    Ryd( 3d)     0.00142       2.52701

    29    O    3  S      Cor( 1S)     1.99985     -20.35225
    30    O    3  S      Val( 2S)     1.74951      -1.13594
    31    O    3  S      Ryd( 3S)     0.00074       2.02067
    32    O    3  px     Val( 2p)     1.59106      -0.33476
    33    O    3  px     Ryd( 3p)     0.00170       1.40195
    34    O    3  py     Val( 2p)     1.94594      -0.45463
    35    O    3  py     Ryd( 3p)     0.00084       1.20655
    36    O    3  pz     Val( 2p)     1.76969      -0.40625
    37    O    3  pz     Ryd( 3p)     0.00047       1.24978
    38    O    3  dxy    Ryd( 3d)     0.00025       2.37629
    39    O    3  dxz    Ryd( 3d)     0.00134       2.76705
    40    O    3  dyz    Ryd( 3d)     0.00148       2.46915
    41    O    3  dx2y2  Ryd( 3d)     0.00069       2.73478
    42    O    3  dz2    Ryd( 3d)     0.00171       2.63849

    43    O    4  S      Cor( 1S)     1.99986     -20.38617
    44    O    4  S      Val( 2S)     1.75636      -1.15706
    45    O    4  S      Ryd( 3S)     0.00103       1.73872
    46    O    4  px     Val( 2p)     1.79886      -0.43147
    47    O    4  px     Ryd( 3p)     0.00084       1.21942
    48    O    4  py     Val( 2p)     1.69317      -0.38735
    49    O    4  py     Ryd( 3p)     0.00165       1.29849
    50    O    4  pz     Val( 2p)     1.78725      -0.42904
    51    O    4  pz     Ryd( 3p)     0.00068       1.25586
    52    O    4  dxy    Ryd( 3d)     0.00099       2.73591
    53    O    4  dxz    Ryd( 3d)     0.00117       2.37019
    54    O    4  dyz    Ryd( 3d)     0.00105       2.79039
    55    O    4  dx2y2  Ryd( 3d)     0.00053       2.39574
    56    O    4  dz2    Ryd( 3d)     0.00126       2.54214

    57    O    5  S      Cor( 1S)     1.99983     -20.41035
    58    O    5  S      Val( 2S)     1.73988      -1.19899
    59    O    5  S      Ryd( 3S)     0.00084       1.91372
    60    O    5  px     Val( 2p)     1.85546      -0.49531
    61    O    5  px     Ryd( 3p)     0.00046       1.30893
    62    O    5  py     Val( 2p)     1.68609      -0.43315
    63    O    5  py     Ryd( 3p)     0.00153       1.30429
    64    O    5  pz     Val( 2p)     1.75396      -0.45473
    65    O    5  pz     Ryd( 3p)     0.00132       1.40791
    66    O    5  dxy    Ryd( 3d)     0.00143       2.59329
    67    O    5  dxz    Ryd( 3d)     0.00154       2.70985
    68    O    5  dyz    Ryd( 3d)     0.00044       2.52416
    69    O    5  dx2y2  Ryd( 3d)     0.00122       2.49677
    70    O    5  dz2    Ryd( 3d)     0.00080       2.44895

    71    O    6  S      Cor( 1S)     1.99986     -20.50144
    72    O    6  S      Val( 2S)     1.75120      -1.26059
    73    O    6  S      Ryd( 3S)     0.00113       1.64855
    74    O    6  px     Val( 2p)     1.95552      -0.58695
    75    O    6  px     Ryd( 3p)     0.00079       1.18467
    76    O    6  py     Val( 2p)     1.51027      -0.43997
    77    O    6  py     Ryd( 3p)     0.00216       1.22993
    78    O    6  pz     Val( 2p)     1.77171      -0.53453
    79    O    6  pz     Ryd( 3p)     0.00051       1.22608
    80    O    6  dxy    Ryd( 3d)     0.00017       2.28617
    81    O    6  dxz    Ryd( 3d)     0.00148       2.23858
    82    O    6  dyz    Ryd( 3d)     0.00159       2.98721
    83    O    6  dx2y2  Ryd( 3d)     0.00041       2.56801
    84    O    6  dz2    Ryd( 3d)     0.00155       2.25625

    85    O    7  S      Cor( 1S)     1.99986     -20.38663
    86    O    7  S      Val( 2S)     1.75585      -1.15597
    87    O    7  S      Ryd( 3S)     0.00084       1.77392
    88    O    7  px     Val( 2p)     1.74551      -0.42133
    89    O    7  px     Ryd( 3p)     0.00034       1.20351
    90    O    7  py     Val( 2p)     1.56276      -0.34533
    91    O    7  py     Ryd( 3p)     0.00190       1.32348
    92    O    7  pz     Val( 2p)     1.95745      -0.47843
    93    O    7  pz     Ryd( 3p)     0.00080       1.19428
    94    O    7  dxy    Ryd( 3d)     0.00168       3.02377
    95    O    7  dxz    Ryd( 3d)     0.00161       2.28633
    96    O    7  dyz    Ryd( 3d)     0.00031       2.42889
    97    O    7  dx2y2  Ryd( 3d)     0.00119       2.59764
    98    O    7  dz2    Ryd( 3d)     0.00119       2.49384

    99    H    8  S      Val( 1S)     0.47654       0.37640
   100    H    8  S      Ryd( 2S)     0.00158       0.94447
   101    H    8  px     Ryd( 2p)     0.00055       2.76142
   102    H    8  py     Ryd( 2p)     0.00124       3.11978
   103    H    8  pz     Ryd( 2p)     0.00108       2.95158

   104    H    9  S      Val( 1S)     0.46402       0.40561
   105    H    9  S      Ryd( 2S)     0.00052       0.76651
   106    H    9  px     Ryd( 2p)     0.00161       3.28227
   107    H    9  py     Ryd( 2p)     0.00071       2.74511
   108    H    9  pz     Ryd( 2p)     0.00077       2.72676

   109    H   10  S      Val( 1S)     0.49254       0.30106
   110    H   10  S      Ryd( 2S)     0.00185       0.83963
   111    H   10  px     Ryd( 2p)     0.00109       2.76945
   112    H   10  py     Ryd( 2p)     0.00075       2.74861
   113    H   10  pz     Ryd( 2p)     0.00123       3.11769

   114    H   11  S      Val( 1S)     0.48634       0.31315
   115    H   11  S      Ryd( 2S)     0.00070       0.69076
   116    H   11  px     Ryd( 2p)     0.00081       2.59027
   117    H   11  py     Ryd( 2p)     0.00169       3.35143
   118    H   11  pz     Ryd( 2p)     0.00067       2.60274

   119    H   12  S      Val( 1S)     0.45733       0.44032
   120    H   12  S      Ryd( 2S)     0.00094       0.81032
   121    H   12  px     Ryd( 2p)     0.00174       3.43605
   122    H   12  py     Ryd( 2p)     0.00067       2.65402
   123    H   12  pz     Ryd( 2p)     0.00061       2.73870

   124    H   13  S      Val( 1S)     0.48276       0.39407
   125    H   13  S      Ryd( 2S)     0.00130       0.93360
   126    H   13  px     Ryd( 2p)     0.00067       2.85946
   127    H   13  py     Ryd( 2p)     0.00095       2.75224
   128    H   13  pz     Ryd( 2p)     0.00131       3.22064

   129    H   14  S      Val( 1S)     0.46703       0.39740
   130    H   14  S      Ryd( 2S)     0.00139       0.82852
   131    H   14  px     Ryd( 2p)     0.00056       2.65481
   132    H   14  py     Ryd( 2p)     0.00097       2.97018
   133    H   14  pz     Ryd( 2p)     0.00128       3.14871

   134    H   15  S      Val( 1S)     0.47758       0.38314
   135    H   15  S      Ryd( 2S)     0.00071       0.74128
   136    H   15  px     Ryd( 2p)     0.00129       3.07513
   137    H   15  py     Ryd( 2p)     0.00104       2.96072
   138    H   15  pz     Ryd( 2p)     0.00068       2.68395

   139    H   16  S      Val( 1S)     0.47841       0.33899
   140    H   16  S      Ryd( 2S)     0.00082       0.88612
   141    H   16  px     Ryd( 2p)     0.00113       2.90229
   142    H   16  py     Ryd( 2p)     0.00066       2.72131
   143    H   16  pz     Ryd( 2p)     0.00134       3.09952

   144    H   17  S      Val( 1S)     0.47486       0.33876
   145    H   17  S      Ryd( 2S)     0.00213       0.81657
   146    H   17  px     Ryd( 2p)     0.00076       2.75975
   147    H   17  py     Ryd( 2p)     0.00148       3.23500
   148    H   17  pz     Ryd( 2p)     0.00077       2.73577

   149    H   18  S      Val( 1S)     0.49277       0.24547
   150    H   18  S      Ryd( 2S)     0.00095       0.62942
   151    H   18  px     Ryd( 2p)     0.00091       2.56956
   152    H   18  py     Ryd( 2p)     0.00100       2.97110
   153    H   18  pz     Ryd( 2p)     0.00115       2.86348

   154    H   19  S      Val( 1S)     0.47658       0.27285
   155    H   19  S      Ryd( 2S)     0.00086       0.63872
   156    H   19  px     Ryd( 2p)     0.00080       2.54654
   157    H   19  py     Ryd( 2p)     0.00133       3.14743
   158    H   19  pz     Ryd( 2p)     0.00088       2.73695

   159    H   20  S      Val( 1S)     0.49408       0.35548
   160    H   20  S      Ryd( 2S)     0.00106       0.83236
   161    H   20  px     Ryd( 2p)     0.00128       3.13261
   162    H   20  py     Ryd( 2p)     0.00090       2.96446
   163    H   20  pz     Ryd( 2p)     0.00085       2.61885

   164    H   21  S      Val( 1S)     0.47010       0.39393
   165    H   21  S      Ryd( 2S)     0.00072       0.76045
   166    H   21  px     Ryd( 2p)     0.00077       2.78247
   167    H   21  py     Ryd( 2p)     0.00143       3.24817
   168    H   21  pz     Ryd( 2p)     0.00093       2.68885


 Summary of Natural Population Analysis:                  
                                                          
                                       Natural Population 
                Natural  -----------------------------------------------
    Atom  No    Charge         Core      Valence    Rydberg      Total
 -----------------------------------------------------------------------
      O    1   -1.06153      1.99985     7.05235    0.00934     9.06153
      O    2   -1.00524      1.99985     6.99498    0.01041     9.00524
      O    3   -1.06529      1.99985     7.05621    0.00923     9.06529
      O    4   -1.04470      1.99986     7.03564    0.00920     9.04470
      O    5   -1.04481      1.99983     7.03540    0.00958     9.04481
      O    6   -0.99834      1.99986     6.98869    0.00979     8.99834
      O    7   -1.03129      1.99986     7.02157    0.00987     9.03129
      H    8    0.51901      0.00000     0.47654    0.00446     0.48099
      H    9    0.53237      0.00000     0.46402    0.00361     0.46763
      H   10    0.50255      0.00000     0.49254    0.00492     0.49745
      H   11    0.50980      0.00000     0.48634    0.00386     0.49020
      H   12    0.53871      0.00000     0.45733    0.00396     0.46129
      H   13    0.51301      0.00000     0.48276    0.00423     0.48699
      H   14    0.52877      0.00000     0.46703    0.00420     0.47123
      H   15    0.51869      0.00000     0.47758    0.00373     0.48131
      H   16    0.51764      0.00000     0.47841    0.00395     0.48236
      H   17    0.52000      0.00000     0.47486    0.00514     0.48000
      H   18    0.50321      0.00000     0.49277    0.00402     0.49679
      H   19    0.51956      0.00000     0.47658    0.00386     0.48044
      H   20    0.50184      0.00000     0.49408    0.00408     0.49816
      H   21    0.52604      0.00000     0.47010    0.00386     0.47396
 =======================================================================
   * Total *   -0.00000     13.99896    55.87576    0.12528    70.00000

                                 Natural Population      
 --------------------------------------------------------
   Core                      13.99896 ( 99.9925% of  14)
   Valence                   55.87576 ( 99.7781% of  56)
   Natural Minimal Basis     69.87472 ( 99.8210% of  70)
   Natural Rydberg Basis      0.12528 (  0.1790% of  70)
 --------------------------------------------------------

    Atom  No          Natural Electron Configuration
 ----------------------------------------------------------------------------
      O    1      [core]2S( 1.75)2p( 5.30)3d( 0.01)
      O    2      [core]2S( 1.75)2p( 5.24)3d( 0.01)
      O    3      [core]2S( 1.75)2p( 5.31)3d( 0.01)
      O    4      [core]2S( 1.76)2p( 5.28)
      O    5      [core]2S( 1.74)2p( 5.30)3d( 0.01)
      O    6      [core]2S( 1.75)2p( 5.24)3d( 0.01)
      O    7      [core]2S( 1.76)2p( 5.27)3d( 0.01)
      H    8            1S( 0.48)
      H    9            1S( 0.46)
      H   10            1S( 0.49)
      H   11            1S( 0.49)
      H   12            1S( 0.46)
      H   13            1S( 0.48)
      H   14            1S( 0.47)
      H   15            1S( 0.48)
      H   16            1S( 0.48)
      H   17            1S( 0.47)
      H   18            1S( 0.49)
      H   19            1S( 0.48)
      H   20            1S( 0.49)
      H   21            1S( 0.47)


 NBO analysis skipped by request.
 Leave Link  607 at Fri May 15 22:35:00 2020, MaxMem=   134217728 cpu:               0.7 elap:               0.2
 (Enter /home/soft/g16/l9999.exe)

 Test job not archived.
 1\1\GINC-MASTER\SP\RHF\6-31G(d,p)\H14O7\LIWEI01\15-May-2020\0\\#p hf/6
 -31g** 5d 7f pop=npa charge nosymm\\Atom number=21\\0,1\O,0,8.392325,-
 11.812941,-11.200483\O,0,8.693246,-14.069272,-9.547113\O,0,5.570392,-1
 2.760041,-10.733807\O,0,6.966193,-9.247795,-10.274305\O,0,6.942642,-11
 .829381,-8.371044\O,0,8.801253,-12.425877,-6.497294\O,0,4.210768,-13.3
 30605,-7.554598\H,0,8.175276,-12.537815,-10.614239\H,0,9.252154,-11.51
 41,-10.904475\H,0,8.22009,-13.732742,-8.786125\H,0,8.552802,-15.015659
 ,-9.517782\H,0,4.642708,-12.827827,-10.507888\H,0,5.983752,-12.40517,-
 9.946767\H,0,6.975152,-9.845016,-11.022289\H,0,7.684375,-8.638472,-10.
 445098\H,0,7.495574,-12.091052,-7.634819\H,0,7.307461,-10.99284,-8.659
 728\H,0,9.055634,-11.748983,-5.870127\H,0,8.939496,-13.249901,-6.03027
 8\H,0,4.963781,-12.745268,-7.47346\H,0,4.583488,-14.161788,-7.84862\\V
 ersion=ES64L-G16RevA.03\HF=-544.2704812\RMSD=5.593e-09\Dipole=2.367970
 6,-0.4439301,2.6713043\Quadrupole=59.582039,30.4966531,-90.0786921,-56
 .1183412,4.7646622,-59.957025\PG=C01 [X(H14O7)]\\@


 PATIENCE IS THE ABILITY TO IDLE YOUR MOTOR WHEN
 YOU FEEL LIKE STRIPPING YOUR GEARS.
 Job cpu time:       0 days  0 hours  0 minutes 12.8 seconds.
 Elapsed time:       0 days  0 hours  0 minutes  4.8 seconds.
 File lengths (MBytes):  RWF=     72 Int=      0 D2E=      0 Chk=      8 Scr=      8
 Normal termination of Gaussian 16 at Fri May 15 22:35:00 2020.
