 Entering Gaussian System, Link 0=g16
 Input=w32_33.gjf
 Output=w32_33.log
 Initial command:
 /home/soft/g16/l1.exe "/tmp/liwei01/gaussian/wsr/Gau-6649.inp" -scrdir="/tmp/liwei01/gaussian/wsr/"
 Entering Link 1 = /home/soft/g16/l1.exe PID=      6650.
  
 Copyright (c) 1988,1990,1992,1993,1995,1998,2003,2009,2016,
            Gaussian, Inc.  All Rights Reserved.
  
 This is part of the Gaussian(R) 16 program.  It is based on
 the Gaussian(R) 09 system (copyright 2009, Gaussian, Inc.),
 the Gaussian(R) 03 system (copyright 2003, Gaussian, Inc.),
 the Gaussian(R) 98 system (copyright 1998, Gaussian, Inc.),
 the Gaussian(R) 94 system (copyright 1995, Gaussian, Inc.),
 the Gaussian 92(TM) system (copyright 1992, Gaussian, Inc.),
 the Gaussian 90(TM) system (copyright 1990, Gaussian, Inc.),
 the Gaussian 88(TM) system (copyright 1988, Gaussian, Inc.),
 the Gaussian 86(TM) system (copyright 1986, Carnegie Mellon
 University), and the Gaussian 82(TM) system (copyright 1983,
 Carnegie Mellon University). Gaussian is a federally registered
 trademark of Gaussian, Inc.
  
 This software contains proprietary and confidential information,
 including trade secrets, belonging to Gaussian, Inc.
  
 This software is provided under written license and may be
 used, copied, transmitted, or stored only in accord with that
 written license.
  
 The following legend is applicable only to US Government
 contracts under FAR:
  
                    RESTRICTED RIGHTS LEGEND
  
 Use, reproduction and disclosure by the US Government is
 subject to restrictions as set forth in subparagraphs (a)
 and (c) of the Commercial Computer Software - Restricted
 Rights clause in FAR 52.227-19.
  
 Gaussian, Inc.
 340 Quinnipiac St., Bldg. 40, Wallingford CT 06492
  
  
 ---------------------------------------------------------------
 Warning -- This program may not be used in any manner that
 competes with the business of Gaussian, Inc. or will provide
 assistance to any competitor of Gaussian, Inc.  The licensee
 of this program is prohibited from giving any competitor of
 Gaussian, Inc. access to this program.  By using this program,
 the user acknowledges that Gaussian, Inc. is engaged in the
 business of creating and licensing software in the field of
 computational chemistry and represents and warrants to the
 licensee that it is not a competitor of Gaussian, Inc. and that
 it will not use this program in any manner prohibited above.
 ---------------------------------------------------------------
  

 Cite this work as:
 Gaussian 16, Revision A.03,
 M. J. Frisch, G. W. Trucks, H. B. Schlegel, G. E. Scuseria, 
 M. A. Robb, J. R. Cheeseman, G. Scalmani, V. Barone, 
 G. A. Petersson, H. Nakatsuji, X. Li, M. Caricato, A. V. Marenich, 
 J. Bloino, B. G. Janesko, R. Gomperts, B. Mennucci, H. P. Hratchian, 
 J. V. Ortiz, A. F. Izmaylov, J. L. Sonnenberg, D. Williams-Young, 
 F. Ding, F. Lipparini, F. Egidi, J. Goings, B. Peng, A. Petrone, 
 T. Henderson, D. Ranasinghe, V. G. Zakrzewski, J. Gao, N. Rega, 
 G. Zheng, W. Liang, M. Hada, M. Ehara, K. Toyota, R. Fukuda, 
 J. Hasegawa, M. Ishida, T. Nakajima, Y. Honda, O. Kitao, H. Nakai, 
 T. Vreven, K. Throssell, J. A. Montgomery, Jr., J. E. Peralta, 
 F. Ogliaro, M. J. Bearpark, J. J. Heyd, E. N. Brothers, K. N. Kudin, 
 V. N. Staroverov, T. A. Keith, R. Kobayashi, J. Normand, 
 K. Raghavachari, A. P. Rendell, J. C. Burant, S. S. Iyengar, 
 J. Tomasi, M. Cossi, J. M. Millam, M. Klene, C. Adamo, R. Cammi, 
 J. W. Ochterski, R. L. Martin, K. Morokuma, O. Farkas, 
 J. B. Foresman, and D. J. Fox, Gaussian, Inc., Wallingford CT, 2016.
 
 ******************************************
 Gaussian 16:  ES64L-G16RevA.03 25-Dec-2016
                15-May-2020 
 ******************************************
 %chk=w32_33.chk
 %nproc=4
 Will use up to    4 processors via shared memory.
 %mem=1gb
 -----------------------------------------
 #p hf/6-31g** 5d 7f pop=npa charge nosymm
 -----------------------------------------
 1/18=10,28=-2,38=1,125=101,172=1/1;
 2/12=2,15=1,17=6,18=5,40=1/2;
 3/5=1,6=6,7=101,8=11,11=9,25=1,30=1/1,2,3;
 4//1;
 5/5=2,38=5/2;
 6/7=2,8=2,9=2,10=2,28=1,40=-1/1,7;
 99/5=1,9=1/99;
 Leave Link    1 at Fri May 15 22:35:36 2020, MaxMem=   134217728 cpu:               0.3 elap:               0.1
 (Enter /home/soft/g16/l101.exe)
 --------------
 Atom number=12
 --------------
 Symbolic Z-matrix:
 Charge =  0 Multiplicity = 1
 o                     8.39232  -11.81294  -11.20048 
 o                     7.25028  -9.85963  -13.10346 
 o                     6.96619  -9.24779  -10.27431 
 o                     10.08491  -9.603    -13.69441 
 h                     8.17528  -12.53782  -10.61424 
 h                     9.25215  -11.5141  -10.90447 
 h                     7.12066  -10.22147  -13.9801 
 h                     7.34148  -10.62674  -12.53826 
 h                     6.97515  -9.84502  -11.02229 
 h                     7.68438  -8.63847  -10.4451 
 h                     9.83796  -9.87791  -14.5774 
 h                     9.26711  -9.62837  -13.19764 
 
 ITRead=  0  0  0  0  0  0  0  0  0  0  0  0
 MicOpt= -1 -1 -1 -1 -1 -1 -1 -1 -1 -1 -1 -1
 NAtoms=     12 NQM=       12 NQMF=       0 NMMI=      0 NMMIF=      0
                NMic=       0 NMicF=      0.
                    Isotopes and Nuclear Properties:
 (Nuclear quadrupole moments (NQMom) in fm**2, nuclear magnetic moments (NMagM)
  in nuclear magnetons)

  Atom         1           2           3           4           5           6           7           8           9          10
 IAtWgt=          16          16          16          16           1           1           1           1           1           1
 AtmWgt=  15.9949146  15.9949146  15.9949146  15.9949146   1.0078250   1.0078250   1.0078250   1.0078250   1.0078250   1.0078250
 NucSpn=           0           0           0           0           1           1           1           1           1           1
 AtZEff=  -0.0000000  -0.0000000  -0.0000000  -0.0000000  -0.0000000  -0.0000000  -0.0000000  -0.0000000  -0.0000000  -0.0000000
 NQMom=    0.0000000   0.0000000   0.0000000   0.0000000   0.0000000   0.0000000   0.0000000   0.0000000   0.0000000   0.0000000
 NMagM=    0.0000000   0.0000000   0.0000000   0.0000000   2.7928460   2.7928460   2.7928460   2.7928460   2.7928460   2.7928460
 AtZNuc=   8.0000000   8.0000000   8.0000000   8.0000000   1.0000000   1.0000000   1.0000000   1.0000000   1.0000000   1.0000000

  Atom        11          12
 IAtWgt=           1           1
 AtmWgt=   1.0078250   1.0078250
 NucSpn=           1           1
 AtZEff=  -0.0000000  -0.0000000
 NQMom=    0.0000000   0.0000000
 NMagM=    2.7928460   2.7928460
 AtZNuc=   1.0000000   1.0000000
 Background charge distribution read from input stream:
 Point Charges:
 XYZ=   10.7060  -10.8489  -10.0915 Q=   -1.0357 A=    0.0000 R=    0.0000 C=    0.0000
 XYZ=   11.5214  -11.3203   -9.9208 Q=    0.5206 A=    0.0000 R=    0.0000 C=    0.0000
 XYZ=   10.5678  -10.3169   -9.3078 Q=    0.5156 A=    0.0000 R=    0.0000 C=    0.0000
 XYZ=    8.6932  -14.0693   -9.5471 Q=   -1.0099 A=    0.0000 R=    0.0000 C=    0.0000
 XYZ=    8.2201  -13.7327   -8.7861 Q=    0.4999 A=    0.0000 R=    0.0000 C=    0.0000
 XYZ=    8.5528  -15.0157   -9.5178 Q=    0.5079 A=    0.0000 R=    0.0000 C=    0.0000
 XYZ=    5.5704  -12.7600  -10.7338 Q=   -1.0500 A=    0.0000 R=    0.0000 C=    0.0000
 XYZ=    4.6427  -12.8278  -10.5079 Q=    0.5214 A=    0.0000 R=    0.0000 C=    0.0000
 XYZ=    5.9838  -12.4052   -9.9468 Q=    0.5064 A=    0.0000 R=    0.0000 C=    0.0000
 XYZ=    6.9426  -11.8294   -8.3710 Q=   -1.0528 A=    0.0000 R=    0.0000 C=    0.0000
 XYZ=    7.4956  -12.0911   -7.6348 Q=    0.5210 A=    0.0000 R=    0.0000 C=    0.0000
 XYZ=    7.3075  -10.9928   -8.6597 Q=    0.5255 A=    0.0000 R=    0.0000 C=    0.0000
 XYZ=    9.7397  -14.5602  -13.0841 Q=   -1.0029 A=    0.0000 R=    0.0000 C=    0.0000
 XYZ=    9.4367  -13.9209  -12.4394 Q=    0.5215 A=    0.0000 R=    0.0000 C=    0.0000
 XYZ=   10.6527  -14.3230  -13.2466 Q=    0.4988 A=    0.0000 R=    0.0000 C=    0.0000
 XYZ=    9.4738   -7.9972  -10.9180 Q=   -0.9971 A=    0.0000 R=    0.0000 C=    0.0000
 XYZ=    9.9975   -8.7956  -10.8516 Q=    0.5301 A=    0.0000 R=    0.0000 C=    0.0000
 XYZ=    9.6234   -7.5424  -10.0892 Q=    0.4920 A=    0.0000 R=    0.0000 C=    0.0000
 XYZ=    8.4516  -10.6356  -15.6859 Q=   -1.0322 A=    0.0000 R=    0.0000 C=    0.0000
 XYZ=    8.1250  -10.4069  -16.5562 Q=    0.4798 A=    0.0000 R=    0.0000 C=    0.0000
 XYZ=    9.2622  -11.1166  -15.8526 Q=    0.5341 A=    0.0000 R=    0.0000 C=    0.0000
 XYZ=    4.0391  -11.2243  -12.8044 Q=   -0.9921 A=    0.0000 R=    0.0000 C=    0.0000
 XYZ=    4.5248  -12.0476  -12.7552 Q=    0.4802 A=    0.0000 R=    0.0000 C=    0.0000
 XYZ=    4.4321  -10.7575  -13.5420 Q=    0.5046 A=    0.0000 R=    0.0000 C=    0.0000
 XYZ=    5.5848  -15.5922  -11.4699 Q=   -1.0129 A=    0.0000 R=    0.0000 C=    0.0000
 XYZ=    4.6785  -15.3483  -11.6582 Q=    0.5050 A=    0.0000 R=    0.0000 C=    0.0000
 XYZ=    6.0031  -14.7735  -11.2032 Q=    0.5257 A=    0.0000 R=    0.0000 C=    0.0000
 XYZ=    8.8013  -12.4259   -6.4973 Q=   -0.9852 A=    0.0000 R=    0.0000 C=    0.0000
 XYZ=    9.0556  -11.7490   -5.8701 Q=    0.5006 A=    0.0000 R=    0.0000 C=    0.0000
 XYZ=    8.9395  -13.2499   -6.0303 Q=    0.5083 A=    0.0000 R=    0.0000 C=    0.0000
 XYZ=   10.5523   -9.0602   -7.7657 Q=   -0.9799 A=    0.0000 R=    0.0000 C=    0.0000
 XYZ=   10.0296   -9.4526   -7.0665 Q=    0.5003 A=    0.0000 R=    0.0000 C=    0.0000
 XYZ=   10.0576   -8.2839   -8.0284 Q=    0.4937 A=    0.0000 R=    0.0000 C=    0.0000
 XYZ=    8.4919  -14.1596  -15.7110 Q=   -0.9823 A=    0.0000 R=    0.0000 C=    0.0000
 XYZ=    8.8439  -15.0437  -15.8144 Q=    0.4799 A=    0.0000 R=    0.0000 C=    0.0000
 XYZ=    8.9183  -13.8221  -14.9233 Q=    0.4950 A=    0.0000 R=    0.0000 C=    0.0000
 XYZ=   10.6752  -11.9252  -15.8192 Q=   -0.9837 A=    0.0000 R=    0.0000 C=    0.0000
 XYZ=   11.1454  -12.2597  -15.0555 Q=    0.5055 A=    0.0000 R=    0.0000 C=    0.0000
 XYZ=   10.7694  -12.6123  -16.4789 Q=    0.5125 A=    0.0000 R=    0.0000 C=    0.0000
 XYZ=    7.7593  -16.5050  -13.2460 Q=   -1.0112 A=    0.0000 R=    0.0000 C=    0.0000
 XYZ=    7.3079  -16.2111  -12.4547 Q=    0.4926 A=    0.0000 R=    0.0000 C=    0.0000
 XYZ=    8.5373  -15.9498  -13.2987 Q=    0.4973 A=    0.0000 R=    0.0000 C=    0.0000
 XYZ=   13.4576  -11.7733   -9.7740 Q=   -0.9993 A=    0.0000 R=    0.0000 C=    0.0000
 XYZ=   13.9089  -10.9962  -10.1037 Q=    0.5128 A=    0.0000 R=    0.0000 C=    0.0000
 XYZ=   14.1508  -12.4236   -9.6612 Q=    0.5076 A=    0.0000 R=    0.0000 C=    0.0000
 XYZ=    5.5914  -15.5335   -8.7002 Q=   -1.0162 A=    0.0000 R=    0.0000 C=    0.0000
 XYZ=    6.3093  -16.0707   -8.3652 Q=    0.4831 A=    0.0000 R=    0.0000 C=    0.0000
 XYZ=    5.4763  -15.8239   -9.6050 Q=    0.5237 A=    0.0000 R=    0.0000 C=    0.0000
 XYZ=    5.3398  -11.2122  -15.4745 Q=   -0.9760 A=    0.0000 R=    0.0000 C=    0.0000
 XYZ=    5.8801  -10.4587  -15.7120 Q=    0.4863 A=    0.0000 R=    0.0000 C=    0.0000
 XYZ=    5.4896  -11.8457  -16.1763 Q=    0.4965 A=    0.0000 R=    0.0000 C=    0.0000
 XYZ=   12.9960  -14.7139  -11.2100 Q=   -0.9778 A=    0.0000 R=    0.0000 C=    0.0000
 XYZ=   12.2864  -15.1619  -10.7497 Q=    0.5059 A=    0.0000 R=    0.0000 C=    0.0000
 XYZ=   13.6357  -14.5124  -10.5270 Q=    0.4638 A=    0.0000 R=    0.0000 C=    0.0000
 XYZ=    4.6413   -8.1383  -12.6711 Q=   -0.9897 A=    0.0000 R=    0.0000 C=    0.0000
 XYZ=    4.5978   -7.2720  -12.2662 Q=    0.4876 A=    0.0000 R=    0.0000 C=    0.0000
 XYZ=    5.5765   -8.3384  -12.7100 Q=    0.4969 A=    0.0000 R=    0.0000 C=    0.0000
 XYZ=    8.9611  -17.0167   -9.2755 Q=   -0.9921 A=    0.0000 R=    0.0000 C=    0.0000
 XYZ=    8.6736  -17.2191   -8.3852 Q=    0.5092 A=    0.0000 R=    0.0000 C=    0.0000
 XYZ=    8.3026  -17.4234   -9.8386 Q=    0.5103 A=    0.0000 R=    0.0000 C=    0.0000
 XYZ=   12.8900   -9.6906  -13.7511 Q=   -0.9984 A=    0.0000 R=    0.0000 C=    0.0000
 XYZ=   13.4884   -9.8459  -13.0204 Q=    0.4670 A=    0.0000 R=    0.0000 C=    0.0000
 XYZ=   12.0171   -9.7427  -13.3618 Q=    0.5160 A=    0.0000 R=    0.0000 C=    0.0000
 XYZ=    4.9070   -7.9100   -9.1300 Q=   -1.0105 A=    0.0000 R=    0.0000 C=    0.0000
 XYZ=    4.0635   -8.0265   -9.5674 Q=    0.4764 A=    0.0000 R=    0.0000 C=    0.0000
 XYZ=    5.4227   -8.6710   -9.3968 Q=    0.5176 A=    0.0000 R=    0.0000 C=    0.0000
 XYZ=    2.9547  -12.7024   -9.8757 Q=   -0.9915 A=    0.0000 R=    0.0000 C=    0.0000
 XYZ=    3.0641  -13.5048   -9.3654 Q=    0.5019 A=    0.0000 R=    0.0000 C=    0.0000
 XYZ=    2.7384  -12.0329   -9.2268 Q=    0.5105 A=    0.0000 R=    0.0000 C=    0.0000
 XYZ=    4.2108  -13.3306   -7.5546 Q=   -1.0293 A=    0.0000 R=    0.0000 C=    0.0000
 XYZ=    4.9638  -12.7453   -7.4735 Q=    0.4979 A=    0.0000 R=    0.0000 C=    0.0000
 XYZ=    4.5835  -14.1618   -7.8486 Q=    0.5197 A=    0.0000 R=    0.0000 C=    0.0000
 XYZ=    8.5389   -6.2611  -12.9484 Q=   -1.0019 A=    0.0000 R=    0.0000 C=    0.0000
 XYZ=    8.8800   -6.8491  -12.2745 Q=    0.5098 A=    0.0000 R=    0.0000 C=    0.0000
 XYZ=    9.2767   -6.1230  -13.5423 Q=    0.4773 A=    0.0000 R=    0.0000 C=    0.0000
 XYZ=   11.4715  -15.3553   -7.5180 Q=   -1.0197 A=    0.0000 R=    0.0000 C=    0.0000
 XYZ=   10.8644  -15.3558   -8.2581 Q=    0.4753 A=    0.0000 R=    0.0000 C=    0.0000
 XYZ=   11.9075  -14.5045   -7.5658 Q=    0.5146 A=    0.0000 R=    0.0000 C=    0.0000
 XYZ=   12.8138  -13.0185   -7.3663 Q=   -0.9959 A=    0.0000 R=    0.0000 C=    0.0000
 XYZ=   12.4819  -12.4171   -6.6996 Q=    0.4994 A=    0.0000 R=    0.0000 C=    0.0000
 XYZ=   12.6552  -12.5682   -8.1960 Q=    0.5110 A=    0.0000 R=    0.0000 C=    0.0000
 XYZ=   11.3245  -17.0116  -10.7628 Q=   -1.0019 A=    0.0000 R=    0.0000 C=    0.0000
 XYZ=   11.7165  -17.8633  -10.5702 Q=    0.4876 A=    0.0000 R=    0.0000 C=    0.0000
 XYZ=   10.4428  -17.0644  -10.3939 Q=    0.5095 A=    0.0000 R=    0.0000 C=    0.0000
 Pt Chg Charge=              0.0228 electrons
 Pt Chg Dipole moment (Debye):
    X=             17.1848    Y=             -3.7196    Z=             16.5871  Tot=             24.1719
 Pt Chg Quadrupole moment (Debye-Ang):
   XX=            269.6327   YY=             88.7431   ZZ=           -313.9979
   XY=           -186.1754   XZ=            -44.3816   YZ=           -167.3029
 Pt Chg Traceless Quadrupole moment (Debye-Ang):
   XX=            254.8401   YY=             73.9504   ZZ=           -328.7905
   XY=           -186.1754   XZ=            -44.3816   YZ=           -167.3029
 Pt Chg Octapole moment (Debye-Ang**2):
  XXX=           3646.7288  YYY=          -2072.6431  ZZZ=           4231.4237  XYY=           2164.1063
  XXY=          -2722.7479  XXZ=          -1723.4178  XZZ=           -507.4631  YZZ=           3402.8646
  YYZ=           1679.1348  XYZ=            492.3891
 Pt Chg Hexadecapole moment (Debye-Ang**3):
 XXXX=          49639.4079 YYYY=          47425.0050 ZZZZ=         -44689.8756 XXXY=         -36047.1505
 XXXZ=         -28810.3021 YYYX=         -29225.1428 YYYZ=         -14363.2971 ZZZX=          10590.9671
 ZZZY=         -46848.4086 XXYY=          28356.4584 XXZZ=          10250.7908 YYZZ=         -39432.8762
 XXYZ=          18238.0519 YYXZ=          -5643.7150 ZZXY=           4928.4891
 Leave Link  101 at Fri May 15 22:35:37 2020, MaxMem=   134217728 cpu:               0.6 elap:               0.2
 (Enter /home/soft/g16/l202.exe)
                          Input orientation:                          
 ---------------------------------------------------------------------
 Center     Atomic      Atomic             Coordinates (Angstroms)
 Number     Number       Type             X           Y           Z
 ---------------------------------------------------------------------
      1          8           0        8.392325  -11.812941  -11.200483
      2          8           0        7.250284   -9.859627  -13.103456
      3          8           0        6.966193   -9.247795  -10.274305
      4          8           0       10.084912   -9.602997  -13.694410
      5          1           0        8.175276  -12.537815  -10.614239
      6          1           0        9.252154  -11.514100  -10.904475
      7          1           0        7.120660  -10.221473  -13.980096
      8          1           0        7.341484  -10.626744  -12.538261
      9          1           0        6.975152   -9.845016  -11.022289
     10          1           0        7.684375   -8.638472  -10.445098
     11          1           0        9.837963   -9.877914  -14.577398
     12          1           0        9.267108   -9.628370  -13.197635
 ---------------------------------------------------------------------
                    Distance matrix (angstroms):
                    1          2          3          4          5
     1  O    0.000000
     2  O    2.956518   0.000000
     3  O    3.077602   2.908460   0.000000
     4  O    3.737429   2.906923   4.642165   0.000000
     5  H    0.957201   3.771538   3.521600   4.663402   0.000000
     6  H    0.957200   3.402981   3.280072   3.482749   1.513901
     7  H    3.446179   0.957200   3.834683   3.041532   4.219792
     8  H    2.073880   0.957200   2.677282   3.148196   2.837122
     9  H    2.431638   2.099325   0.957201   4.107239   2.976234
    10  H    3.339020   2.957452   0.957199   4.153422   3.933760
    11  H    4.151837   2.978074   5.211595   0.957200   5.054328
    12  H    3.086456   2.032223   3.739640   0.957200   4.041151
                    6          7          8          9         10
     6  H    0.000000
     7  H    3.958989   0.000000
     8  H    2.665955   1.513901   0.000000
     9  H    2.825679   2.985216   1.744554   0.000000
    10  H    3.307294   3.914062   2.907255   1.513901   0.000000
    11  H    4.063329   2.803308   3.309265   4.564600   4.821832
    12  H    2.968970   2.360351   2.267058   3.167353   3.325869
                   11         12
    11  H    0.000000
    12  H    1.513900   0.000000
 Symmetry turned off by external request.
 Stoichiometry    H8O4
 Framework group  C1[X(H8O4)]
 Deg. of freedom    30
 Full point group                 C1      NOp   1
 Rotational constants (GHZ):           4.0609104           2.1570272           1.7899023
 Leave Link  202 at Fri May 15 22:35:37 2020, MaxMem=   134217728 cpu:               0.1 elap:               0.0
 (Enter /home/soft/g16/l301.exe)
 Standard basis: 6-31G(d,p) (5D, 7F)
 Ernie: Thresh=  0.10000D-02 Tol=  0.10000D-05 Strict=F.
    96 basis functions,   168 primitive gaussians,   100 cartesian basis functions
    20 alpha electrons       20 beta electrons
       nuclear repulsion energy       134.9167307437 Hartrees.
 IExCor=    0 DFT=F Ex=HF Corr=None ExCW=0 ScaHFX=  1.000000
 ScaDFX=  1.000000  1.000000  1.000000  1.000000 ScalE2=  1.000000  1.000000
 IRadAn=      5 IRanWt=     -1 IRanGd=            0 ICorTp=0 IEmpDi=  4
 NAtoms=   12 NActive=   12 NUniq=   12 SFac= 1.00D+00 NAtFMM=   60 NAOKFM=F Big=F
 Integral buffers will be    131072 words long.
 Raffenetti 1 integral format.
 Two-electron integral symmetry is turned off.
 Background charge distribution read from rwf.
 PtFMM for NChg=        96 BoxLen=    40.00 Levels= 1 LMax=20 SMax=    22.2 ICnFMM=     1:
 Self energy of the charges =       -13.4481521834 a.u.
 MM   energy of the charges =         0.0000000000 a.u.
 Nuclei-charges interaction =        -1.0876587753 a.u.
 Nuclear repulsion after external point charges =      120.3809197849 Hartrees.
 Leave Link  301 at Fri May 15 22:35:37 2020, MaxMem=   134217728 cpu:               0.3 elap:               0.1
 (Enter /home/soft/g16/l302.exe)
 NPDir=0 NMtPBC=     1 NCelOv=     1 NCel=       1 NClECP=     1 NCelD=      1
         NCelK=      1 NCelE2=     1 NClLst=     1 CellRange=     0.0.
 One-electron integrals computed using PRISM.
 NBasis=    96 RedAO= T EigKep=  2.54D-02  NBF=    96
 NBsUse=    96 1.00D-06 EigRej= -1.00D+00 NBFU=    96
 Leave Link  302 at Fri May 15 22:35:37 2020, MaxMem=   134217728 cpu:               0.5 elap:               0.1
 (Enter /home/soft/g16/l303.exe)
 DipDrv:  MaxL=1.
 Leave Link  303 at Fri May 15 22:35:37 2020, MaxMem=   134217728 cpu:               0.1 elap:               0.1
 (Enter /home/soft/g16/l401.exe)
 ExpMin= 1.61D-01 ExpMax= 5.48D+03 ExpMxC= 8.25D+02 IAcc=3 IRadAn=         5 AccDes= 0.00D+00
 Harris functional with IExCor=  205 and IRadAn=       5 diagonalized for initial guess.
 HarFok:  IExCor=  205 AccDes= 0.00D+00 IRadAn=         5 IDoV= 1 UseB2=F ITyADJ=14
 ICtDFT=  3500011 ScaDFX=  1.000000  1.000000  1.000000  1.000000
 FoFCou: FMM=F IPFlag=           0 FMFlag=      100000 FMFlg1=           0
         NFxFlg=           0 DoJE=T BraDBF=F KetDBF=T FulRan=T
         wScrn=  0.000000 ICntrl=       500 IOpCl=  0 I1Cent=   200000004 NGrid=           0
         NMat0=    1 NMatS0=      1 NMatT0=    0 NMatD0=    1 NMtDS0=    0 NMtDT0=    0
 Symmetry not used in FoFCou.
 Harris En= -318.027307808377    
 JPrj=0 DoOrth=F DoCkMO=F.
 Leave Link  401 at Fri May 15 22:35:38 2020, MaxMem=   134217728 cpu:               1.9 elap:               0.5
 (Enter /home/soft/g16/l502.exe)
 Keep R1 ints in memory in canonical form, NReq=11713853.
 FoFCou: FMM=F IPFlag=           0 FMFlag=           0 FMFlg1=           0
         NFxFlg=           0 DoJE=F BraDBF=F KetDBF=F FulRan=T
         wScrn=  0.000000 ICntrl=       600 IOpCl=  0 I1Cent=           0 NGrid=           0
         NMat0=    1 NMatS0=   4656 NMatT0=    0 NMatD0=    1 NMtDS0=    0 NMtDT0=    0
 Symmetry not used in FoFCou.
 Two-electron integral symmetry not used.
 Closed shell SCF:
 Using DIIS extrapolation, IDIIS=  1040.
 NGot=   134217728 LenX=   123354636 LenY=   123344195
 Requested convergence on RMS density matrix=1.00D-08 within 128 cycles.
 Requested convergence on MAX density matrix=1.00D-06.
 Requested convergence on             energy=1.00D-06.
 No special actions if energy rises.

 Cycle   1  Pass 1  IDiag  1:
 E= -317.342003444166    
 DIIS: error= 5.01D-02 at cycle   1 NSaved=   1.
 NSaved= 1 IEnMin= 1 EnMin= -317.342003444166     IErMin= 1 ErrMin= 5.01D-02
 ErrMax= 5.01D-02  0.00D+00 EMaxC= 1.00D-01 BMatC= 4.73D-01 BMatP= 4.73D-01
 IDIUse=3 WtCom= 4.99D-01 WtEn= 5.01D-01
 Coeff-Com:  0.100D+01
 Coeff-En:   0.100D+01
 Coeff:      0.100D+01
 Gap=     0.631 Goal=   None    Shift=    0.000
 GapD=    0.631 DampG=2.000 DampE=0.500 DampFc=1.0000 IDamp=-1.
 RMSDP=5.74D-03 MaxDP=1.26D-01              OVMax= 1.24D-01

 Cycle   2  Pass 1  IDiag  1:
 E= -317.560968885125     Delta-E=       -0.218965440959 Rises=F Damp=F
 DIIS: error= 2.64D-02 at cycle   2 NSaved=   2.
 NSaved= 2 IEnMin= 2 EnMin= -317.560968885125     IErMin= 2 ErrMin= 2.64D-02
 ErrMax= 2.64D-02  0.00D+00 EMaxC= 1.00D-01 BMatC= 1.39D-01 BMatP= 4.73D-01
 IDIUse=3 WtCom= 7.36D-01 WtEn= 2.64D-01
 Coeff-Com:  0.339D+00 0.661D+00
 Coeff-En:   0.648D-01 0.935D+00
 Coeff:      0.266D+00 0.734D+00
 Gap=     0.691 Goal=   None    Shift=    0.000
 RMSDP=2.55D-03 MaxDP=5.35D-02 DE=-2.19D-01 OVMax= 4.56D-02

 Cycle   3  Pass 1  IDiag  1:
 E= -317.653286621303     Delta-E=       -0.092317736178 Rises=F Damp=F
 DIIS: error= 4.86D-03 at cycle   3 NSaved=   3.
 NSaved= 3 IEnMin= 3 EnMin= -317.653286621303     IErMin= 3 ErrMin= 4.86D-03
 ErrMax= 4.86D-03  0.00D+00 EMaxC= 1.00D-01 BMatC= 3.30D-03 BMatP= 1.39D-01
 IDIUse=3 WtCom= 9.51D-01 WtEn= 4.86D-02
 Coeff-Com: -0.317D-01 0.882D-01 0.943D+00
 Coeff-En:   0.000D+00 0.000D+00 0.100D+01
 Coeff:     -0.302D-01 0.840D-01 0.946D+00
 Gap=     0.677 Goal=   None    Shift=    0.000
 RMSDP=3.50D-04 MaxDP=8.01D-03 DE=-9.23D-02 OVMax= 8.31D-03

 Cycle   4  Pass 1  IDiag  1:
 E= -317.655849338079     Delta-E=       -0.002562716776 Rises=F Damp=F
 DIIS: error= 3.90D-04 at cycle   4 NSaved=   4.
 NSaved= 4 IEnMin= 4 EnMin= -317.655849338079     IErMin= 4 ErrMin= 3.90D-04
 ErrMax= 3.90D-04  0.00D+00 EMaxC= 1.00D-01 BMatC= 2.74D-05 BMatP= 3.30D-03
 IDIUse=3 WtCom= 9.96D-01 WtEn= 3.90D-03
 Coeff-Com:  0.675D-02-0.417D-01-0.304D+00 0.134D+01
 Coeff-En:   0.000D+00 0.000D+00 0.000D+00 0.100D+01
 Coeff:      0.672D-02-0.416D-01-0.303D+00 0.134D+01
 Gap=     0.679 Goal=   None    Shift=    0.000
 RMSDP=8.95D-05 MaxDP=1.51D-03 DE=-2.56D-03 OVMax= 2.17D-03

 Cycle   5  Pass 1  IDiag  1:
 E= -317.655903468210     Delta-E=       -0.000054130130 Rises=F Damp=F
 DIIS: error= 1.11D-04 at cycle   5 NSaved=   5.
 NSaved= 5 IEnMin= 5 EnMin= -317.655903468210     IErMin= 5 ErrMin= 1.11D-04
 ErrMax= 1.11D-04  0.00D+00 EMaxC= 1.00D-01 BMatC= 1.00D-06 BMatP= 2.74D-05
 IDIUse=3 WtCom= 9.99D-01 WtEn= 1.11D-03
 Coeff-Com:  0.115D-02-0.375D-02-0.336D-01-0.684D-02 0.104D+01
 Coeff-En:   0.000D+00 0.000D+00 0.000D+00 0.000D+00 0.100D+01
 Coeff:      0.115D-02-0.374D-02-0.335D-01-0.683D-02 0.104D+01
 Gap=     0.679 Goal=   None    Shift=    0.000
 RMSDP=1.73D-05 MaxDP=3.63D-04 DE=-5.41D-05 OVMax= 4.27D-04

 Cycle   6  Pass 1  IDiag  1:
 E= -317.655905383866     Delta-E=       -0.000001915656 Rises=F Damp=F
 DIIS: error= 2.87D-05 at cycle   6 NSaved=   6.
 NSaved= 6 IEnMin= 6 EnMin= -317.655905383866     IErMin= 6 ErrMin= 2.87D-05
 ErrMax= 2.87D-05  0.00D+00 EMaxC= 1.00D-01 BMatC= 1.41D-07 BMatP= 1.00D-06
 IDIUse=1 WtCom= 1.00D+00 WtEn= 0.00D+00
 Coeff-Com: -0.324D-03 0.275D-02 0.195D-01-0.119D+00 0.214D+00 0.882D+00
 Coeff:     -0.324D-03 0.275D-02 0.195D-01-0.119D+00 0.214D+00 0.882D+00
 Gap=     0.679 Goal=   None    Shift=    0.000
 RMSDP=4.96D-06 MaxDP=8.46D-05 DE=-1.92D-06 OVMax= 1.31D-04

 Cycle   7  Pass 1  IDiag  1:
 E= -317.655905564430     Delta-E=       -0.000000180563 Rises=F Damp=F
 DIIS: error= 6.72D-06 at cycle   7 NSaved=   7.
 NSaved= 7 IEnMin= 7 EnMin= -317.655905564430     IErMin= 7 ErrMin= 6.72D-06
 ErrMax= 6.72D-06  0.00D+00 EMaxC= 1.00D-01 BMatC= 6.49D-09 BMatP= 1.41D-07
 IDIUse=1 WtCom= 1.00D+00 WtEn= 0.00D+00
 Coeff-Com: -0.110D-03 0.436D-03 0.374D-02-0.464D-02-0.834D-01 0.338D-01
 Coeff-Com:  0.105D+01
 Coeff:     -0.110D-03 0.436D-03 0.374D-02-0.464D-02-0.834D-01 0.338D-01
 Coeff:      0.105D+01
 Gap=     0.679 Goal=   None    Shift=    0.000
 RMSDP=1.36D-06 MaxDP=3.62D-05 DE=-1.81D-07 OVMax= 3.87D-05

 Cycle   8  Pass 1  IDiag  1:
 E= -317.655905575715     Delta-E=       -0.000000011285 Rises=F Damp=F
 DIIS: error= 1.20D-06 at cycle   8 NSaved=   8.
 NSaved= 8 IEnMin= 8 EnMin= -317.655905575715     IErMin= 8 ErrMin= 1.20D-06
 ErrMax= 1.20D-06  0.00D+00 EMaxC= 1.00D-01 BMatC= 2.56D-10 BMatP= 6.49D-09
 IDIUse=1 WtCom= 1.00D+00 WtEn= 0.00D+00
 Coeff-Com:  0.381D-04-0.212D-03-0.171D-02 0.585D-02 0.146D-01-0.412D-01
 Coeff-Com: -0.276D+00 0.130D+01
 Coeff:      0.381D-04-0.212D-03-0.171D-02 0.585D-02 0.146D-01-0.412D-01
 Coeff:     -0.276D+00 0.130D+01
 Gap=     0.679 Goal=   None    Shift=    0.000
 RMSDP=2.72D-07 MaxDP=8.75D-06 DE=-1.13D-08 OVMax= 7.10D-06

 Cycle   9  Pass 1  IDiag  1:
 E= -317.655905576265     Delta-E=       -0.000000000550 Rises=F Damp=F
 DIIS: error= 3.57D-07 at cycle   9 NSaved=   9.
 NSaved= 9 IEnMin= 9 EnMin= -317.655905576265     IErMin= 9 ErrMin= 3.57D-07
 ErrMax= 3.57D-07  0.00D+00 EMaxC= 1.00D-01 BMatC= 1.17D-11 BMatP= 2.56D-10
 IDIUse=1 WtCom= 1.00D+00 WtEn= 0.00D+00
 Coeff-Com:  0.581D-05-0.252D-04-0.211D-03 0.347D-03 0.455D-02-0.285D-02
 Coeff-Com: -0.598D-01 0.531D-01 0.100D+01
 Coeff:      0.581D-05-0.252D-04-0.211D-03 0.347D-03 0.455D-02-0.285D-02
 Coeff:     -0.598D-01 0.531D-01 0.100D+01
 Gap=     0.679 Goal=   None    Shift=    0.000
 RMSDP=4.89D-08 MaxDP=1.25D-06 DE=-5.50D-10 OVMax= 1.57D-06

 Cycle  10  Pass 1  IDiag  1:
 E= -317.655905576284     Delta-E=       -0.000000000019 Rises=F Damp=F
 DIIS: error= 1.11D-07 at cycle  10 NSaved=  10.
 NSaved=10 IEnMin=10 EnMin= -317.655905576284     IErMin=10 ErrMin= 1.11D-07
 ErrMax= 1.11D-07  0.00D+00 EMaxC= 1.00D-01 BMatC= 1.53D-12 BMatP= 1.17D-11
 IDIUse=1 WtCom= 1.00D+00 WtEn= 0.00D+00
 Coeff-Com: -0.183D-05 0.119D-04 0.950D-04-0.433D-03-0.107D-03 0.286D-02
 Coeff-Com:  0.875D-02-0.927D-01 0.209D+00 0.872D+00
 Coeff:     -0.183D-05 0.119D-04 0.950D-04-0.433D-03-0.107D-03 0.286D-02
 Coeff:      0.875D-02-0.927D-01 0.209D+00 0.872D+00
 Gap=     0.679 Goal=   None    Shift=    0.000
 RMSDP=1.39D-08 MaxDP=3.89D-07 DE=-1.86D-11 OVMax= 3.83D-07

 Cycle  11  Pass 1  IDiag  1:
 E= -317.655905576287     Delta-E=       -0.000000000003 Rises=F Damp=F
 DIIS: error= 2.19D-08 at cycle  11 NSaved=  11.
 NSaved=11 IEnMin=11 EnMin= -317.655905576287     IErMin=11 ErrMin= 2.19D-08
 ErrMax= 2.19D-08  0.00D+00 EMaxC= 1.00D-01 BMatC= 7.45D-14 BMatP= 1.53D-12
 IDIUse=1 WtCom= 1.00D+00 WtEn= 0.00D+00
 Coeff-Com: -0.599D-06 0.284D-05 0.237D-04-0.546D-04-0.407D-03 0.371D-03
 Coeff-Com:  0.549D-02-0.700D-02-0.845D-01 0.154D-01 0.107D+01
 Coeff:     -0.599D-06 0.284D-05 0.237D-04-0.546D-04-0.407D-03 0.371D-03
 Coeff:      0.549D-02-0.700D-02-0.845D-01 0.154D-01 0.107D+01
 Gap=     0.679 Goal=   None    Shift=    0.000
 RMSDP=4.73D-09 MaxDP=7.81D-08 DE=-2.96D-12 OVMax= 1.28D-07

 SCF Done:  E(RHF) =  -317.655905576     A.U. after   11 cycles
            NFock= 11  Conv=0.47D-08     -V/T= 2.0463
 KE= 3.036059065183D+02 PE=-9.912130740062D+02 EE= 2.495703421267D+02
 Leave Link  502 at Fri May 15 22:35:38 2020, MaxMem=   134217728 cpu:               1.3 elap:               0.5
 (Enter /home/soft/g16/l601.exe)
 Copying SCF densities to generalized density rwf, IOpCl= 0 IROHF=0.

 **********************************************************************

            Population analysis using the SCF density.

 **********************************************************************

 Alpha  occ. eigenvalues --  -20.54654 -20.54207 -20.53107 -20.50845  -1.33323
 Alpha  occ. eigenvalues --   -1.32548  -1.31501  -1.29155  -0.70507  -0.68914
 Alpha  occ. eigenvalues --   -0.66998  -0.65755  -0.57374  -0.56600  -0.54440
 Alpha  occ. eigenvalues --   -0.53525  -0.49974  -0.47907  -0.46596  -0.45396
 Alpha virt. eigenvalues --    0.22527   0.29111   0.30035   0.33317   0.37443
 Alpha virt. eigenvalues --    0.39714   0.42815   0.47922   0.98551   1.01777
 Alpha virt. eigenvalues --    1.06488   1.07108   1.08641   1.11837   1.12559
 Alpha virt. eigenvalues --    1.13590   1.16307   1.17758   1.19461   1.22008
 Alpha virt. eigenvalues --    1.26084   1.28682   1.31378   1.32280   1.35313
 Alpha virt. eigenvalues --    1.38964   1.43329   1.46172   1.61567   1.67357
 Alpha virt. eigenvalues --    1.72860   1.76341   1.81731   1.82715   1.83344
 Alpha virt. eigenvalues --    1.84007   1.85492   1.89760   1.92353   1.94582
 Alpha virt. eigenvalues --    1.96177   1.97536   2.03683   2.05173   2.57301
 Alpha virt. eigenvalues --    2.58798   2.60784   2.61074   2.63401   2.65907
 Alpha virt. eigenvalues --    2.67981   2.68386   2.81675   2.83808   2.86822
 Alpha virt. eigenvalues --    2.90802   2.99489   2.99821   3.01249   3.02752
 Alpha virt. eigenvalues --    3.03477   3.03987   3.04629   3.08673   3.40366
 Alpha virt. eigenvalues --    3.41539   3.42897   3.45730   3.78491   3.79405
 Alpha virt. eigenvalues --    3.80673   3.86174   3.95031   4.00228   4.02653
 Alpha virt. eigenvalues --    4.06006
          Condensed to atoms (all electrons):
               1          2          3          4          5          6
     1  O    8.126621  -0.006347  -0.002626  -0.000142   0.313850   0.311184
     2  O   -0.006347   8.118344  -0.004795  -0.010601   0.000178   0.000327
     3  O   -0.002626  -0.004795   8.163689  -0.000003   0.000272   0.000757
     4  O   -0.000142  -0.010601  -0.000003   8.172780   0.000002   0.000511
     5  H    0.313850   0.000178   0.000272   0.000002   0.312781  -0.018726
     6  H    0.311184   0.000327   0.000757   0.000511  -0.018726   0.306955
     7  H    0.000104   0.312204   0.000224   0.001108  -0.000007  -0.000001
     8  H    0.013629   0.294708   0.000406   0.000848  -0.000431  -0.000898
     9  H    0.009044   0.010864   0.313173  -0.000003  -0.000204  -0.000335
    10  H    0.000420   0.000981   0.321126  -0.000003  -0.000011   0.000048
    11  H    0.000001   0.001238  -0.000000   0.323025   0.000000  -0.000011
    12  H    0.001119   0.029880   0.000074   0.311132  -0.000020   0.000069
               7          8          9         10         11         12
     1  O    0.000104   0.013629   0.009044   0.000420   0.000001   0.001119
     2  O    0.312204   0.294708   0.010864   0.000981   0.001238   0.029880
     3  O    0.000224   0.000406   0.313173   0.321126  -0.000000   0.000074
     4  O    0.001108   0.000848  -0.000003  -0.000003   0.323025   0.311132
     5  H   -0.000007  -0.000431  -0.000204  -0.000011   0.000000  -0.000020
     6  H   -0.000001  -0.000898  -0.000335   0.000048  -0.000011   0.000069
     7  H    0.315178  -0.015365  -0.000383  -0.000021   0.000202  -0.001762
     8  H   -0.015365   0.329547  -0.001513   0.000066   0.000079  -0.002272
     9  H   -0.000383  -0.001513   0.295525  -0.026939  -0.000003   0.000022
    10  H   -0.000021   0.000066  -0.026939   0.330158  -0.000001   0.000143
    11  H    0.000202   0.000079  -0.000003  -0.000001   0.316218  -0.027627
    12  H   -0.001762  -0.002272   0.000022   0.000143  -0.027627   0.308260
 Mulliken charges:
               1
     1  O   -0.766858
     2  O   -0.746981
     3  O   -0.792297
     4  O   -0.798655
     5  H    0.392314
     6  H    0.400120
     7  H    0.388517
     8  H    0.381197
     9  H    0.400751
    10  H    0.374033
    11  H    0.386879
    12  H    0.380981
 Sum of Mulliken charges =  -0.00000
 Mulliken charges with hydrogens summed into heavy atoms:
               1
     1  O    0.025576
     2  O    0.022733
     3  O   -0.017514
     4  O   -0.030795
 Electronic spatial extent (au):  <R**2>=          45816.9575
 Charge=              0.0000 electrons
 Dipole moment (field-independent basis, Debye):
    X=              0.2859    Y=             -4.1634    Z=             -1.7930  Tot=              4.5421
 Quadrupole moment (field-independent basis, Debye-Ang):
   XX=            -30.6245   YY=             63.1472   ZZ=             23.5120
   XY=            -35.9141   XZ=             -7.7560   YZ=             65.4527
 Traceless Quadrupole moment (field-independent basis, Debye-Ang):
   XX=            -49.3027   YY=             44.4690   ZZ=              4.8338
   XY=            -35.9141   XZ=             -7.7560   YZ=             65.4527
 Octapole moment (field-independent basis, Debye-Ang**2):
  XXX=           -820.3132  YYY=           -648.6971  ZZZ=           -107.6824  XYY=            525.3533
  XXY=             33.7768  XXZ=            421.3931  XZZ=             -2.6898  YZZ=           -789.0127
  YYZ=           -868.3078  XYZ=            457.7275
 Hexadecapole moment (field-independent basis, Debye-Ang**3):
 XXXX=         -14222.7570 YYYY=           4588.4799 ZZZZ=          -3007.6634 XXXY=           5881.5869
 XXXZ=          11170.5291 YYYX=          -5285.9520 YYYZ=           8233.2954 ZZZX=           2750.5050
 ZZZY=           7690.0814 XXYY=            969.1805 XXZZ=          -6919.1551 YYZZ=           9990.8443
 XXYZ=          -1046.3053 YYXZ=          -6208.0135 ZZXY=          -4435.9844
 N-N= 1.203809197849D+02 E-N=-9.912130743521D+02  KE= 3.036059065183D+02
 No NMR shielding tensors so no spin-rotation constants.
 Leave Link  601 at Fri May 15 22:35:38 2020, MaxMem=   134217728 cpu:               0.5 elap:               0.2
 (Enter /home/soft/g16/l607.exe)
 ******************************Gaussian NBO Version 3.1******************************
             N A T U R A L   A T O M I C   O R B I T A L   A N D
          N A T U R A L   B O N D   O R B I T A L   A N A L Y S I S
 ******************************Gaussian NBO Version 3.1******************************
       /RESON  / : Allow strongly delocalized NBO set

 Analyzing the SCF density

 Job title: Atom number=12                                                  

 Storage needed:     28188 in NPA ( 134216936 available)
 GSVD:  LWork=        4224 too small for GESVD, short by        5328 words or        5328 for optimal perf.


 NATURAL POPULATIONS:  Natural atomic orbital occupancies 
                                                          
   NAO  Atom  No  lang   Type(AO)    Occupancy      Energy
 ----------------------------------------------------------
     1    O    1  S      Cor( 1S)     1.99986     -20.38425
     2    O    1  S      Val( 2S)     1.75842      -1.15370
     3    O    1  S      Ryd( 3S)     0.00086       1.72270
     4    O    1  px     Val( 2p)     1.68517      -0.38488
     5    O    1  px     Ryd( 3p)     0.00153       1.32136
     6    O    1  py     Val( 2p)     1.74758      -0.40614
     7    O    1  py     Ryd( 3p)     0.00147       1.30644
     8    O    1  pz     Val( 2p)     1.84725      -0.44404
     9    O    1  pz     Ryd( 3p)     0.00051       1.28839
    10    O    1  dxy    Ryd( 3d)     0.00054       2.55848
    11    O    1  dxz    Ryd( 3d)     0.00129       2.52840
    12    O    1  dyz    Ryd( 3d)     0.00143       2.72932
    13    O    1  dx2y2  Ryd( 3d)     0.00083       2.68976
    14    O    1  dz2    Ryd( 3d)     0.00132       2.37405

    15    O    2  S      Cor( 1S)     1.99985     -20.36048
    16    O    2  S      Val( 2S)     1.75079      -1.13953
    17    O    2  S      Ryd( 3S)     0.00095       1.88437
    18    O    2  px     Val( 2p)     1.97247      -0.46206
    19    O    2  px     Ryd( 3p)     0.00080       1.30427
    20    O    2  py     Val( 2p)     1.74900      -0.40164
    21    O    2  py     Ryd( 3p)     0.00036       1.28268
    22    O    2  pz     Val( 2p)     1.55091      -0.32771
    23    O    2  pz     Ryd( 3p)     0.00156       1.41504
    24    O    2  dxy    Ryd( 3d)     0.00146       2.27381
    25    O    2  dxz    Ryd( 3d)     0.00012       2.34734
    26    O    2  dyz    Ryd( 3d)     0.00167       3.08728
    27    O    2  dx2y2  Ryd( 3d)     0.00186       2.53581
    28    O    2  dz2    Ryd( 3d)     0.00053       2.75128

    29    O    3  S      Cor( 1S)     1.99985     -20.37152
    30    O    3  S      Val( 2S)     1.74897      -1.14837
    31    O    3  S      Ryd( 3S)     0.00066       1.85703
    32    O    3  px     Val( 2p)     1.79633      -0.42329
    33    O    3  px     Ryd( 3p)     0.00087       1.23852
    34    O    3  py     Val( 2p)     1.69228      -0.38031
    35    O    3  py     Ryd( 3p)     0.00169       1.30904
    36    O    3  pz     Val( 2p)     1.79946      -0.43096
    37    O    3  pz     Ryd( 3p)     0.00064       1.20943
    38    O    3  dxy    Ryd( 3d)     0.00096       2.74559
    39    O    3  dxz    Ryd( 3d)     0.00118       2.37565
    40    O    3  dyz    Ryd( 3d)     0.00107       2.80875
    41    O    3  dx2y2  Ryd( 3d)     0.00053       2.39837
    42    O    3  dz2    Ryd( 3d)     0.00130       2.55554

    43    O    4  S      Cor( 1S)     1.99985     -20.33873
    44    O    4  S      Val( 2S)     1.74935      -1.11705
    45    O    4  S      Ryd( 3S)     0.00077       1.86606
    46    O    4  px     Val( 2p)     1.75911      -0.39038
    47    O    4  px     Ryd( 3p)     0.00069       1.24111
    48    O    4  py     Val( 2p)     1.96782      -0.44083
    49    O    4  py     Ryd( 3p)     0.00051       1.21889
    50    O    4  pz     Val( 2p)     1.57282      -0.31117
    51    O    4  pz     Ryd( 3p)     0.00177       1.37027
    52    O    4  dxy    Ryd( 3d)     0.00126       2.30773
    53    O    4  dxz    Ryd( 3d)     0.00118       2.90272
    54    O    4  dyz    Ryd( 3d)     0.00040       2.45997
    55    O    4  dx2y2  Ryd( 3d)     0.00149       2.58549
    56    O    4  dz2    Ryd( 3d)     0.00058       2.78120

    57    H    5  S      Val( 1S)     0.46779       0.40254
    58    H    5  S      Ryd( 2S)     0.00055       0.75172
    59    H    5  px     Ryd( 2p)     0.00055       2.74420
    60    H    5  py     Ryd( 2p)     0.00133       3.09606
    61    H    5  pz     Ryd( 2p)     0.00109       2.93638

    62    H    6  S      Val( 1S)     0.46289       0.41241
    63    H    6  S      Ryd( 2S)     0.00080       0.77740
    64    H    6  px     Ryd( 2p)     0.00159       3.29000
    65    H    6  py     Ryd( 2p)     0.00071       2.76875
    66    H    6  pz     Ryd( 2p)     0.00077       2.74273

    67    H    7  S      Val( 1S)     0.46762       0.41521
    68    H    7  S      Ryd( 2S)     0.00054       0.80211
    69    H    7  px     Ryd( 2p)     0.00077       2.66924
    70    H    7  py     Ryd( 2p)     0.00075       2.80009
    71    H    7  pz     Ryd( 2p)     0.00146       3.33630

    72    H    8  S      Val( 1S)     0.48264       0.39006
    73    H    8  S      Ryd( 2S)     0.00058       0.98128
    74    H    8  px     Ryd( 2p)     0.00091       2.67106
    75    H    8  py     Ryd( 2p)     0.00139       3.21397
    76    H    8  pz     Ryd( 2p)     0.00084       2.97745

    77    H    9  S      Val( 1S)     0.47170       0.40152
    78    H    9  S      Ryd( 2S)     0.00145       0.91497
    79    H    9  px     Ryd( 2p)     0.00057       2.65841
    80    H    9  py     Ryd( 2p)     0.00090       3.00913
    81    H    9  pz     Ryd( 2p)     0.00127       3.16506

    82    H   10  S      Val( 1S)     0.48323       0.37932
    83    H   10  S      Ryd( 2S)     0.00064       0.74421
    84    H   10  px     Ryd( 2p)     0.00129       3.07355
    85    H   10  py     Ryd( 2p)     0.00106       2.96506
    86    H   10  pz     Ryd( 2p)     0.00068       2.68223

    87    H   11  S      Val( 1S)     0.47314       0.42683
    88    H   11  S      Ryd( 2S)     0.00060       0.78157
    89    H   11  px     Ryd( 2p)     0.00061       2.76088
    90    H   11  py     Ryd( 2p)     0.00086       2.71473
    91    H   11  pz     Ryd( 2p)     0.00141       3.35395

    92    H   12  S      Val( 1S)     0.47623       0.41714
    93    H   12  S      Ryd( 2S)     0.00210       0.89487
    94    H   12  px     Ryd( 2p)     0.00151       3.27697
    95    H   12  py     Ryd( 2p)     0.00079       2.65793
    96    H   12  pz     Ryd( 2p)     0.00057       2.95289


 Summary of Natural Population Analysis:                  
                                                          
                                       Natural Population 
                Natural  -----------------------------------------------
    Atom  No    Charge         Core      Valence    Rydberg      Total
 -----------------------------------------------------------------------
      O    1   -1.04807      1.99986     7.03842    0.00979     9.04807
      O    2   -1.03234      1.99985     7.02317    0.00932     9.03234
      O    3   -1.04580      1.99985     7.03704    0.00891     9.04580
      O    4   -1.05760      1.99985     7.04911    0.00863     9.05760
      H    5    0.52869      0.00000     0.46779    0.00352     0.47131
      H    6    0.53324      0.00000     0.46289    0.00387     0.46676
      H    7    0.52886      0.00000     0.46762    0.00351     0.47114
      H    8    0.51364      0.00000     0.48264    0.00372     0.48636
      H    9    0.52411      0.00000     0.47170    0.00419     0.47589
      H   10    0.51309      0.00000     0.48323    0.00368     0.48691
      H   11    0.52338      0.00000     0.47314    0.00348     0.47662
      H   12    0.51879      0.00000     0.47623    0.00497     0.48121
 =======================================================================
   * Total *   -0.00000      7.99941    31.93298    0.06760    40.00000

                                 Natural Population      
 --------------------------------------------------------
   Core                       7.99941 ( 99.9927% of   8)
   Valence                   31.93298 ( 99.7906% of  32)
   Natural Minimal Basis     39.93240 ( 99.8310% of  40)
   Natural Rydberg Basis      0.06760 (  0.1690% of  40)
 --------------------------------------------------------

    Atom  No          Natural Electron Configuration
 ----------------------------------------------------------------------------
      O    1      [core]2S( 1.76)2p( 5.28)3d( 0.01)
      O    2      [core]2S( 1.75)2p( 5.27)3d( 0.01)
      O    3      [core]2S( 1.75)2p( 5.29)3d( 0.01)
      O    4      [core]2S( 1.75)2p( 5.30)
      H    5            1S( 0.47)
      H    6            1S( 0.46)
      H    7            1S( 0.47)
      H    8            1S( 0.48)
      H    9            1S( 0.47)
      H   10            1S( 0.48)
      H   11            1S( 0.47)
      H   12            1S( 0.48)


 NBO analysis skipped by request.
 Leave Link  607 at Fri May 15 22:35:38 2020, MaxMem=   134217728 cpu:               0.6 elap:               0.2
 (Enter /home/soft/g16/l9999.exe)

 Test job not archived.
 1\1\GINC-MASTER\SP\RHF\6-31G(d,p)\H8O4\LIWEI01\15-May-2020\0\\#p hf/6-
 31g** 5d 7f pop=npa charge nosymm\\Atom number=12\\0,1\O,0,8.392325,-1
 1.812941,-11.200483\O,0,7.250284,-9.859627,-13.103456\O,0,6.966193,-9.
 247795,-10.274305\O,0,10.084912,-9.602997,-13.69441\H,0,8.175276,-12.5
 37815,-10.614239\H,0,9.252154,-11.5141,-10.904475\H,0,7.12066,-10.2214
 73,-13.980096\H,0,7.341484,-10.626744,-12.538261\H,0,6.975152,-9.84501
 6,-11.022289\H,0,7.684375,-8.638472,-10.445098\H,0,9.837963,-9.877914,
 -14.577398\H,0,9.267108,-9.62837,-13.197635\\Version=ES64L-G16RevA.03\
 HF=-317.6559056\RMSD=4.732e-09\Dipole=0.1124633,-1.6380152,-0.7054365\
 Quadrupole=-36.6553835,33.0615792,3.5938043,-26.7012608,-5.7663673,48.
 6625067\PG=C01 [X(H8O4)]\\@


 TRUST EVERYONE, BUT CUT THE CARDS.
 Job cpu time:       0 days  0 hours  0 minutes  6.5 seconds.
 Elapsed time:       0 days  0 hours  0 minutes  1.9 seconds.
 File lengths (MBytes):  RWF=     72 Int=      0 D2E=      0 Chk=      8 Scr=      8
 Normal termination of Gaussian 16 at Fri May 15 22:35:38 2020.
