#INFO: **** input file is /home/liwei01/wsr/dftpart/test_2body/w32/gfea_c8.py ****
from dftpart import gfea3
from pyscf import lib

par = 8
with lib.with_omp_threads(par):
    fr0 = gfea3.GFEA()
    fr0.inputstyle = 'frg'
    fr0.method = ['hf', '6-31gss','charge']
    fr0.gjfname = 'w32'
    fr0.output = 'w32'
    fr0.verbose = 9
    fr0.showinter = True
    #fr0.do_deriv = True
    fr0.kernel()

#INFO: ******************** input file end ********************


System: uname_result(system='Linux', node='master', release='3.10.0-693.el7.x86_64', version='#1 SMP Tue Aug 22 21:09:27 UTC 2017', machine='x86_64', processor='x86_64')  Threads 8
Python 3.7.6 (default, Jan  8 2020, 19:59:22) 
[GCC 7.3.0]
numpy 1.18.1  scipy 1.4.1
Date: Tue Jun 16 20:58:26 2020
PySCF version 1.6.1
PySCF path  /home/liwei01/zcheng/pyscf/pyscf
GIT HEAD      ref: refs/heads/master
GIT master branch  3adc7fd25839fe674469a52b764c3661e32d7318

[CONFIG] DEBUG = False
[CONFIG] MAX_MEMORY = 4000
[CONFIG] TMPDIR = .
[CONFIG] UNIT = angstrom
[CONFIG] VERBOSE = 3
[CONFIG] conf_file = None
[INPUT] verbose = 9
[INPUT] max_memory = 4000 
[INPUT] num. atoms = 15
[INPUT] num. electrons = 50
[INPUT] charge = 0
[INPUT] spin (= nelec alpha-beta = 2S) = 0
[INPUT] symmetry False subgroup None
[INPUT] Mole.unit = angstrom
[INPUT]  1 O      5.570392000000 -12.760041000000 -10.733807000000 AA   10.526515286468 -24.112982828221 -20.283955503939 Bohr
[INPUT]  2 O      6.942642000000 -11.829381000000  -8.371044000000 AA   13.119691960903 -22.354290313134 -15.818980536684 Bohr
[INPUT]  3 O      5.591380000000 -15.533488000000  -8.700217000000 AA   10.566176858371 -29.354038079218 -16.441027354285 Bohr
[INPUT]  4 O      2.954727000000 -12.702446000000  -9.875706000000 AA    5.583624802858 -24.004144052077 -18.662379626724 Bohr
[INPUT]  5 O      4.210768000000 -13.330605000000  -7.554598000000 AA    7.957198294083 -25.191192524758 -14.276121201187 Bohr
[INPUT]  6 H      4.642708000000 -12.827827000000 -10.507888000000 AA    8.773446596327 -24.241079803301 -19.857030467604 Bohr
[INPUT]  7 H      5.983752000000 -12.405170000000  -9.946767000000 AA   11.307652477318 -23.442373828671 -18.796665454862 Bohr
[INPUT]  8 H      7.495574000000 -12.091052000000  -7.634819000000 AA   14.164582006411 -22.848776837875 -14.427716920626 Bohr
[INPUT]  9 H      7.307461000000 -10.992840000000  -8.659728000000 AA   13.809099955940 -20.773456931164 -16.364514233228 Bohr
[INPUT] 10 H      6.309279000000 -16.070726000000  -8.365208000000 AA   11.922809353470 -30.369270762927 -15.807952095021 Bohr
[INPUT] 11 H      5.476258000000 -15.823936000000  -9.604992000000 AA   10.348627807458 -29.902905252646 -18.150804308638 Bohr
[INPUT] 12 H      3.064054000000 -13.504841000000  -9.365369000000 AA    5.790222890878 -25.520450845797 -17.697982465492 Bohr
[INPUT] 13 H      2.738448000000 -12.032883000000  -9.226753000000 AA    5.174916726363 -22.738853358935 -17.436036189009 Bohr
[INPUT] 14 H      4.963781000000 -12.745268000000  -7.473460000000 AA    9.380186632320 -24.085065904183 -14.122792602892 Bohr
[INPUT] 15 H      4.583488000000 -14.161788000000  -7.848620000000 AA    8.661537015230 -26.761900754152 -14.831742255784 Bohr
[INPUT] ---------------- BASIS SET ---------------- 
[INPUT] l, kappa, [nprim/nctr], expnt,             c_1 c_2 ...
[INPUT] H
[INPUT] 0    0    [3    /1   ]  18.731137         0.0334946
                                2.8253937         0.23472695
                                0.6401217         0.81375733
[INPUT] 0    0    [1    /1   ]  0.1612778            1
[INPUT] 1    0    [1    /1   ]  1.1                  1
[INPUT] O
[INPUT] 0    0    [6    /1   ]  5484.6717         0.0018311
                                825.23495         0.0139501
                                188.04696         0.0684451
                                52.9645           0.2327143
                                16.89757          0.470193
                                5.7996353         0.3585209
[INPUT] 0    0    [3    /1   ]  15.539616         -0.1107775
                                3.5999336         -0.1480263
                                1.0137618         1.130767
[INPUT] 0    0    [1    /1   ]  0.2700058            1
[INPUT] 1    0    [3    /1   ]  15.539616         0.0708743
                                3.5999336         0.3397528
                                1.0137618         0.7271586
[INPUT] 1    0    [1    /1   ]  0.2700058            1
[INPUT] 2    0    [1    /1   ]  0.8                  1

nuclear repulsion = 207.225228350963
number of shells = 60
number of NR pGTOs = 205
number of NR cGTOs = 120
basis = 6-31gss
ecp = {}
bas 0, expnt(s) = [5484.6717     825.23495    188.04696     52.9645      16.89757
    5.7996353]
bas 1, expnt(s) = [15.539616   3.5999336  1.0137618]
bas 2, expnt(s) = [0.2700058]
bas 3, expnt(s) = [15.539616   3.5999336  1.0137618]
bas 4, expnt(s) = [0.2700058]
bas 5, expnt(s) = [0.8]
bas 6, expnt(s) = [5484.6717     825.23495    188.04696     52.9645      16.89757
    5.7996353]
bas 7, expnt(s) = [15.539616   3.5999336  1.0137618]
bas 8, expnt(s) = [0.2700058]
bas 9, expnt(s) = [15.539616   3.5999336  1.0137618]
bas 10, expnt(s) = [0.2700058]
bas 11, expnt(s) = [0.8]
bas 12, expnt(s) = [5484.6717     825.23495    188.04696     52.9645      16.89757
    5.7996353]
bas 13, expnt(s) = [15.539616   3.5999336  1.0137618]
bas 14, expnt(s) = [0.2700058]
bas 15, expnt(s) = [15.539616   3.5999336  1.0137618]
bas 16, expnt(s) = [0.2700058]
bas 17, expnt(s) = [0.8]
bas 18, expnt(s) = [5484.6717     825.23495    188.04696     52.9645      16.89757
    5.7996353]
bas 19, expnt(s) = [15.539616   3.5999336  1.0137618]
bas 20, expnt(s) = [0.2700058]
bas 21, expnt(s) = [15.539616   3.5999336  1.0137618]
bas 22, expnt(s) = [0.2700058]
bas 23, expnt(s) = [0.8]
bas 24, expnt(s) = [5484.6717     825.23495    188.04696     52.9645      16.89757
    5.7996353]
bas 25, expnt(s) = [15.539616   3.5999336  1.0137618]
bas 26, expnt(s) = [0.2700058]
bas 27, expnt(s) = [15.539616   3.5999336  1.0137618]
bas 28, expnt(s) = [0.2700058]
bas 29, expnt(s) = [0.8]
bas 30, expnt(s) = [18.731137   2.8253937  0.6401217]
bas 31, expnt(s) = [0.1612778]
bas 32, expnt(s) = [1.1]
bas 33, expnt(s) = [18.731137   2.8253937  0.6401217]
bas 34, expnt(s) = [0.1612778]
bas 35, expnt(s) = [1.1]
bas 36, expnt(s) = [18.731137   2.8253937  0.6401217]
bas 37, expnt(s) = [0.1612778]
bas 38, expnt(s) = [1.1]
bas 39, expnt(s) = [18.731137   2.8253937  0.6401217]
bas 40, expnt(s) = [0.1612778]
bas 41, expnt(s) = [1.1]
bas 42, expnt(s) = [18.731137   2.8253937  0.6401217]
bas 43, expnt(s) = [0.1612778]
bas 44, expnt(s) = [1.1]
bas 45, expnt(s) = [18.731137   2.8253937  0.6401217]
bas 46, expnt(s) = [0.1612778]
bas 47, expnt(s) = [1.1]
bas 48, expnt(s) = [18.731137   2.8253937  0.6401217]
bas 49, expnt(s) = [0.1612778]
bas 50, expnt(s) = [1.1]
bas 51, expnt(s) = [18.731137   2.8253937  0.6401217]
bas 52, expnt(s) = [0.1612778]
bas 53, expnt(s) = [1.1]
bas 54, expnt(s) = [18.731137   2.8253937  0.6401217]
bas 55, expnt(s) = [0.1612778]
bas 56, expnt(s) = [1.1]
bas 57, expnt(s) = [18.731137   2.8253937  0.6401217]
bas 58, expnt(s) = [0.1612778]
bas 59, expnt(s) = [1.1]
CPU time:       822.02
arg.atm = [[ 8 20  1 23  0  0]
 [ 8 24  1 27  0  0]
 [ 8 28  1 31  0  0]
 [ 8 32  1 35  0  0]
 [ 8 36  1 39  0  0]
 [ 1 40  1 43  0  0]
 [ 1 44  1 47  0  0]
 [ 1 48  1 51  0  0]
 [ 1 52  1 55  0  0]
 [ 1 56  1 59  0  0]
 [ 1 60  1 63  0  0]
 [ 1 64  1 67  0  0]
 [ 1 68  1 71  0  0]
 [ 1 72  1 75  0  0]
 [ 1 76  1 79  0  0]]
arg.bas = [[  0   0   6   1   0  90  96   0]
 [  0   0   3   1   0 102 105   0]
 [  0   0   1   1   0 108 109   0]
 [  0   1   3   1   0 110 113   0]
 [  0   1   1   1   0 116 117   0]
 [  0   2   1   1   0 118 119   0]
 [  1   0   6   1   0  90  96   0]
 [  1   0   3   1   0 102 105   0]
 [  1   0   1   1   0 108 109   0]
 [  1   1   3   1   0 110 113   0]
 [  1   1   1   1   0 116 117   0]
 [  1   2   1   1   0 118 119   0]
 [  2   0   6   1   0  90  96   0]
 [  2   0   3   1   0 102 105   0]
 [  2   0   1   1   0 108 109   0]
 [  2   1   3   1   0 110 113   0]
 [  2   1   1   1   0 116 117   0]
 [  2   2   1   1   0 118 119   0]
 [  3   0   6   1   0  90  96   0]
 [  3   0   3   1   0 102 105   0]
 [  3   0   1   1   0 108 109   0]
 [  3   1   3   1   0 110 113   0]
 [  3   1   1   1   0 116 117   0]
 [  3   2   1   1   0 118 119   0]
 [  4   0   6   1   0  90  96   0]
 [  4   0   3   1   0 102 105   0]
 [  4   0   1   1   0 108 109   0]
 [  4   1   3   1   0 110 113   0]
 [  4   1   1   1   0 116 117   0]
 [  4   2   1   1   0 118 119   0]
 [  5   0   3   1   0  80  83   0]
 [  5   0   1   1   0  86  87   0]
 [  5   1   1   1   0  88  89   0]
 [  6   0   3   1   0  80  83   0]
 [  6   0   1   1   0  86  87   0]
 [  6   1   1   1   0  88  89   0]
 [  7   0   3   1   0  80  83   0]
 [  7   0   1   1   0  86  87   0]
 [  7   1   1   1   0  88  89   0]
 [  8   0   3   1   0  80  83   0]
 [  8   0   1   1   0  86  87   0]
 [  8   1   1   1   0  88  89   0]
 [  9   0   3   1   0  80  83   0]
 [  9   0   1   1   0  86  87   0]
 [  9   1   1   1   0  88  89   0]
 [ 10   0   3   1   0  80  83   0]
 [ 10   0   1   1   0  86  87   0]
 [ 10   1   1   1   0  88  89   0]
 [ 11   0   3   1   0  80  83   0]
 [ 11   0   1   1   0  86  87   0]
 [ 11   1   1   1   0  88  89   0]
 [ 12   0   3   1   0  80  83   0]
 [ 12   0   1   1   0  86  87   0]
 [ 12   1   1   1   0  88  89   0]
 [ 13   0   3   1   0  80  83   0]
 [ 13   0   1   1   0  86  87   0]
 [ 13   1   1   1   0  88  89   0]
 [ 14   0   3   1   0  80  83   0]
 [ 14   0   1   1   0  86  87   0]
 [ 14   1   1   1   0  88  89   0]]
arg.env = [ 1.37036000e+02  0.00000000e+00  0.00000000e+00  0.00000000e+00
  0.00000000e+00  0.00000000e+00  0.00000000e+00  0.00000000e+00
  0.00000000e+00  0.00000000e+00  0.00000000e+00  0.00000000e+00
  0.00000000e+00  0.00000000e+00  0.00000000e+00  0.00000000e+00
  0.00000000e+00  0.00000000e+00  0.00000000e+00  0.00000000e+00
  1.05265153e+01 -2.41129828e+01 -2.02839555e+01  0.00000000e+00
  1.31196920e+01 -2.23542903e+01 -1.58189805e+01  0.00000000e+00
  1.05661769e+01 -2.93540381e+01 -1.64410274e+01  0.00000000e+00
  5.58362480e+00 -2.40041441e+01 -1.86623796e+01  0.00000000e+00
  7.95719829e+00 -2.51911925e+01 -1.42761212e+01  0.00000000e+00
  8.77344660e+00 -2.42410798e+01 -1.98570305e+01  0.00000000e+00
  1.13076525e+01 -2.34423738e+01 -1.87966655e+01  0.00000000e+00
  1.41645820e+01 -2.28487768e+01 -1.44277169e+01  0.00000000e+00
  1.38091000e+01 -2.07734569e+01 -1.63645142e+01  0.00000000e+00
  1.19228094e+01 -3.03692708e+01 -1.58079521e+01  0.00000000e+00
  1.03486278e+01 -2.99029053e+01 -1.81508043e+01  0.00000000e+00
  5.79022289e+00 -2.55204508e+01 -1.76979825e+01  0.00000000e+00
  5.17491673e+00 -2.27388534e+01 -1.74360362e+01  0.00000000e+00
  9.38018663e+00 -2.40850659e+01 -1.41227926e+01  0.00000000e+00
  8.66153702e+00 -2.67619008e+01 -1.48317423e+01  0.00000000e+00
  1.87311370e+01  2.82539370e+00  6.40121700e-01  7.61926220e-01
  1.29237100e+00  1.47131900e+00  1.61277800e-01  6.42977783e-01
  1.10000000e+00  3.28643653e+00  5.48467170e+03  8.25234950e+02
  1.88046960e+02  5.29645000e+01  1.68975700e+01  5.79963530e+00
  2.94842455e+00  5.42657124e+00  8.78126489e+00  1.15432129e+01
  9.90055015e+00  3.38516599e+00  1.55396160e+01  3.59993360e+00
  1.01376180e+00 -2.19051792e+00 -9.77405528e-01  2.88629094e+00
  2.70005800e-01  9.46334873e-01  1.55396160e+01  3.59993360e+00
  1.01376180e+00  6.37930734e+00  4.91490975e+00  2.15791055e+00
  2.70005800e-01  5.67807022e-01  8.00000000e-01  1.76578110e+00]
ecpbas  = []


******** <class 'pyscf.qmmm.itrf.mm_charge.<locals>.QMMM'> ********
method = QMMM-RHF
initial guess = minao
damping factor = 0
level shift factor = 0
DIIS = <class 'pyscf.scf.diis.CDIIS'>
DIIS start cycle = 1
DIIS space = 8
SCF tol = 1e-09
SCF gradient tol = None
max. SCF cycles = 50
direct_scf = True
direct_scf_tol = 1e-13
chkfile to save SCF result = /home/liwei01/wsr/dftpart/test_2body/w32/tmp04dop09t
max_memory 4000 MB (current use 332 MB)
** Add background charges for <class 'pyscf.scf.hf.RHF'> **
Charge      Location
-1.056075    [ 15.8591958  -22.32322322 -21.16584533]
0.523264    [ 15.44903263 -23.69303655 -20.05800473]
0.517699    [ 17.48403712 -21.75849557 -20.60647128]
-1.035697    [ 20.23144001 -20.50137794 -19.07019386]
0.520608    [ 21.7723038  -21.39222885 -18.74761761]
0.515624    [ 19.97024207 -19.49608333 -17.58928542]
-1.009926    [ 16.42785407 -26.58707085 -18.04142885]
0.499922    [ 15.53371882 -25.95112132 -16.60336995]
0.507893    [ 16.16245338 -28.37548309 -17.98600129]
-1.024266    [ 13.70105109 -18.63199472 -24.76194313]
0.515186    [ 13.45609723 -19.31578456 -26.41855264]
0.515422    [ 13.87339411 -20.08163576 -23.69387937]
-1.032359    [ 13.1641969  -17.47579981 -19.41562257]
0.514165    [ 13.18112696 -18.60438393 -20.82910748]
0.518479    [ 14.52136419 -16.32434621 -19.73837456]
-1.002885    [ 18.40539199 -27.51482622 -24.72543362]
0.521542    [ 17.83274639 -26.30664305 -23.50711585]
0.49877    [ 20.13069872 -27.06649815 -25.03241585]
-1.054902    [ 19.05772167 -18.14703431 -25.87868434]
0.517977    [ 18.59105569 -18.66655214 -27.54728983]
0.522623    [ 17.51229609 -18.19498233 -24.93991564]
-0.997115    [ 17.90283445 -15.11249509 -20.63210731]
0.530073    [ 18.89257472 -16.62132612 -20.50652934]
0.49195    [ 18.18557149 -14.25298717 -19.06582671]
-1.032188    [ 15.97118286 -20.09833149 -29.6421136 ]
0.47982    [ 15.3540909  -19.66610766 -31.28659296]
0.534069    [ 17.50300052 -21.00734455 -29.95701189]
-0.992133    [  7.63287216 -21.21078113 -24.19682809]
0.480184    [  8.55071592 -22.76668147 -24.10379498]
0.504586    [  8.37549106 -20.32880248 -25.59058803]
-1.012936    [ 10.55365553 -29.46492154 -21.67488842]
0.504954    [  8.84108934 -29.00412127 -22.03084479]
0.525721    [ 11.34418277 -27.91794449 -21.17105153]
-0.985176    [ 16.63195772 -23.48150439 -12.27810621]
0.500614    [ 17.11266814 -22.20236011 -11.09293235]
0.508291    [ 16.89319913 -25.03868407 -11.39557387]
-0.979947    [ 19.94097588 -17.12125506 -14.67509908]
0.500341    [ 18.95312155 -17.86288753 -13.35371942]
0.493696    [ 19.00620207 -15.6543646  -15.17143564]
-0.982261    [ 16.04742575 -26.75780005 -29.6895325 ]
0.479882    [ 16.71262824 -28.42851069 -29.88488293]
0.495008    [ 16.8532352  -26.12000803 -28.20097066]
-0.983713    [ 20.17321188 -22.53529584 -29.89394228]
0.505479    [ 21.06170253 -23.16751127 -28.4507471 ]
0.512532    [ 20.35114661 -23.83370776 -31.14069287]
-1.011239    [ 14.66303696 -31.18986921 -25.03135193]
0.492592    [ 13.80996545 -30.6346091  -23.53606456]
0.497341    [ 16.13314373 -30.14067248 -25.13086491]
-0.999332    [ 25.43111026 -22.24828235 -18.47023794]
0.512801    [ 26.28398524 -20.77981964 -19.09325419]
0.507583    [ 26.7410892  -23.47726762 -18.25698991]
-0.976012    [ 10.09067452 -21.18806662 -29.24260093]
0.486289    [ 11.11173701 -19.76402949 -29.69146191]
0.496485    [ 10.37375928 -22.38512875 -30.56881072]
-0.977833    [ 24.5589393  -27.80514674 -21.18389789]
0.50587    [ 23.21796885 -28.65180829 -20.31390388]
0.463809    [ 25.76766104 -27.42438582 -19.8931866 ]
-0.989717    [  8.77070649 -15.37911655 -23.94499373]
0.487556    [  8.68859978 -13.74216775 -23.17975481]
0.496916    [ 10.53805395 -15.75730555 -24.01835668]
-0.992057    [ 16.93410036 -32.15697813 -17.52810554]
0.50918    [ 16.39069828 -32.53931319 -15.84570882]
0.510293    [ 15.6895513  -32.92540692 -18.59231236]
-0.998393    [ 24.35861321 -18.31258187 -25.98586582]
0.466984    [ 25.48944989 -18.60606579 -24.60492389]
0.51604    [ 22.70911474 -18.4111103  -25.25008395]
-1.010464    [  9.27281806 -14.9477601  -17.25327322]
0.476424    [  7.6789399  -15.16789619 -18.07972415]
0.517552    [ 10.24747455 -16.38576609 -17.75736144]
-1.001943    [ 16.13613705 -11.83176802 -24.46883904]
0.509813    [ 16.78082846 -12.94299123 -23.1954641 ]
0.477312    [ 17.5304658  -11.57071369 -25.59117007]
-1.019724    [ 21.67798379 -29.0173418  -14.20699124]
0.475311    [ 20.53074618 -29.01816194 -15.60548117]
0.514632    [ 22.50198564 -27.40961194 -14.29731259]
-0.9959    [ 24.21450458 -24.60133719 -13.9203349 ]
0.499354    [ 23.58737251 -23.46499007 -12.66043371]
0.511038    [ 23.91476757 -23.75039163 -15.48812918]
-1.001922    [ 21.40011279 -32.14724982 -20.33868764]
0.487648    [ 22.14106118 -33.75675602 -19.97480576]
0.509505    [ 19.73399418 -32.24696878 -19.64152988]
Set gradient conv threshold to 3.16228e-05
Nelec from initial guess = 49.94725679920232
cond(S) = 158.0445070399412
E1 = -931.2020480482099  E_coul = 343.61444928051026
init E= -379.443618546591
    CPU time for initialize scf      2.53 sec, wall time      0.33 sec
  HOMO = -0.461936124067018  LUMO = 0.0414449796454361
  mo_energy =
[-20.8486976  -20.84626994 -20.81906381 -20.81032912 -20.79750183
  -1.69940668  -1.67262192  -1.64204767  -1.63216744  -1.60297904
  -0.81523543  -0.80103888  -0.79070508  -0.75692086  -0.74852416
  -0.66943283  -0.64576458  -0.60634857  -0.59505897  -0.57313297
  -0.5313609   -0.51723904  -0.50090976  -0.49359758  -0.46193612
   0.04144498   0.09591461   0.13315071   0.18538945   0.2011827
   0.23075315   0.23630881   0.26249116   0.29219416   0.327719
   0.85014375   0.87881878   0.90185548   0.91309963   0.92636919
   0.95869829   0.96600207   0.97528429   0.99716681   1.00505067
   1.01351805   1.03141275   1.04705427   1.06517832   1.08191689
   1.12538076   1.14407065   1.18737273   1.19166257   1.2058532
   1.2266163    1.23686909   1.29184841   1.32969305   1.36140966
   1.48134252   1.50222794   1.57681557   1.61116362   1.65164659
   1.6724413    1.67505355   1.6857314    1.7032972    1.70825654
   1.72065453   1.74411302   1.76010246   1.77276182   1.77739918
   1.81422317   1.84863729   1.87432809   1.89866489   1.90177468
   2.44703753   2.47302551   2.48176147   2.5080488    2.5293091
   2.53236261   2.54806879   2.55287477   2.57123585   2.66000395
   2.68272063   2.72022118   2.73727409   2.75983831   2.80107792
   2.85972446   2.89245986   2.89507553   2.89980184   2.91428911
   2.92145461   2.93949429   2.94508247   2.95284686   2.98786784
   3.28365449   3.30309919   3.30901456   3.34497959   3.36065839
   3.66532223   3.69231871   3.71441291   3.72417491   3.73790539
   3.80409077   3.86202885   3.87920044   3.90764442   3.93004771]
E1 = -944.0145674001932  E_coul = 355.8517135958247
cycle= 1 E= -380.01887358326  delta_E= -0.575  |g|= 0.922  |ddm|= 2.65
    CPU time for cycle= 1      0.32 sec, wall time      0.04 sec
diis-norm(errvec)=1.62207
diis-c [-2.63111882  1.        ]
  HOMO = -0.363632202704735  LUMO = 0.14987738685241
  mo_energy =
[-20.42067644 -20.40896416 -20.34402958 -20.3220825  -20.23552279
  -1.35254306  -1.33921891  -1.27736743  -1.26248552  -1.20904318
  -0.72992412  -0.71496277  -0.66646179  -0.64693173  -0.61412842
  -0.57830447  -0.55356813  -0.50509518  -0.49829272  -0.49035426
  -0.47073562  -0.45658454  -0.41084377  -0.38949763  -0.3636322
   0.14987739   0.19393681   0.25443598   0.28738479   0.30588359
   0.3292303    0.35268671   0.4002092    0.45104232   0.53794058
   0.9395448    0.98803231   1.01016164   1.03794207   1.05484795
   1.05991123   1.07780714   1.11084772   1.1272212    1.14780878
   1.16703354   1.19203374   1.20908416   1.23856615   1.26616176
   1.28850563   1.30734092   1.34425273   1.35722071   1.38724714
   1.39789975   1.40562551   1.45381085   1.46977887   1.5319162
   1.6379235    1.66745205   1.73463626   1.76070939   1.77287707
   1.7915972    1.80817686   1.82890755   1.84947328   1.85762105
   1.88588369   1.89665651   1.90263756   1.93535145   1.95162546
   1.98989796   2.02460406   2.04241846   2.06247607   2.11205277
   2.49886591   2.5238898    2.56277349   2.56888427   2.57602715
   2.61918807   2.65307374   2.65709948   2.71406045   2.77225232
   2.79768185   2.84536096   2.87501467   2.91025536   2.91629885
   2.94297768   2.94547442   2.94977421   2.9798879    3.00544502
   3.03439735   3.05920097   3.06796436   3.10374696   3.12295327
   3.32962731   3.3667966    3.41159093   3.45108761   3.48224461
   3.7168484    3.73976603   3.79814461   3.84335001   3.90016267
   3.90727752   3.94298625   4.02341674   4.0695797    4.14001794]
E1 = -936.6796681100277  E_coul = 348.38969016887535
cycle= 2 E= -380.145997720044  delta_E= -0.127  |g|= 0.436  |ddm|= 0.732
    CPU time for cycle= 2      0.31 sec, wall time      0.04 sec
diis-norm(errvec)=0.729611
diis-c [-0.13837344  0.28445949  0.71554051]
  HOMO = -0.46694756868346  LUMO = 0.144735676715855
  mo_energy =
[-20.65025509 -20.62766442 -20.57362384 -20.56520863 -20.54010678
  -1.41671516  -1.39593948  -1.34922987  -1.33465433  -1.30780514
  -0.77753206  -0.75670623  -0.72371413  -0.70201307  -0.68508448
  -0.64682261  -0.62203663  -0.57998219  -0.57073935  -0.56110042
  -0.54625679  -0.54601667  -0.4965523   -0.4713201   -0.46694757
   0.14473568   0.19009597   0.24063436   0.27751345   0.29989396
   0.31750499   0.3365715    0.36964276   0.4212304    0.49580976
   0.92397548   0.97146303   0.9846751    1.01662952   1.02276769
   1.03902315   1.06430614   1.06796067   1.08977271   1.10345836
   1.12473842   1.13587651   1.14907099   1.17837254   1.20500943
   1.22738701   1.2499777    1.29504973   1.30197571   1.33620677
   1.34022256   1.34971797   1.40203484   1.42067951   1.47310079
   1.58650897   1.6151484    1.68534194   1.72881045   1.73657798
   1.75508931   1.76841423   1.78933074   1.8087031    1.80950708
   1.83664978   1.84619343   1.85918376   1.88833376   1.90362476
   1.93907653   1.96451581   1.98900573   2.00959205   2.04597631
   2.50689456   2.52495243   2.53185475   2.54483348   2.56177271
   2.61245286   2.61785553   2.63789545   2.66729313   2.74164908
   2.77115512   2.80100914   2.82956261   2.86634157   2.9037926
   2.91314799   2.93105904   2.94500509   2.955951     2.98448264
   3.01725191   3.02557093   3.02906222   3.06071466   3.08470107
   3.31634379   3.35809108   3.38850237   3.42671106   3.44113521
   3.69842591   3.72813911   3.76991225   3.81171712   3.85529934
   3.86383568   3.91108361   3.97993804   4.01928023   4.0735044 ]
E1 = -939.8401751050541  E_coul = 351.51694278398156
cycle= 3 E= -380.179252099964  delta_E= -0.0333  |g|= 0.0645  |ddm|= 0.284
    CPU time for cycle= 3      0.31 sec, wall time      0.04 sec
diis-norm(errvec)=0.118966
diis-c [-0.00671503 -0.03276511  0.05190144  0.98086366]
  HOMO = -0.45966942664701  LUMO = 0.151027438460536
  mo_energy =
[-20.61704373 -20.59505188 -20.54518217 -20.53879198 -20.51069037
  -1.40234788  -1.38061135  -1.3379409   -1.32353432  -1.2982531
  -0.76423502  -0.74250053  -0.71349505  -0.69210442  -0.6761387
  -0.63669382  -0.61192352  -0.57173635  -0.55946294  -0.55225654
  -0.538812    -0.53518683  -0.48847986  -0.46351103  -0.45966943
   0.15102744   0.196843     0.24592766   0.28343646   0.30640752
   0.32420963   0.34201188   0.37394274   0.42718246   0.50074308
   0.93285067   0.98090989   0.99244858   1.02282774   1.0318835
   1.04542171   1.07614578   1.07627409   1.09729238   1.11209667
   1.13333263   1.14306138   1.15662524   1.18674976   1.2122029
   1.23673745   1.25936243   1.30409416   1.3093292    1.34480735
   1.34922879   1.3582173    1.41112812   1.43043507   1.48180285
   1.59553335   1.62436637   1.6939782    1.73946543   1.74757648
   1.76604153   1.77908036   1.79965905   1.81689548   1.81883943
   1.8440204    1.85542832   1.86907783   1.8966837    1.91284354
   1.94705944   1.97223309   1.99715043   2.01793975   2.05224069
   2.51852415   2.53676716   2.54423857   2.55767701   2.57099735
   2.62104153   2.62667801   2.64316773   2.67655636   2.754598
   2.78388346   2.81049714   2.8388851    2.87589394   2.9153345
   2.92222577   2.94154776   2.9572145    2.96721266   2.99292655
   3.02625945   3.03309093   3.03465809   3.06570653   3.09211491
   3.32738491   3.36986071   3.39726355   3.43488829   3.44601717
   3.71343916   3.7444737    3.78174119   3.82313769   3.86408678
   3.87669252   3.92504319   3.99008609   4.02888657   4.0808214 ]
E1 = -939.4839226021297  E_coul = 351.1597123362043
cycle= 4 E= -380.180230044817  delta_E= -0.000978  |g|= 0.0105  |ddm|= 0.0437
    CPU time for cycle= 4      0.31 sec, wall time      0.04 sec
diis-norm(errvec)=0.0218654
diis-c [-1.43531397e-04 -7.56899812e-03 -3.52859982e-02 -1.56926856e-01
  1.19978185e+00]
  HOMO = -0.460652135784358  LUMO = 0.150990958867258
  mo_energy =
[-20.62046045 -20.59781084 -20.54593562 -20.54008687 -20.51106458
  -1.40361075  -1.38161601  -1.33850223  -1.3241754   -1.2989936
  -0.76457531  -0.74271646  -0.71353943  -0.69218644  -0.67638352
  -0.63742047  -0.61263755  -0.57221723  -0.56106755  -0.55293463
  -0.53943115  -0.53634714  -0.48960138  -0.46493197  -0.46065214
   0.15099096   0.19675305   0.24582051   0.28353179   0.30651493
   0.32437544   0.34223164   0.37347134   0.42748066   0.50070796
   0.93271401   0.98067276   0.99216367   1.02237227   1.03145179
   1.04523308   1.0756134    1.07588922   1.09690089   1.11154536
   1.13287665   1.14234647   1.1562129    1.18627075   1.21158266
   1.23639656   1.25900005   1.30363891   1.30863845   1.34415736
   1.34888271   1.35801678   1.41066928   1.42989895   1.48147388
   1.59495154   1.62379619   1.69362615   1.73907018   1.74715427
   1.76570867   1.77883927   1.79931885   1.81658735   1.8186782
   1.84349195   1.85503552   1.86866914   1.89638408   1.91250734
   1.9466209    1.97185641   1.99677665   2.01754928   2.05178587
   2.51876262   2.53634996   2.54439685   2.55749408   2.57104764
   2.62110864   2.62658217   2.64268062   2.67643593   2.75441055
   2.78381396   2.81035255   2.83879248   2.87604382   2.91548529
   2.92221685   2.94148106   2.95739213   2.9673021    2.9930056
   3.0262491    3.0331237    3.03438087   3.06520801   3.0920629
   3.32755945   3.37010978   3.39747743   3.43509957   3.44562666
   3.71325786   3.74439942   3.78176021   3.82324023   3.86371436
   3.87658406   3.92511875   3.99025776   4.02915593   4.08070958]
E1 = -939.4969207080634  E_coul = 351.1726593953114
cycle= 5 E= -380.180281091644  delta_E= -5.1e-05  |g|= 0.00228  |ddm|= 0.0141
    CPU time for cycle= 5      0.30 sec, wall time      0.04 sec
diis-norm(errvec)=0.0043463
diis-c [-1.29304268e-05  1.31311913e-03  2.98539108e-03 -1.40399865e-02
 -8.97628729e-02  1.09950435e+00]
  HOMO = -0.461309770307235  LUMO = 0.151057807733007
  mo_energy =
[-20.61885008 -20.59658007 -20.54646751 -20.54017611 -20.51254612
  -1.40315375  -1.38123825  -1.33868549  -1.32433466  -1.29952072
  -0.76406366  -0.74229231  -0.71355028  -0.69222202  -0.67653077
  -0.63721212  -0.61249159  -0.57237627  -0.56074203  -0.55311468
  -0.53980266  -0.53621093  -0.48996976  -0.465313    -0.46130977
   0.15105781   0.19680789   0.24580493   0.28360851   0.30658262
   0.32442084   0.3422462    0.37330119   0.42744303   0.50050279
   0.932772     0.98070226   0.99208048   1.02218088   1.03149254
   1.04514818   1.07559978   1.07595389   1.09677668   1.11142944
   1.13280794   1.142198     1.15608005   1.18628813   1.2113303
   1.23652715   1.25904374   1.30362738   1.30859522   1.34401623
   1.34886988   1.35796998   1.41059094   1.42987094   1.4813219
   1.59504833   1.62377974   1.69365431   1.73913749   1.74728081
   1.765708     1.77889586   1.79936633   1.8163976    1.81856264
   1.84317218   1.85500952   1.86874286   1.89621865   1.9125039
   1.94641936   1.97165838   1.99673453   2.01743031   2.05148217
   2.51880108   2.53658771   2.5444348    2.55768091   2.57096655
   2.6210114    2.62646253   2.6424827    2.67627037   2.75463236
   2.78388435   2.81020009   2.83859778   2.87587833   2.9156652
   2.92206399   2.94156042   2.95750964   2.96734975   2.99291313
   3.02616345   3.0329378    3.03409871   3.06490311   3.0918709
   3.3276714    3.37019693   3.39740492   3.43499084   3.44531785
   3.71347608   3.74459132   3.78166767   3.823116     3.86338986
   3.8768174    3.92532341   3.99013581   4.02896582   4.08030081]
E1 = -939.4914572143575  E_coul = 351.16719379337246
cycle= 6 E= -380.180283199877  delta_E= -2.11e-06  |g|= 0.00105  |ddm|= 0.00311
    CPU time for cycle= 6      0.32 sec, wall time      0.04 sec
diis-norm(errvec)=0.00185015
diis-c [-9.11789830e-07  1.15948201e-03  4.67647196e-03  9.79799205e-03
 -1.38471116e-01  2.96757806e-01  8.26079364e-01]
  HOMO = -0.461167210797285  LUMO = 0.1510196862112
  mo_energy =
[-20.61944903 -20.59700632 -20.54614608 -20.54008366 -20.51185959
  -1.4033701   -1.38139886  -1.33863455  -1.32430306  -1.299354
  -0.76419247  -0.74238282  -0.71352007  -0.6921724   -0.67645546
  -0.63735812  -0.61260378  -0.57238277  -0.56098112  -0.55312178
  -0.53975254  -0.53635074  -0.4899371   -0.4653287   -0.46116721
   0.15101969   0.19677369   0.24578224   0.28357405   0.30656324
   0.32439679   0.34224327   0.37328342   0.42742031   0.50052505
   0.93270614   0.98064941   0.99205386   1.02216783   1.03142565
   1.04511984   1.07553548   1.07589944   1.09675384   1.11139853
   1.13277552   1.1421692    1.15606492   1.18622932   1.2113531
   1.23645203   1.25899145   1.30359096   1.3085282    1.34399971
   1.34883865   1.35795605   1.41058235   1.42984716   1.48135656
   1.59497731   1.62375143   1.69359314   1.73906141   1.74718199
   1.76566289   1.77883017   1.79929941   1.81640328   1.81855925
   1.84321803   1.85495693   1.86865687   1.89622731   1.91245621
   1.94644071   1.97168067   1.99670234   2.01742838   2.05153071
   2.51875693   2.53643689   2.54439461   2.55757051   2.57094303
   2.62099349   2.6264407    2.64246476   2.6762861    2.75449533
   2.78381276   2.81019669   2.83860804   2.87588627   2.9155803
   2.92206666   2.94146805   2.95745129   2.96729668   2.99291112
   3.02614698   3.03294169   3.03412315   3.06492711   3.09188035
   3.3275873    3.37013541   3.39738415   3.43497947   3.44534443
   3.71336373   3.74450727   3.78165993   3.82311871   3.86343788
   3.87667549   3.92521429   3.99012882   4.0289959    4.08038126]
E1 = -939.490899296592  E_coul = 351.1666355817326
cycle= 7 E= -380.180283493751  delta_E= -2.94e-07  |g|= 0.000179  |ddm|= 0.000998
    CPU time for cycle= 7      0.31 sec, wall time      0.04 sec
diis-norm(errvec)=0.000336877
diis-c [-2.28400515e-08 -2.40900288e-04 -7.03158740e-04 -1.27993984e-03
  2.49086412e-02 -1.17813550e-01 -1.15041823e-01  1.21017073e+00]
  HOMO = -0.461199764878998  LUMO = 0.151028415508424
  mo_energy =
[-20.6193696  -20.59693203 -20.54615661 -20.54004963 -20.51188873
  -1.40334406  -1.38137664  -1.33863691  -1.32430255  -1.29937351
  -0.76415652  -0.74235319  -0.71350809  -0.69216085  -0.67644973
  -0.63734413  -0.6125917   -0.57238687  -0.56096429  -0.55312885
  -0.53976865  -0.53634477  -0.48995528  -0.46534941  -0.46119976
   0.15102842   0.19677804   0.24578602   0.28358533   0.3065712
   0.32440433   0.34225462   0.37327679   0.42743468   0.50052492
   0.93272173   0.98065816   0.99205635   1.02216605   1.03143472
   1.04512658   1.07553993   1.07590867   1.09675762   1.11139791
   1.13277932   1.14216621   1.15606322   1.18623718   1.21134649
   1.23647036   1.25900357   1.30359988   1.30853692   1.34400205
   1.34885045   1.35796804   1.41058764   1.42985329   1.48136072
   1.59498726   1.62375699   1.69360356   1.73907137   1.74719517
   1.76566814   1.77884067   1.79930851   1.81640021   1.81856107
   1.84320676   1.85496389   1.86866926   1.89622903   1.91246137
   1.94643536   1.97167569   1.99670656   2.01742712   2.05152221
   2.51877064   2.53645796   2.54440471   2.55758685   2.5709507
   2.62100025   2.62644643   2.64245713   2.67628479   2.75451827
   2.78382551   2.81019874   2.83860839   2.87589325   2.91559799
   2.92206888   2.94148308   2.957466     2.9673044    2.99291193
   3.02614633   3.03294801   3.03411241   3.06491761   3.09188454
   3.32760584   3.37014931   3.39739255   3.43498704   3.44533342
   3.71338437   3.74452495   3.78166914   3.82312729   3.86342933
   3.87669985   3.9252345    3.99013804   4.02899891   4.08037058]
E1 = -939.4904015792097  E_coul = 351.1661378495949
cycle= 8 E= -380.180283508507  delta_E= -1.48e-08  |g|= 2.52e-05  |ddm|= 0.000293
    CPU time for cycle= 8      0.32 sec, wall time      0.04 sec
diis-norm(errvec)=4.72815e-05
diis-c [-1.58340186e-09 -3.34084730e-05 -1.30726652e-04 -2.85311793e-04
  3.97063891e-03 -8.65121406e-03 -2.44434827e-02  1.39168743e-02
  1.01565663e+00]
  HOMO = -0.461200466882043  LUMO = 0.15102905707057
  mo_energy =
[-20.6193642  -20.59693648 -20.54613868 -20.54005912 -20.51188835
  -1.40334168  -1.38137743  -1.33863344  -1.32430197  -1.29937378
  -0.76415371  -0.74235317  -0.71350394  -0.69215989  -0.67644886
  -0.63734221  -0.6125916   -0.5723848   -0.56096235  -0.5531277
  -0.53976822  -0.53634494  -0.48995202  -0.46535     -0.46120047
   0.15102906   0.19677822   0.24578676   0.28358565   0.30657187
   0.32440478   0.34225566   0.37327671   0.42743547   0.50052493
   0.93272218   0.9806586    0.99205721   1.02216591   1.03143505
   1.04512752   1.07554152   1.07590811   1.09675787   1.111399
   1.13278102   1.14216648   1.15606342   1.18623767   1.21134613
   1.23647134   1.25900406   1.30360136   1.30853714   1.34400198
   1.34885055   1.357968     1.41058929   1.42985409   1.48136083
   1.59498942   1.62375712   1.69360424   1.73907238   1.74719613
   1.76566802   1.77884175   1.79930896   1.8164002    1.81856327
   1.84320664   1.85496417   1.86867011   1.89622997   1.91246211
   1.94643562   1.97167693   1.99670826   2.01742841   2.05152173
   2.5187717    2.53645933   2.5444046    2.55758627   2.57095133
   2.62100158   2.6264466    2.64245759   2.67628881   2.75451962
   2.78382511   2.81019845   2.83860841   2.87589578   2.91559995
   2.92206934   2.94148309   2.95746595   2.967304     2.99291506
   3.02614809   3.03294812   3.03411231   3.06491766   3.09188475
   3.32760693   3.37014933   3.39739385   3.43498862   3.44533357
   3.71338608   3.74452423   3.78167003   3.82312919   3.86342934
   3.87670106   3.92523389   3.9901378    4.02900269   4.08037081]
E1 = -939.4904034951695  E_coul = 351.1661397652638
cycle= 9 E= -380.180283508798  delta_E= -2.91e-10  |g|= 1.03e-05  |ddm|= 3.91e-05
    CPU time for cycle= 9      0.31 sec, wall time      0.04 sec
  HOMO = -0.461199684830442  LUMO = 0.151028848419641
  mo_energy =
[-20.61936859 -20.59693544 -20.54614803 -20.54005181 -20.51188658
  -1.40334274  -1.381377    -1.33863465  -1.32430102  -1.29937284
  -0.76415467  -0.74235311  -0.71350537  -0.69215878  -0.67644768
  -0.63734349  -0.61259132  -0.57238492  -0.560963    -0.55312756
  -0.53976787  -0.53634464  -0.48995243  -0.46534876  -0.46119968
   0.15102885   0.19677802   0.24578699   0.2835855    0.30657163
   0.32440465   0.34225602   0.37327707   0.42743492   0.50052568
   0.93272195   0.98065823   0.99205734   1.02216622   1.03143478
   1.04512747   1.07554094   1.07590803   1.0967578    1.11139862
   1.13278071   1.14216659   1.15606377   1.18623744   1.21134647
   1.23647084   1.25900383   1.30360107   1.30853683   1.344003
   1.34885105   1.35796859   1.41058903   1.42985394   1.48136133
   1.59498864   1.62375771   1.69360407   1.73907231   1.74719584
   1.76566823   1.77884117   1.79930879   1.81640106   1.8185627
   1.84320728   1.85496462   1.86867007   1.89622999   1.91246226
   1.94643585   1.97167678   1.9967076    2.01742847   2.05152284
   2.51877141   2.53645864   2.54440439   2.55758634   2.57095181
   2.62100167   2.62644774   2.64245799   2.67628723   2.75451894
   2.78382524   2.81019922   2.83860946   2.87589452   2.91559948
   2.92206977   2.94148272   2.95746586   2.96730397   2.99291431
   3.02614866   3.03294774   3.03411244   3.06491841   3.09188565
   3.32760645   3.37014908   3.39739404   3.43498866   3.44533406
   3.71338533   3.74452411   3.78167075   3.82312837   3.86342994
   3.87670039   3.92523388   3.99013943   4.02900101   4.0803714 ]
E1 = -939.4904190590674  E_coul = 351.1661553291201
Extra cycle  E= -380.180283508839  delta_E= -4.16e-11  |g|= 5.45e-06  |ddm|= 1.41e-05
    CPU time for scf_cycle      5.63 sec, wall time      0.72 sec
    CPU time for SCF      5.71 sec, wall time      0.74 sec
converged SCF energy = -380.180283508839
