Atom number=12                                                          
SP        RHF                                                         6-31G(d,p)          
Number of atoms                            I               12
Info1-9                                    I   N=           9
         107         106           0           0           0         111
           1           1           2
Full Title                                 C   N=           2
Atom number=12          
Route                                      C   N=           4
#p hf/6-31g** 5d 7f pop=npa charge nosymm       
Charge                                     I                0
Multiplicity                               I                1
Number of electrons                        I               40
Number of alpha electrons                  I               20
Number of beta electrons                   I               20
Number of basis functions                  I               96
Number of independent functions            I               96
Number of point charges in /Mol/           I                0
Number of translation vectors              I                0
Atomic numbers                             I   N=          12
           8           8           8           8           1           1
           1           1           1           1           1           1
Nuclear charges                            R   N=          12
  8.00000000E+00  8.00000000E+00  8.00000000E+00  8.00000000E+00  1.00000000E+00
  1.00000000E+00  1.00000000E+00  1.00000000E+00  1.00000000E+00  1.00000000E+00
  1.00000000E+00  1.00000000E+00
Current cartesian coordinates              R   N=          36
  1.37010511E+01 -1.86319947E+01 -2.47619431E+01  1.31641969E+01 -1.74757998E+01
 -1.94156226E+01  8.77070649E+00 -1.53791165E+01 -2.39449937E+01  9.27281806E+00
 -1.49477601E+01 -1.72532732E+01  1.34560972E+01 -1.93157846E+01 -2.64185526E+01
  1.38733941E+01 -2.00816358E+01 -2.36938794E+01  1.31811270E+01 -1.86043839E+01
 -2.08291075E+01  1.45213642E+01 -1.63243462E+01 -1.97383746E+01  8.68859978E+00
 -1.37421677E+01 -2.31797548E+01  1.05380540E+01 -1.57573055E+01 -2.40183567E+01
  7.67893990E+00 -1.51678962E+01 -1.80797242E+01  1.02474745E+01 -1.63857661E+01
 -1.77573614E+01
Number of symbols in /Mol/                 I                0
Force Field                                I                0
Atom Types                                 C   N=          12
                                                            
                                                            
                        
Int Atom Types                             I   N=          12
           0           0           0           0           0           0
           0           0           0           0           0           0
MM charges                                 R   N=          12
  0.00000000E+00  0.00000000E+00  0.00000000E+00  0.00000000E+00  0.00000000E+00
  0.00000000E+00  0.00000000E+00  0.00000000E+00  0.00000000E+00  0.00000000E+00
  0.00000000E+00  0.00000000E+00
Integer atomic weights                     I   N=          12
          16          16          16          16           1           1
           1           1           1           1           1           1
Real atomic weights                        R   N=          12
  1.59949146E+01  1.59949146E+01  1.59949146E+01  1.59949146E+01  1.00782504E+00
  1.00782504E+00  1.00782504E+00  1.00782504E+00  1.00782504E+00  1.00782504E+00
  1.00782504E+00  1.00782504E+00
Atom fragment info                         I   N=          12
           0           0           0           0           0           0
           0           0           0           0           0           0
Atom residue num                           I   N=          12
           0           0           0           0           0           0
           0           0           0           0           0           0
Nuclear spins                              I   N=          12
           0           0           0           0           1           1
           1           1           1           1           1           1
Nuclear ZEff                               R   N=          12
 -5.60000000E+00 -5.60000000E+00 -5.60000000E+00 -5.60000000E+00 -1.00000000E+00
 -1.00000000E+00 -1.00000000E+00 -1.00000000E+00 -1.00000000E+00 -1.00000000E+00
 -1.00000000E+00 -1.00000000E+00
Nuclear ZNuc                               R   N=          12
  8.00000000E+00  8.00000000E+00  8.00000000E+00  8.00000000E+00  1.00000000E+00
  1.00000000E+00  1.00000000E+00  1.00000000E+00  1.00000000E+00  1.00000000E+00
  1.00000000E+00  1.00000000E+00
Nuclear QMom                               R   N=          12
  0.00000000E+00  0.00000000E+00  0.00000000E+00  0.00000000E+00  0.00000000E+00
  0.00000000E+00  0.00000000E+00  0.00000000E+00  0.00000000E+00  0.00000000E+00
  0.00000000E+00  0.00000000E+00
Nuclear GFac                               R   N=          12
  0.00000000E+00  0.00000000E+00  0.00000000E+00  0.00000000E+00  2.79284600E+00
  2.79284600E+00  2.79284600E+00  2.79284600E+00  2.79284600E+00  2.79284600E+00
  2.79284600E+00  2.79284600E+00
MicOpt                                     I   N=          12
          -1          -1          -1          -1          -1          -1
          -1          -1          -1          -1          -1          -1
Number of residues                         I                0
Number of secondary structures             I                0
Number of contracted shells                I               40
Number of primitive shells                 I               84
Pure/Cartesian d shells                    I                0
Pure/Cartesian f shells                    I                0
Highest angular momentum                   I                2
Largest degree of contraction              I                6
Shell types                                I   N=          40
           0          -1          -1          -2           0          -1
          -1          -2           0          -1          -1          -2
           0          -1          -1          -2           0           0
           1           0           0           1           0           0
           1           0           0           1           0           0
           1           0           0           1           0           0
           1           0           0           1
Number of primitives per shell             I   N=          40
           6           3           1           1           6           3
           1           1           6           3           1           1
           6           3           1           1           3           1
           1           3           1           1           3           1
           1           3           1           1           3           1
           1           3           1           1           3           1
           1           3           1           1
Shell to atom map                          I   N=          40
           1           1           1           1           2           2
           2           2           3           3           3           3
           4           4           4           4           5           5
           5           6           6           6           7           7
           7           8           8           8           9           9
           9          10          10          10          11          11
          11          12          12          12
Primitive exponents                        R   N=          84
  5.48467166E+03  8.25234946E+02  1.88046958E+02  5.29645000E+01  1.68975704E+01
  5.79963534E+00  1.55396162E+01  3.59993359E+00  1.01376175E+00  2.70005823E-01
  8.00000000E-01  5.48467166E+03  8.25234946E+02  1.88046958E+02  5.29645000E+01
  1.68975704E+01  5.79963534E+00  1.55396162E+01  3.59993359E+00  1.01376175E+00
  2.70005823E-01  8.00000000E-01  5.48467166E+03  8.25234946E+02  1.88046958E+02
  5.29645000E+01  1.68975704E+01  5.79963534E+00  1.55396162E+01  3.59993359E+00
  1.01376175E+00  2.70005823E-01  8.00000000E-01  5.48467166E+03  8.25234946E+02
  1.88046958E+02  5.29645000E+01  1.68975704E+01  5.79963534E+00  1.55396162E+01
  3.59993359E+00  1.01376175E+00  2.70005823E-01  8.00000000E-01  1.87311370E+01
  2.82539436E+00  6.40121692E-01  1.61277759E-01  1.10000000E+00  1.87311370E+01
  2.82539436E+00  6.40121692E-01  1.61277759E-01  1.10000000E+00  1.87311370E+01
  2.82539436E+00  6.40121692E-01  1.61277759E-01  1.10000000E+00  1.87311370E+01
  2.82539436E+00  6.40121692E-01  1.61277759E-01  1.10000000E+00  1.87311370E+01
  2.82539436E+00  6.40121692E-01  1.61277759E-01  1.10000000E+00  1.87311370E+01
  2.82539436E+00  6.40121692E-01  1.61277759E-01  1.10000000E+00  1.87311370E+01
  2.82539436E+00  6.40121692E-01  1.61277759E-01  1.10000000E+00  1.87311370E+01
  2.82539436E+00  6.40121692E-01  1.61277759E-01  1.10000000E+00
Contraction coefficients                   R   N=          84
  1.83107443E-03  1.39501722E-02  6.84450781E-02  2.32714336E-01  4.70192898E-01
  3.58520853E-01 -1.10777550E-01 -1.48026263E-01  1.13076702E+00  1.00000000E+00
  1.00000000E+00  1.83107443E-03  1.39501722E-02  6.84450781E-02  2.32714336E-01
  4.70192898E-01  3.58520853E-01 -1.10777550E-01 -1.48026263E-01  1.13076702E+00
  1.00000000E+00  1.00000000E+00  1.83107443E-03  1.39501722E-02  6.84450781E-02
  2.32714336E-01  4.70192898E-01  3.58520853E-01 -1.10777550E-01 -1.48026263E-01
  1.13076702E+00  1.00000000E+00  1.00000000E+00  1.83107443E-03  1.39501722E-02
  6.84450781E-02  2.32714336E-01  4.70192898E-01  3.58520853E-01 -1.10777550E-01
 -1.48026263E-01  1.13076702E+00  1.00000000E+00  1.00000000E+00  3.34946043E-02
  2.34726953E-01  8.13757326E-01  1.00000000E+00  1.00000000E+00  3.34946043E-02
  2.34726953E-01  8.13757326E-01  1.00000000E+00  1.00000000E+00  3.34946043E-02
  2.34726953E-01  8.13757326E-01  1.00000000E+00  1.00000000E+00  3.34946043E-02
  2.34726953E-01  8.13757326E-01  1.00000000E+00  1.00000000E+00  3.34946043E-02
  2.34726953E-01  8.13757326E-01  1.00000000E+00  1.00000000E+00  3.34946043E-02
  2.34726953E-01  8.13757326E-01  1.00000000E+00  1.00000000E+00  3.34946043E-02
  2.34726953E-01  8.13757326E-01  1.00000000E+00  1.00000000E+00  3.34946043E-02
  2.34726953E-01  8.13757326E-01  1.00000000E+00  1.00000000E+00
P(S=P) Contraction coefficients            R   N=          84
  0.00000000E+00  0.00000000E+00  0.00000000E+00  0.00000000E+00  0.00000000E+00
  0.00000000E+00  7.08742682E-02  3.39752839E-01  7.27158577E-01  1.00000000E+00
  0.00000000E+00  0.00000000E+00  0.00000000E+00  0.00000000E+00  0.00000000E+00
  0.00000000E+00  0.00000000E+00  7.08742682E-02  3.39752839E-01  7.27158577E-01
  1.00000000E+00  0.00000000E+00  0.00000000E+00  0.00000000E+00  0.00000000E+00
  0.00000000E+00  0.00000000E+00  0.00000000E+00  7.08742682E-02  3.39752839E-01
  7.27158577E-01  1.00000000E+00  0.00000000E+00  0.00000000E+00  0.00000000E+00
  0.00000000E+00  0.00000000E+00  0.00000000E+00  0.00000000E+00  7.08742682E-02
  3.39752839E-01  7.27158577E-01  1.00000000E+00  0.00000000E+00  0.00000000E+00
  0.00000000E+00  0.00000000E+00  0.00000000E+00  0.00000000E+00  0.00000000E+00
  0.00000000E+00  0.00000000E+00  0.00000000E+00  0.00000000E+00  0.00000000E+00
  0.00000000E+00  0.00000000E+00  0.00000000E+00  0.00000000E+00  0.00000000E+00
  0.00000000E+00  0.00000000E+00  0.00000000E+00  0.00000000E+00  0.00000000E+00
  0.00000000E+00  0.00000000E+00  0.00000000E+00  0.00000000E+00  0.00000000E+00
  0.00000000E+00  0.00000000E+00  0.00000000E+00  0.00000000E+00  0.00000000E+00
  0.00000000E+00  0.00000000E+00  0.00000000E+00  0.00000000E+00  0.00000000E+00
  0.00000000E+00  0.00000000E+00  0.00000000E+00  0.00000000E+00
Coordinates of each shell                  R   N=         120
  1.37010511E+01 -1.86319947E+01 -2.47619431E+01  1.37010511E+01 -1.86319947E+01
 -2.47619431E+01  1.37010511E+01 -1.86319947E+01 -2.47619431E+01  1.37010511E+01
 -1.86319947E+01 -2.47619431E+01  1.31641969E+01 -1.74757998E+01 -1.94156226E+01
  1.31641969E+01 -1.74757998E+01 -1.94156226E+01  1.31641969E+01 -1.74757998E+01
 -1.94156226E+01  1.31641969E+01 -1.74757998E+01 -1.94156226E+01  8.77070649E+00
 -1.53791165E+01 -2.39449937E+01  8.77070649E+00 -1.53791165E+01 -2.39449937E+01
  8.77070649E+00 -1.53791165E+01 -2.39449937E+01  8.77070649E+00 -1.53791165E+01
 -2.39449937E+01  9.27281806E+00 -1.49477601E+01 -1.72532732E+01  9.27281806E+00
 -1.49477601E+01 -1.72532732E+01  9.27281806E+00 -1.49477601E+01 -1.72532732E+01
  9.27281806E+00 -1.49477601E+01 -1.72532732E+01  1.34560972E+01 -1.93157846E+01
 -2.64185526E+01  1.34560972E+01 -1.93157846E+01 -2.64185526E+01  1.34560972E+01
 -1.93157846E+01 -2.64185526E+01  1.38733941E+01 -2.00816358E+01 -2.36938794E+01
  1.38733941E+01 -2.00816358E+01 -2.36938794E+01  1.38733941E+01 -2.00816358E+01
 -2.36938794E+01  1.31811270E+01 -1.86043839E+01 -2.08291075E+01  1.31811270E+01
 -1.86043839E+01 -2.08291075E+01  1.31811270E+01 -1.86043839E+01 -2.08291075E+01
  1.45213642E+01 -1.63243462E+01 -1.97383746E+01  1.45213642E+01 -1.63243462E+01
 -1.97383746E+01  1.45213642E+01 -1.63243462E+01 -1.97383746E+01  8.68859978E+00
 -1.37421677E+01 -2.31797548E+01  8.68859978E+00 -1.37421677E+01 -2.31797548E+01
  8.68859978E+00 -1.37421677E+01 -2.31797548E+01  1.05380540E+01 -1.57573055E+01
 -2.40183567E+01  1.05380540E+01 -1.57573055E+01 -2.40183567E+01  1.05380540E+01
 -1.57573055E+01 -2.40183567E+01  7.67893990E+00 -1.51678962E+01 -1.80797242E+01
  7.67893990E+00 -1.51678962E+01 -1.80797242E+01  7.67893990E+00 -1.51678962E+01
 -1.80797242E+01  1.02474745E+01 -1.63857661E+01 -1.77573614E+01  1.02474745E+01
 -1.63857661E+01 -1.77573614E+01  1.02474745E+01 -1.63857661E+01 -1.77573614E+01
Num ILSW                                   I              100
ILSW                                       I   N=         100
           0           0           0           0           2           0
           0           0           0           0           0          -1
           5           0           0           0           0           0
           0           0           0           0           0           0
           1           1           0           0           0           0
           0           0      100000           0          -1           0
           0           0           0           0           0           0
           0           0           0           1           0           0
           0 -2000000000           1           0           0           0
           0           0           4          52           0           0
           0           1           0           0           0           0
           0           0           0          12           0           1
           0           0           0           0           0           0
           0           0           0           0           0           0
           0           0           0           0           0           0
           0           0           0           0           0           0
           0           0           0           0
Num RLSW                                   I               52
RLSW                                       R   N=          52
  1.00000000E+00  1.00000000E+00  1.00000000E+00  1.00000000E+00  1.00000000E+00
  0.00000000E+00  0.00000000E+00  1.00000000E+00  0.00000000E+00  0.00000000E+00
  0.00000000E+00  0.00000000E+00  1.00000000E+00  0.00000000E+00  0.00000000E+00
  0.00000000E+00  0.00000000E+00  1.00000000E+00  0.00000000E+00  0.00000000E+00
  0.00000000E+00  0.00000000E+00  1.00000000E+00  0.00000000E+00  0.00000000E+00
  0.00000000E+00  0.00000000E+00  1.00000000E+00  0.00000000E+00  0.00000000E+00
  0.00000000E+00  0.00000000E+00  1.00000000E+00  0.00000000E+00  0.00000000E+00
  0.00000000E+00  0.00000000E+00  0.00000000E+00  1.00000000E+00  1.00000000E+00
  0.00000000E+00  1.00000000E+00  0.00000000E+00  0.00000000E+00  0.00000000E+00
  0.00000000E+00  0.00000000E+00  0.00000000E+00  0.00000000E+00  0.00000000E+00
  0.00000000E+00  0.00000000E+00
MxBond                                     I                2
NBond                                      I   N=          12
           2           2           2           2           1           1
           1           1           1           1           1           1
IBond                                      I   N=          24
           5           6           7           8           9          10
          11          12           1           0           1           0
           2           0           2           0           3           0
           3           0           4           0           4           0
RBond                                      R   N=          24
  1.00000000E+00  1.00000000E+00  1.00000000E+00  1.00000000E+00  1.00000000E+00
  1.00000000E+00  1.00000000E+00  1.00000000E+00  1.00000000E+00  0.00000000E+00
  1.00000000E+00  0.00000000E+00  1.00000000E+00  0.00000000E+00  1.00000000E+00
  0.00000000E+00  1.00000000E+00  0.00000000E+00  1.00000000E+00  0.00000000E+00
  1.00000000E+00  0.00000000E+00  1.00000000E+00  0.00000000E+00
Virial Ratio                               R      2.046488611231832E+00
SCF Energy                                 R     -3.177628811054636E+02
Total Energy                               R     -3.177628811054636E+02
RMS Density                                R      8.974641428267739E-09
Job Status                                 I                1
Nuclear derivative order                   I                0
External E-field                           R   N=          35
  0.00000000E+00  0.00000000E+00  0.00000000E+00  0.00000000E+00  0.00000000E+00
  0.00000000E+00  0.00000000E+00  0.00000000E+00  0.00000000E+00  0.00000000E+00
  0.00000000E+00  0.00000000E+00  0.00000000E+00  0.00000000E+00  0.00000000E+00
  0.00000000E+00  0.00000000E+00  0.00000000E+00  0.00000000E+00  0.00000000E+00
  0.00000000E+00  0.00000000E+00  0.00000000E+00  0.00000000E+00  0.00000000E+00
  0.00000000E+00  0.00000000E+00  0.00000000E+00  0.00000000E+00  0.00000000E+00
  0.00000000E+00  0.00000000E+00  0.00000000E+00  0.00000000E+00  0.00000000E+00
IOpCl                                      I                0
IROHF                                      I                0
Alpha Orbital Energies                     R   N=          96
 -2.05433303E+01 -2.05304232E+01 -2.04919834E+01 -2.04813977E+01 -1.33106316E+00
 -1.31261068E+00 -1.27748783E+00 -1.26441304E+00 -7.01975686E-01 -6.67469489E-01
 -6.54262562E-01 -6.30522086E-01 -5.62671284E-01 -5.43691184E-01 -5.11075830E-01
 -4.95210208E-01 -4.84295616E-01 -4.73139234E-01 -4.34715897E-01 -4.20694091E-01
  2.35755380E-01  2.84255244E-01  3.05412715E-01  3.37742780E-01  3.68851518E-01
  4.28622750E-01  4.38782099E-01  4.82066688E-01  9.96166803E-01  1.05320047E+00
  1.07522584E+00  1.09149116E+00  1.10760873E+00  1.12357263E+00  1.13419079E+00
  1.14863212E+00  1.17552995E+00  1.20737405E+00  1.23154922E+00  1.25549027E+00
  1.26853107E+00  1.31779675E+00  1.32392094E+00  1.33009928E+00  1.35490561E+00
  1.40905703E+00  1.43106354E+00  1.45008619E+00  1.62245883E+00  1.66790202E+00
  1.75081739E+00  1.79322431E+00  1.82418716E+00  1.84284355E+00  1.85497093E+00
  1.87284537E+00  1.88462914E+00  1.89815961E+00  1.91588547E+00  1.95279853E+00
  1.95797571E+00  2.00198929E+00  2.03235802E+00  2.06654398E+00  2.57872533E+00
  2.58719628E+00  2.62882599E+00  2.65421508E+00  2.65817956E+00  2.67344461E+00
  2.69475977E+00  2.71629775E+00  2.81221698E+00  2.87690062E+00  2.89612277E+00
  2.90222402E+00  3.00336436E+00  3.01154118E+00  3.02754843E+00  3.03711913E+00
  3.04473959E+00  3.05878055E+00  3.07404167E+00  3.13466218E+00  3.41482679E+00
  3.43410292E+00  3.45847456E+00  3.46393524E+00  3.80293531E+00  3.81044279E+00
  3.83550815E+00  3.85582127E+00  3.97124729E+00  4.00759813E+00  4.03379934E+00
  4.05892108E+00
Alpha MO coefficients                      R   N=        9216
 -6.91876268E-05  2.22242591E-05 -2.77396595E-05  3.81847199E-05  6.45677070E-05
  2.23318162E-04  1.04018837E-04 -2.98222014E-04 -2.93752182E-04 -1.53747150E-05
  3.04668512E-05  3.93956117E-06 -1.46359261E-05  7.31950271E-06  9.95709238E-01
  2.23285112E-02  1.16876765E-03  6.68007874E-06 -1.41917784E-03 -6.88174627E-03
 -1.05848778E-04  2.97444757E-04  7.93339108E-04 -7.73605647E-05 -5.73957345E-05
  1.51865934E-04 -7.73321590E-05  3.85963941E-04  2.30018579E-05  5.65457733E-05
  2.96773588E-06 -9.35180900E-06  1.02021265E-05 -1.84798441E-04 -1.30455862E-04
  6.09000001E-05 -1.98254205E-05  1.51853838E-05 -2.17563737E-06  2.69025527E-06
 -3.25311080E-05  1.54086326E-05  3.37363528E-05  1.94882278E-04  1.03148155E-05
 -4.69913635E-05  2.54750779E-05 -7.34788558E-04 -2.45699776E-04  3.36379365E-04
  4.03589637E-05  1.98626711E-05  2.00898954E-05 -3.04886434E-05 -1.83976836E-05
  4.59299630E-05 -1.51664262E-04  3.00979577E-05 -1.69334949E-05 -1.41478614E-05
 -1.20936630E-05  8.52827832E-05 -8.59919400E-04  2.23410783E-05 -8.28788813E-05
 -3.78411282E-05 -4.64081923E-04  2.29253037E-03  2.27664727E-05 -5.87954521E-04
 -8.19724183E-04 -5.85086563E-04  9.56105158E-04  8.97908749E-04  7.56606929E-04
 -2.57025694E-04  1.08006622E-05 -4.62662307E-05  7.79073945E-06  2.15307450E-06
  8.31215739E-06  3.58676039E-05  1.74255368E-04 -5.46114565E-05  1.03668271E-05
 -1.09431048E-05  6.99523784E-05 -2.18666749E-04 -9.09635657E-06 -5.22987606E-06
  1.01493598E-05  5.68456900E-05  1.11814651E-03  1.06766118E-04  6.54467769E-05
 -7.10751856E-05  9.95699329E-01  2.20548767E-02 -1.01287441E-04 -1.88763956E-03
 -4.87831911E-04 -5.96357135E-03  1.81642457E-04  6.97725939E-04  1.85782443E-04
  3.41525808E-04  1.32057623E-04 -1.13572686E-04 -2.57332363E-04  2.73053872E-06
  6.82948784E-05  4.44358745E-05 -6.19810458E-06 -8.52712110E-06  1.33528909E-06
 -8.56723244E-05  1.56561075E-05  1.56601512E-05  4.51460605E-05 -2.96703533E-05
 -7.09214519E-06  1.02743362E-06 -9.90394563E-06  1.01303726E-05  7.71038226E-05
  1.80579121E-04  1.14952534E-05 -5.30286847E-06 -7.16981110E-06 -7.16269797E-04
 -4.45970042E-04  1.37160612E-04  4.76271495E-05  5.95430045E-05  9.33033662E-06
 -9.05907715E-06 -7.99995276E-05  4.74592478E-05 -4.13677085E-06 -5.33706272E-06
  1.84119441E-07 -6.68814876E-07 -1.22654196E-06  2.52034762E-05  1.35961073E-05
 -1.29454212E-05  1.15312915E-08 -1.85505243E-06 -1.26420172E-06  7.56117075E-07
 -2.09857717E-06 -2.97543618E-06 -5.14606548E-04  1.16536451E-03 -1.77642418E-04
 -4.76551355E-04 -1.04340447E-03 -5.46812218E-04  1.18870151E-03  8.44908811E-05
 -9.64955972E-04  6.57679288E-04  1.63256602E-05  1.36525116E-05  1.20626188E-06
  4.49452576E-05 -7.22809403E-05 -1.76031506E-05  1.90114329E-05  2.96003010E-06
  8.34612016E-07 -3.27281192E-06  6.68658532E-05 -2.04942376E-04  1.45938636E-05
  7.90014559E-06  2.40887399E-06  5.56753625E-05  9.47395088E-04 -1.52594895E-04
 -5.79846478E-06 -3.78191833E-06 -9.43160917E-07  1.53149639E-05  1.70266759E-06
  1.06369086E-06 -2.85967822E-07  4.57914087E-06 -4.59285958E-05  5.76338329E-06
 -8.22282900E-06 -3.47391307E-06  3.94303536E-06 -2.61011586E-06  4.51523146E-06
 -4.09209619E-06 -4.47223787E-06 -1.73269954E-05 -1.57970051E-05  3.09244166E-05
  1.64107801E-05  1.34900824E-06 -3.14133782E-06  2.21921367E-06  2.76547339E-06
 -3.99015771E-07 -1.76300880E-05  1.55148729E-04 -8.77727671E-05 -8.82202737E-06
  6.99864512E-05 -2.40170808E-04  6.15674031E-04  3.55302599E-05 -3.80273229E-04
 -1.38315644E-05  2.90547387E-05 -3.86865353E-05 -4.55911497E-05  7.71547130E-05
  8.47985941E-05  3.98683155E-05 -4.80169157E-06 -9.94832330E-06  2.50950990E-05
 -6.95073584E-05  1.59595170E-05 -1.10626838E-05 -9.32512333E-05 -9.74539749E-06
 -4.46113299E-06 -1.12905588E-05  1.06563166E-05  2.83586595E-06  9.95715867E-01
  2.21880144E-02 -6.32949716E-04 -1.54244396E-03 -1.17640680E-03 -6.73790003E-03
 -6.22184668E-06  1.10480379E-03  6.33257661E-04 -1.86090281E-04  1.86276097E-04
  1.23787273E-04  1.85806278E-04 -1.59030441E-04  9.85710712E-06 -5.65139514E-06
  2.19969795E-06 -1.86568170E-07  1.30105604E-07 -2.29363114E-06  7.62105781E-05
 -1.23032608E-06  8.10276732E-06  1.86437737E-06  2.97156592E-05 -2.08786998E-04
 -6.65223450E-05 -3.35235728E-05  1.73043194E-05 -1.61153269E-04 -1.94626240E-04
  3.91166263E-05  6.09377374E-05  1.73362233E-05  4.14449694E-05 -8.97180039E-07
  8.62263394E-07 -1.66038200E-05 -2.05789645E-06  1.58729085E-05 -3.31414767E-05
  4.57203907E-06 -1.91319661E-06  1.51439383E-05 -4.68650503E-04  1.06536578E-03
 -1.01666812E-03 -2.14489009E-04 -5.64410634E-04 -4.28336455E-04  2.37596766E-03
  5.42114315E-04 -7.96590052E-04 -3.42258222E-04 -6.35039854E-05  1.08329705E-04
 -6.41696145E-05  7.63535622E-05  1.99156533E-05 -8.09442909E-05  2.53968050E-04
 -3.73757582E-04 -4.85507878E-05  2.34307917E-05  1.43810492E-05 -2.46571712E-05
 -4.21826565E-05  4.02591455E-05 -1.76063614E-05  4.65406831E-05 -2.49553514E-05
  1.68506126E-05 -1.97712214E-05 -6.37834638E-05  9.67605382E-05 -1.92447810E-05
  8.67998561E-05 -2.07340716E-05 -9.55762346E-06 -1.05127789E-06  4.84047959E-06
  6.38194984E-06  9.95716250E-01  2.20723064E-02  1.58399763E-03  1.23794259E-03
  6.48789442E-04 -6.36196897E-03 -1.00633523E-03 -4.75860928E-04 -2.70401367E-04
 -2.43386705E-04 -4.99678943E-05  2.57449753E-04 -2.86324270E-05 -1.72252326E-04
 -8.03688963E-05  4.43928188E-05  3.64643069E-06  5.85647414E-06 -8.49777756E-06
 -1.44784884E-04  8.06091300E-06  1.90225546E-05  6.02106808E-05 -2.51144744E-06
 -7.88731399E-06 -5.47216559E-06 -8.54377931E-06  4.36889067E-06 -3.11192090E-06
 -1.09449157E-04 -3.79112191E-05  3.50220257E-05 -3.07227241E-05 -7.78365638E-05
 -1.22963429E-04 -2.39362435E-05 -1.09341982E-05  5.43656721E-05  5.88581939E-05
  1.60340076E-06 -1.08203042E-07  1.00066997E-05 -5.25661935E-06  3.25043291E-05
 -1.01051580E-04  1.91305931E-06  1.63363977E-05 -1.62791256E-05 -4.95840355E-04
  1.14830305E-03  2.25365315E-05  1.07593864E-03  5.06016860E-04 -4.82487209E-04
  1.83845686E-03  1.03898564E-03 -1.76680859E-04 -1.91430793E-05  2.70751645E-05
  2.35476702E-05  1.72474508E-05  1.44698989E-06  1.07433517E-05  1.36085001E-05
  7.85482120E-05 -2.83736536E-06  1.28824275E-05 -7.60806475E-06 -6.36941056E-02
  1.39809210E-01 -8.23613915E-04 -2.25001538E-02 -1.69194545E-03  1.33336482E-01
  3.82047664E-05 -6.14907115E-03  3.75263416E-03  1.08669069E-03 -1.18951112E-05
  1.25704503E-04 -6.77460568E-04 -1.43257310E-04 -2.01137930E-01  4.42485554E-01
  4.63506123E-02  3.43200657E-04 -5.71928482E-02  4.28118992E-01  1.61472463E-02
 -3.28568197E-03 -1.62464435E-02  9.45317169E-04 -2.73535546E-03  1.97385102E-03
  9.57013208E-04  9.80083920E-04 -4.21524483E-03  9.19819273E-03  1.88610086E-03
  5.66537424E-04  5.55113337E-04  7.76516203E-03  8.83499819E-04 -2.28282639E-04
  8.91330888E-04 -6.20235977E-05  7.52304913E-05  3.22544005E-05  1.77615341E-04
 -8.16823459E-05 -2.36639756E-02  5.13667423E-02  8.31175940E-04 -8.82228865E-03
 -6.57664348E-03  4.93942885E-02  1.48149768E-03 -3.94941321E-03 -2.47237931E-03
 -1.95150754E-04 -1.55034370E-04  5.17629060E-04  8.08901880E-05 -3.79998172E-04
  4.07915400E-02  1.83580019E-03  8.04034326E-04  2.27352348E-03  7.12066919E-03
  4.39388012E-02  6.79978693E-03 -1.21402806E-03  6.78113515E-03 -4.38116514E-03
  1.34860355E-01 -5.05908256E-04  1.60067288E-03  1.57893374E-02  1.75937849E-02
  1.34078380E-01  9.23394793E-03 -1.83213420E-02 -1.69212653E-02  3.36847270E-03
  2.57869963E-03  6.39257759E-04  4.24204938E-05 -4.73262245E-04 -2.76615482E-04
  3.74958997E-03  2.39589288E-03 -3.23585396E-04  1.49873638E-05  1.96834285E-04
  1.46164079E-02  1.93290397E-03  2.58027363E-03  8.87664307E-05  1.12892483E-03
  2.24804595E-02  1.79789854E-05 -1.88490340E-03  2.11298450E-03  8.31113147E-04
 -2.03077315E-01  4.47818212E-01 -1.43332551E-03 -7.43062951E-02 -1.92704455E-02
  4.30686510E-01  1.56606159E-03 -2.80676210E-02 -3.69765081E-03  9.03701034E-04
  7.92626675E-04  2.61279389E-04 -2.35923581E-03 -3.69558130E-04  6.51000285E-02
 -1.43586789E-01 -1.51698819E-02 -2.39929140E-03  1.47979507E-02 -1.41021114E-01
 -5.21144606E-03  2.39489254E-04  2.71525948E-03  3.98111090E-04  7.69951016E-04
 -1.94448181E-04 -4.27484895E-04 -4.36520202E-04 -7.25421475E-03  1.55885974E-02
  3.17253396E-03  9.52043540E-04  6.09012193E-04  1.57217829E-02  2.30427046E-03
 -4.25018683E-04 -4.22761224E-04 -3.31423649E-04 -5.11185621E-05  4.39453624E-05
  4.12672710E-04 -2.08495434E-04  1.21847976E-02 -2.65947539E-02  1.20840349E-04
  4.22319108E-03  3.16850370E-03 -2.55277613E-02 -3.47966918E-04  1.83046127E-03
  1.15310959E-03  1.02957320E-04  1.13606466E-05 -2.24309539E-04 -2.59510162E-05
  1.38234442E-04  1.34555769E-01  7.44576356E-03  2.81690933E-03  7.72698790E-03
  2.37506079E-02  1.35090650E-01  1.89240399E-03 -3.10075283E-03  1.92820623E-02
 -1.62044561E-02 -3.69143180E-02  3.99120804E-03 -2.49265286E-04 -5.54976429E-03
 -6.77288304E-03 -4.41039895E-02 -2.47023782E-03  5.89333131E-03  5.37306457E-03
 -1.24897335E-03  4.63422937E-03  6.59703682E-04  8.29077619E-05 -8.27912666E-04
 -3.62481282E-04  7.09411417E-03 -3.05098763E-04 -1.70285216E-04 -9.36685066E-05
 -7.59155989E-05 -7.75795819E-03 -8.41012842E-04 -1.32842165E-03 -5.47024052E-05
 -6.01581126E-04 -1.04081977E-02 -9.87004607E-05  9.72992078E-04 -1.10356578E-03
 -4.08190398E-04 -4.18734563E-03  9.28341775E-03 -7.04415607E-05 -1.54672769E-03
 -1.05213727E-03  9.29920927E-03  9.94010512E-06 -1.00534541E-03 -9.36053465E-04
 -1.08092908E-04  5.35897158E-05  1.58405967E-05 -5.10763424E-05 -2.31313530E-05
  2.84290286E-02 -6.34886511E-02 -1.33957815E-02  2.86573031E-03  1.21178833E-02
 -5.98791604E-02 -8.31428822E-03  2.29226197E-03  5.90568793E-03 -2.38474464E-04
  1.07216827E-04  3.40245289E-05  5.88030350E-05 -7.14048288E-04 -1.12457066E-02
  2.48982636E-02  3.21719935E-03  2.64912116E-03  1.69369236E-03  2.24261550E-02
  1.46114051E-03  2.94445835E-04  1.31801888E-03 -1.48585640E-05  9.23813338E-05