Atom number=6                                                           
SP        RHF                                                         6-31G(d,p)          
Number of atoms                            I                6
Info1-9                                    I   N=           9
         107         106           0           0           0         111
           1           1           2
Full Title                                 C   N=           2
Atom number=6           
Route                                      C   N=           4
#p hf/6-31g** 5d 7f pop=npa charge nosymm       
Charge                                     I                0
Multiplicity                               I                1
Number of electrons                        I               20
Number of alpha electrons                  I               10
Number of beta electrons                   I               10
Number of basis functions                  I               48
Number of independent functions            I               48
Number of point charges in /Mol/           I                0
Number of translation vectors              I                0
Atomic numbers                             I   N=           6
           8           8           1           1           1           1
Nuclear charges                            R   N=           6
  8.00000000E+00  8.00000000E+00  1.00000000E+00  1.00000000E+00  1.00000000E+00
  1.00000000E+00
Current cartesian coordinates              R   N=          18
  1.58591958E+01 -2.23232232E+01 -2.11658453E+01  1.79028344E+01 -1.51124951E+01
 -2.06321073E+01  1.54490326E+01 -2.36930366E+01 -2.00580047E+01  1.74840371E+01
 -2.17584956E+01 -2.06064713E+01  1.88925747E+01 -1.66213261E+01 -2.05065293E+01
  1.81855715E+01 -1.42529872E+01 -1.90658267E+01
Number of symbols in /Mol/                 I                0
Force Field                                I                0
Atom Types                                 C   N=           6
                                                            
            
Int Atom Types                             I   N=           6
           0           0           0           0           0           0
MM charges                                 R   N=           6
  0.00000000E+00  0.00000000E+00  0.00000000E+00  0.00000000E+00  0.00000000E+00
  0.00000000E+00
Integer atomic weights                     I   N=           6
          16          16           1           1           1           1
Real atomic weights                        R   N=           6
  1.59949146E+01  1.59949146E+01  1.00782504E+00  1.00782504E+00  1.00782504E+00
  1.00782504E+00
Atom fragment info                         I   N=           6
           0           0           0           0           0           0
Atom residue num                           I   N=           6
           0           0           0           0           0           0
Nuclear spins                              I   N=           6
           0           0           1           1           1           1
Nuclear ZEff                               R   N=           6
 -5.60000000E+00 -5.60000000E+00 -1.00000000E+00 -1.00000000E+00 -1.00000000E+00
 -1.00000000E+00
Nuclear ZNuc                               R   N=           6
  8.00000000E+00  8.00000000E+00  1.00000000E+00  1.00000000E+00  1.00000000E+00
  1.00000000E+00
Nuclear QMom                               R   N=           6
  0.00000000E+00  0.00000000E+00  0.00000000E+00  0.00000000E+00  0.00000000E+00
  0.00000000E+00
Nuclear GFac                               R   N=           6
  0.00000000E+00  0.00000000E+00  2.79284600E+00  2.79284600E+00  2.79284600E+00
  2.79284600E+00
MicOpt                                     I   N=           6
          -1          -1          -1          -1          -1          -1
Number of residues                         I                0
Number of secondary structures             I                0
Number of contracted shells                I               20
Number of primitive shells                 I               42
Pure/Cartesian d shells                    I                0
Pure/Cartesian f shells                    I                0
Highest angular momentum                   I                2
Largest degree of contraction              I                6
Shell types                                I   N=          20
           0          -1          -1          -2           0          -1
          -1          -2           0           0           1           0
           0           1           0           0           1           0
           0           1
Number of primitives per shell             I   N=          20
           6           3           1           1           6           3
           1           1           3           1           1           3
           1           1           3           1           1           3
           1           1
Shell to atom map                          I   N=          20
           1           1           1           1           2           2
           2           2           3           3           3           4
           4           4           5           5           5           6
           6           6
Primitive exponents                        R   N=          42
  5.48467166E+03  8.25234946E+02  1.88046958E+02  5.29645000E+01  1.68975704E+01
  5.79963534E+00  1.55396162E+01  3.59993359E+00  1.01376175E+00  2.70005823E-01
  8.00000000E-01  5.48467166E+03  8.25234946E+02  1.88046958E+02  5.29645000E+01
  1.68975704E+01  5.79963534E+00  1.55396162E+01  3.59993359E+00  1.01376175E+00
  2.70005823E-01  8.00000000E-01  1.87311370E+01  2.82539436E+00  6.40121692E-01
  1.61277759E-01  1.10000000E+00  1.87311370E+01  2.82539436E+00  6.40121692E-01
  1.61277759E-01  1.10000000E+00  1.87311370E+01  2.82539436E+00  6.40121692E-01
  1.61277759E-01  1.10000000E+00  1.87311370E+01  2.82539436E+00  6.40121692E-01
  1.61277759E-01  1.10000000E+00
Contraction coefficients                   R   N=          42
  1.83107443E-03  1.39501722E-02  6.84450781E-02  2.32714336E-01  4.70192898E-01
  3.58520853E-01 -1.10777550E-01 -1.48026263E-01  1.13076702E+00  1.00000000E+00
  1.00000000E+00  1.83107443E-03  1.39501722E-02  6.84450781E-02  2.32714336E-01
  4.70192898E-01  3.58520853E-01 -1.10777550E-01 -1.48026263E-01  1.13076702E+00
  1.00000000E+00  1.00000000E+00  3.34946043E-02  2.34726953E-01  8.13757326E-01
  1.00000000E+00  1.00000000E+00  3.34946043E-02  2.34726953E-01  8.13757326E-01
  1.00000000E+00  1.00000000E+00  3.34946043E-02  2.34726953E-01  8.13757326E-01
  1.00000000E+00  1.00000000E+00  3.34946043E-02  2.34726953E-01  8.13757326E-01
  1.00000000E+00  1.00000000E+00
P(S=P) Contraction coefficients            R   N=          42
  0.00000000E+00  0.00000000E+00  0.00000000E+00  0.00000000E+00  0.00000000E+00
  0.00000000E+00  7.08742682E-02  3.39752839E-01  7.27158577E-01  1.00000000E+00
  0.00000000E+00  0.00000000E+00  0.00000000E+00  0.00000000E+00  0.00000000E+00
  0.00000000E+00  0.00000000E+00  7.08742682E-02  3.39752839E-01  7.27158577E-01
  1.00000000E+00  0.00000000E+00  0.00000000E+00  0.00000000E+00  0.00000000E+00
  0.00000000E+00  0.00000000E+00  0.00000000E+00  0.00000000E+00  0.00000000E+00
  0.00000000E+00  0.00000000E+00  0.00000000E+00  0.00000000E+00  0.00000000E+00
  0.00000000E+00  0.00000000E+00  0.00000000E+00  0.00000000E+00  0.00000000E+00
  0.00000000E+00  0.00000000E+00
Coordinates of each shell                  R   N=          60
  1.58591958E+01 -2.23232232E+01 -2.11658453E+01  1.58591958E+01 -2.23232232E+01
 -2.11658453E+01  1.58591958E+01 -2.23232232E+01 -2.11658453E+01  1.58591958E+01
 -2.23232232E+01 -2.11658453E+01  1.79028344E+01 -1.51124951E+01 -2.06321073E+01
  1.79028344E+01 -1.51124951E+01 -2.06321073E+01  1.79028344E+01 -1.51124951E+01
 -2.06321073E+01  1.79028344E+01 -1.51124951E+01 -2.06321073E+01  1.54490326E+01
 -2.36930366E+01 -2.00580047E+01  1.54490326E+01 -2.36930366E+01 -2.00580047E+01
  1.54490326E+01 -2.36930366E+01 -2.00580047E+01  1.74840371E+01 -2.17584956E+01
 -2.06064713E+01  1.74840371E+01 -2.17584956E+01 -2.06064713E+01  1.74840371E+01
 -2.17584956E+01 -2.06064713E+01  1.88925747E+01 -1.66213261E+01 -2.05065293E+01
  1.88925747E+01 -1.66213261E+01 -2.05065293E+01  1.88925747E+01 -1.66213261E+01
 -2.05065293E+01  1.81855715E+01 -1.42529872E+01 -1.90658267E+01  1.81855715E+01
 -1.42529872E+01 -1.90658267E+01  1.81855715E+01 -1.42529872E+01 -1.90658267E+01
Num ILSW                                   I              100
ILSW                                       I   N=         100
           0           0           0           0           2           0
           0           0           0           0           0          -1
           5           0           0           0           0           0
           0           0           0           0           0           0
           1           1           0           0           0           0
           0           0      100000           0          -1           0
           0           0           0           0           0           0
           0           0           0           1           0           0
           0 -2000000000           1           0           0           0
           0           0           4          52           0           0
           0           1           0           0           0           0
           0           0           0           6           0           1
           0           0           0           0           0           0
           0           0           0           0           0           0
           0           0           0           0           0           0
           0           0           0           0           0           0
           0           0           0           0
Num RLSW                                   I               52
RLSW                                       R   N=          52
  1.00000000E+00  1.00000000E+00  1.00000000E+00  1.00000000E+00  1.00000000E+00
  0.00000000E+00  0.00000000E+00  1.00000000E+00  0.00000000E+00  0.00000000E+00
  0.00000000E+00  0.00000000E+00  1.00000000E+00  0.00000000E+00  0.00000000E+00
  0.00000000E+00  0.00000000E+00  1.00000000E+00  0.00000000E+00  0.00000000E+00
  0.00000000E+00  0.00000000E+00  1.00000000E+00  0.00000000E+00  0.00000000E+00
  0.00000000E+00  0.00000000E+00  1.00000000E+00  0.00000000E+00  0.00000000E+00
  0.00000000E+00  0.00000000E+00  1.00000000E+00  0.00000000E+00  0.00000000E+00
  0.00000000E+00  0.00000000E+00  0.00000000E+00  1.00000000E+00  1.00000000E+00
  0.00000000E+00  1.00000000E+00  0.00000000E+00  0.00000000E+00  0.00000000E+00
  0.00000000E+00  0.00000000E+00  0.00000000E+00  0.00000000E+00  0.00000000E+00
  0.00000000E+00  0.00000000E+00
MxBond                                     I                2
NBond                                      I   N=           6
           2           2           1           1           1           1
IBond                                      I   N=          12
           3           4           5           6           1           0
           1           0           2           0           2           0
RBond                                      R   N=          12
  1.00000000E+00  1.00000000E+00  1.00000000E+00  1.00000000E+00  1.00000000E+00
  0.00000000E+00  1.00000000E+00  0.00000000E+00  1.00000000E+00  0.00000000E+00
  1.00000000E+00  0.00000000E+00
Virial Ratio                               R      2.098020434160171E+00
SCF Energy                                 R     -1.666599102270980E+02
Total Energy                               R     -1.666599102270980E+02
RMS Density                                R      1.814762352747882E-09
Job Status                                 I                1
Nuclear derivative order                   I                0
External E-field                           R   N=          35
  0.00000000E+00  0.00000000E+00  0.00000000E+00  0.00000000E+00  0.00000000E+00
  0.00000000E+00  0.00000000E+00  0.00000000E+00  0.00000000E+00  0.00000000E+00
  0.00000000E+00  0.00000000E+00  0.00000000E+00  0.00000000E+00  0.00000000E+00
  0.00000000E+00  0.00000000E+00  0.00000000E+00  0.00000000E+00  0.00000000E+00
  0.00000000E+00  0.00000000E+00  0.00000000E+00  0.00000000E+00  0.00000000E+00
  0.00000000E+00  0.00000000E+00  0.00000000E+00  0.00000000E+00  0.00000000E+00
  0.00000000E+00  0.00000000E+00  0.00000000E+00  0.00000000E+00  0.00000000E+00
IOpCl                                      I                0
IROHF                                      I                0
Alpha Orbital Energies                     R   N=          48
 -2.06079034E+01 -2.05420575E+01 -1.38938732E+00 -1.32482583E+00 -7.48701456E-01
 -6.84082110E-01 -6.24802266E-01 -5.64267126E-01 -5.50317954E-01 -4.88239515E-01
  1.74853168E-01  2.50501746E-01  3.04142111E-01  4.03112302E-01  9.59273592E-01
  1.02457932E+00  1.06873471E+00  1.10669732E+00  1.13030978E+00  1.13724502E+00
  1.17330604E+00  1.18755916E+00  1.26075296E+00  1.32491863E+00  1.55217795E+00
  1.63909989E+00  1.75939733E+00  1.77868102E+00  1.82276048E+00  1.84047545E+00
  1.87173055E+00  1.93408500E+00  2.53629680E+00  2.54502274E+00  2.61018117E+00
  2.61238208E+00  2.76424977E+00  2.83856076E+00  2.93218051E+00  2.94859309E+00
  3.00282564E+00  3.01448518E+00  3.33354294E+00  3.40334211E+00  3.70630027E+00
  3.78899964E+00  3.88923595E+00  3.95830658E+00
Alpha MO coefficients                      R   N=        2304
 -1.97572114E-05 -4.51390797E-05 -4.03136214E-06  5.91466710E-06  1.92763471E-06
  2.09787303E-04  1.16264092E-04  1.95523468E-05  3.54653119E-05 -7.92548057E-06
  1.28737971E-05 -2.16687856E-06  1.54726042E-05  1.44285778E-05  9.95708636E-01
  2.19764433E-02  1.13573630E-03 -5.77546826E-04  1.61884721E-03 -5.98849315E-03
 -5.62025409E-04  3.10563969E-04 -7.38745349E-04  4.24245466E-05  9.07408096E-05
  2.58386739E-04 -2.10404375E-04 -2.43493851E-04 -3.05979318E-05  5.20678177E-05
 -5.31070232E-06 -3.28069690E-07  9.06216595E-07  3.23106827E-06 -2.93458169E-04
  4.75857331E-05  8.65954389E-06  1.67972932E-05 -5.05545489E-04  1.34215514E-03
  6.34768606E-04 -9.20724258E-04  1.36997856E-04 -5.17592189E-04  1.24626851E-03
  2.25712687E-04  5.07352493E-04  1.03558659E-03  9.95702309E-01  2.19934716E-02
  1.08320389E-03 -6.99772202E-04  1.48834764E-03 -5.98678163E-03 -5.42520650E-04
  3.29159743E-04 -7.14948438E-04 -1.27002270E-04  6.89307856E-05 -2.34043068E-04
  5.64137244E-05  3.20052402E-04  1.21352718E-05 -4.18179653E-05 -5.72960285E-06
 -1.52390730E-06  3.81288809E-06  1.86149303E-04  7.37682794E-05 -9.54221561E-05
 -8.40504970E-06 -1.25646289E-05  3.37233019E-06 -2.34189230E-06 -9.73528985E-06
 -2.28103757E-05 -4.97507755E-04  1.24081657E-03 -1.99651310E-04 -8.52207641E-04
  7.28014557E-04 -5.10014842E-04  1.33382069E-03  1.01046843E-03  3.05537046E-04
  3.94737358E-04 -5.42236260E-06 -2.66418657E-04  3.21910995E-05 -3.32254200E-05
  4.57972027E-06 -1.44590115E-05  5.30526220E-05 -4.95706699E-06  8.99881388E-08
 -2.20423178E-06 -5.53456316E-04  1.56848942E-03  2.17813454E-04  8.26528167E-06
  1.67102807E-04 -4.58444795E-04 -8.39070961E-04  1.04578743E-04 -2.36073705E-04
  3.89973626E-05 -5.34680134E-05  3.54756571E-05 -6.92354527E-05 -6.78033697E-05
 -2.12662176E-01  4.70380290E-01  4.47185057E-02 -2.32353324E-02  6.40738780E-02
  4.45578486E-01  1.33573498E-02 -8.95815673E-03  2.66224789E-02  1.58273748E-03
  2.57705029E-03 -9.32690821E-04 -5.12459488E-04 -1.90185477E-03  5.70593699E-04
 -3.57372717E-04  6.37118777E-05  7.14889358E-05 -6.59177527E-05  3.03493057E-04
  2.75046747E-03 -3.34582486E-04 -1.19466350E-04 -1.08794794E-04  1.41051824E-01
  5.41558296E-03 -1.35377357E-02  2.27616591E-02  5.87327715E-04  1.45264070E-01
  1.12953225E-02 -2.56813207E-03 -1.46457398E-02 -2.17502148E-02 -2.13290210E-01
  4.69401822E-01  4.40679636E-02 -2.80371532E-02  5.98634160E-02  4.52989552E-01
  1.70111256E-02 -6.94218512E-03  2.00189533E-02  2.86656653E-04  2.31259343E-03
 -2.44197630E-03  1.39662258E-04 -5.52007167E-05  7.65958720E-04 -1.23035292E-03
 -9.67803079E-05 -1.13926355E-04 -2.66677396E-04 -3.73255715E-03 -1.03073082E-03
  8.36673819E-04 -7.01159124E-05  6.63830950E-05 -4.50732039E-05 -4.54578737E-06
  5.83567762E-05  1.70099075E-04  1.40992625E-01  7.84109321E-03  7.48588871E-03
  2.05517215E-02 -1.50874043E-02  1.40075573E-01  4.62503557E-03 -2.41594339E-02
 -1.00010709E-02 -6.85757707E-03 -4.75731583E-04  3.70414991E-03 -1.89171309E-04
  2.31927788E-04 -3.34562112E-05 -3.84314917E-04 -6.62645878E-04  5.48953413E-05
  3.88719604E-05  6.72465675E-05 -5.27539012E-04  1.26176101E-03 -7.49664712E-03
 -8.94181420E-03  1.59733633E-03  2.03165038E-03 -4.10795687E-03 -6.50359864E-03
  1.20398757E-03  2.34619816E-04 -3.53026202E-04 -5.81844171E-04 -4.68069626E-04
 -1.96163245E-04  2.78806329E-03 -6.31004409E-03 -1.28697482E-01  4.22089680E-01
  2.50019179E-01 -1.66058093E-02 -7.52568555E-02  2.38614398E-01  1.36211595E-01
  2.20662269E-02  2.06547396E-03  1.67362714E-02  3.39974634E-03  1.69220630E-02
  5.37322186E-03  1.86235970E-03 -5.75010534E-05  3.19487422E-04 -3.48269150E-04
 -5.02695490E-03 -3.84319191E-03  4.05578521E-04 -8.98598162E-05  2.41142113E-04
 -2.36940665E-01 -1.07221663E-01  1.42956920E-02 -1.59679609E-02  7.65801263E-03
  2.40331625E-01  1.30215127E-01 -8.40111879E-03 -4.25209708E-03 -1.92326976E-02
 -5.84393263E-04 -6.15955618E-04  3.58242009E-01  3.48561341E-01 -1.03153686E-01
  7.59599413E-03  2.11037990E-01  2.08363497E-01 -6.24661831E-02 -8.60093611E-03
  1.34621188E-02  1.84850112E-02  2.01649026E-02  4.39570015E-03  1.30608075E-03
 -2.38731493E-03 -4.52132323E-03  9.23866718E-03  1.20296364E-02 -8.70576684E-03
 -5.08022860E-03  5.64123235E-03  7.26790093E-03  8.02222626E-04  6.14697703E-05
  3.02199196E-04  2.70785370E-05  6.43859490E-04 -2.35796691E-01 -1.03193587E-01
  2.64711542E-03 -1.55576600E-02  1.67632336E-02  2.28186939E-01  9.88008193E-02
 -1.92703987E-02 -1.06413700E-03 -1.26500132E-02 -5.94984534E-03  5.50034313E-03
 -2.18087873E-05 -2.39881481E-04  3.21811866E-04  8.20603509E-03  4.01662241E-03
 -2.23643326E-04 -2.74452043E-04 -5.95453088E-04  3.95125971E-04 -1.03613160E-03
 -2.98557342E-03 -3.54289980E-03  2.90272340E-03 -9.36989566E-04 -1.55974641E-03
 -2.57657386E-03  2.40678124E-03  1.22481228E-04 -7.44811116E-05 -2.80455968E-04
 -2.34773306E-04  1.48258643E-05  6.75888104E-02 -1.58671482E-01  3.21899290E-01
 -1.61269916E-01  4.20072425E-01 -2.92583769E-01  2.37665359E-01 -1.27612436E-01
  3.01501751E-01  1.15214441E-02  2.04161606E-02 -5.65002181E-03  2.36219918E-03
 -1.02360016E-02  2.49906691E-03  1.11684401E-03 -4.75217355E-05  1.20079617E-04
 -9.08604294E-05 -1.49742286E-03 -1.25148914E-03  2.25316380E-04  1.51241336E-04
  1.66803572E-04  1.37370654E-01  6.01392214E-02 -1.65098619E-03  1.20555983E-02
  1.14853182E-02  1.48297396E-01  9.07220854E-02  6.16647392E-03 -1.48043482E-02
 -4.48803986E-03  6.37548698E-02 -1.48855444E-01  3.15957877E-01 -2.00995967E-01
  4.11377128E-01 -2.69254835E-01  2.34082189E-01 -1.57114405E-01  3.08827096E-01
  6.66222144E-03  1.79040307E-02 -1.29300306E-02  5.38842955E-03 -3.11352891E-03
 -3.33807173E-04  2.17340413E-04  1.04409552E-03  2.34685179E-03 -3.02422362E-03
  4.16150889E-03  2.47353364E-03  9.29506127E-04 -1.92131570E-03 -1.60169405E-04
  3.99705695E-05  1.27023013E-04 -3.93874726E-05 -1.35703439E-04  1.34643800E-01
  5.55487713E-02  1.25500202E-02  9.42946753E-03 -3.64058900E-04  1.45162904E-01
  6.00757098E-02 -1.04360824E-02 -1.17240460E-02  4.23688657E-03 -9.90641761E-05
 -5.46147985E-03  2.76581349E-04 -4.96680897E-04 -6.29919308E-05 -9.54251967E-04
  3.08944085E-04 -1.01115931E-05  1.68395468E-04  4.46919439E-05 -9.12091847E-04
  8.80611144E-04  5.70080850E-03 -2.31549802E-04 -8.15906952E-03  9.83535538E-03
  7.82402196E-03 -2.08860341E-03 -5.01332914E-03 -4.76456150E-04  2.29696999E-04
 -1.68606830E-05  4.43584077E-04  1.23700185E-04 -1.98889267E-03  9.45029624E-03
  4.93711772E-01  3.03572238E-01 -2.56907215E-01 -1.18932606E-03  3.91332290E-01
  2.45582613E-01 -2.06560163E-01 -1.31235860E-02  1.21008626E-02  1.27249822E-02
  1.26182899E-02  3.72465351E-05 -3.93115141E-03 -5.53114486E-04 -1.11085366E-04
 -4.22872699E-04  1.75257235E-04  2.45276984E-03 -1.19046638E-02  7.46730816E-04
  2.25309608E-04 -3.63754373E-05  3.77276472E-03  7.01379748E-04  1.42536438E-02
  9.35058581E-03 -7.50035885E-03  2.60749543E-03 -6.28253025E-03  1.53493006E-02
  9.25593686E-03 -7.99595294E-03  1.38070439E-03 -3.87771841E-03 -2.72525987E-01
  3.99741841E-01  4.03932570E-01 -4.95015512E-03 -2.19891908E-01  3.27630608E-01
  3.24071352E-01  1.93239721E-02  1.32723515E-03  6.16509373E-03 -8.07509848E-04
  1.18317707E-02  4.43141520E-04  4.42850779E-04  6.17338094E-03  7.94689605E-03
 -3.89989442E-03 -8.94803633E-03  1.01961431E-03  8.54266936E-03 -3.37541131E-03
  5.64778258E-05  1.88546242E-05  2.72427516E-04  3.35550397E-04  6.11691575E-04
  4.18021642E-03  4.74097869E-03 -7.70116788E-03  1.22111376E-02  1.15016963E-02
  1.31462793E-03 -1.84133365E-03 -7.91796108E-03  1.14414617E-02  1.18037296E-02
 -2.19387951E-03  1.44410290E-02 -2.53207930E-04  8.28599861E-04 -1.69950517E-04
  1.32878447E-03 -7.83956109E-04  3.35101066E-04  1.51210657E-04 -3.06063790E-04
  1.68059125E-02 -2.40968081E-02 -3.51618379E-02 -1.86671528E-02 -2.43064288E-02
 -2.11865213E-01 -8.25525901E-02  5.49377874E-04 -5.88692441E-02 -1.65205280E-04
 -2.98160195E-03  1.64334108E-03 -3.36656297E-03 -1.11818149E-03  8.37385138E-02
 -1.02882604E-01 -9.34627609E-02  1.78558128E-02 -1.87118775E-01 -1.15827207E+00
 -2.34899022E-01  7.83490966E-03 -4.38765698E-01 -1.27062399E-02 -1.28251491E-02
 -8.61994856E-03  3.10400268E-03  6.69053843E-03  1.86050188E-02  8.61814033E-02
  6.58171360E-04  1.34468853E-03 -2.27575795E-03  2.86340145E-03  2.59825784E-01
 -3.21331206E-03  4.22086083E-04 -1.19565843E-03  5.36439183E-02  7.06378533E-01
 -3.56596040E-03  5.96806775E-03  4.68668945E-04  6.11447574E-02  1.21478564E+00
 -1.51156674E-03 -8.93765259E-03 -1.36521052E-02 -6.25216657E-02  9.37369931E-02
  9.02639172E-02 -1.88246881E-02  9.94471437E-02  8.08883815E-01  2.03027693E-01
 -1.02161014E-01  2.46295304E-01  1.17422804E-03  6.92468004E-03 -8.24613151E-03
  3.95887736E-03  2.96734168E-03  4.42745446E-03  1.37849327E-03  3.87694720E-02
 -1.89946607E-01 -1.22173173E-01 -8.77569331E-02  1.21536387E-01 -4.57352874E-01
 -3.11983470E-01 -1.56068981E-02 -3.11250661E-03 -1.22055619E-02 -6.84380249E-04
 -1.20668298E-02 -5.32294173E-02 -6.14171942E-01 -1.50573164E-03 -6.35680254E-03
  5.81699286E-03 -3.69439045E-02 -7.40798362E-01  6.02167627E-03  4.74328695E-04
  1.99252786E-03 -2.86706892E-02 -8.68583816E-01  6.24554552E-03 -6.30344026E-03
 -1.00526100E-03  3.71407409E-02  1.00964428E+00 -1.57391018E-03 -8.11845745E-03
 -8.47205332E-03  5.95991324E-02 -8.88639210E-02  1.66812169E-02  1.49321523E-01
 -1.21555251E-01 -8.00464340E-01  4.47924148E-02  3.27341639E-01 -3.03009266E-01
 -2.53654982E-03 -8.91117206E-04  1.35649075E-02  7.12808167E-03 -2.64803252E-03
 -1.89630482E-02  3.87469034E-02  8.00229339E-02 -1.81435999E-01 -7.34332865E-02
  2.24329033E-01  1.79187543E-01 -4.58859770E-01 -1.93590038E-01 -1.03164743E-02
  6.62318718E-05 -8.90427009E-03 -1.31882099E-03 -8.52037158E-03  5.62058342E-02
  1.20610180E+00  2.51916108E-03  1.00023674E-02 -4.99139248E-03  3.36230160E-02
  1.57984155E-01 -4.89811104E-04 -3.93692203E-03  1.64321760E-04 -6.69774896E-02
 -1.06348856E+00  1.90540525E-03 -5.80289327E-03 -2.29969166E-03  3.26070599E-02
  6.65664093E-01  2.61480862E-04 -5.14638093E-03 -5.89534298E-03  2.05204964E-02
 -4.20237556E-02 -2.58088822E-01 -1.82783051E-01  2.61271196E-02 -2.55145636E-01
 -5.89582472E-01 -4.75960540E-01  6.85472098E-02  4.01071669E-03 -7.75376117E-03
 -7.73093437E-03 -7.82867143E-03 -1.93184775E-03 -2.11883548E-02  4.74360538E-02
  7.85336083E-02 -1.06236894E-01 -3.38532236E-02  2.53929855E-01  1.30609035E-01
 -2.97761349E-01 -8.19233525E-02 -2.48339718E-03  1.04349044E-03 -3.12428519E-03
 -1.38870684E-03  1.04437032E-03 -6.73058985E-02 -1.04478972E+00 -4.18729376E-03
 -5.31729374E-03  2.97123035E-03  9.85615307E-02  1.50911315E+00 -4.57687216E-03
 -7.00423495E-03  7.68773171E-04 -7.45341600E-02 -7.64487171E-01 -5.90002446E-03
 -3.30205503E-03 -3.23343939E-03  2.96869399E-02  2.97883131E-01  2.01191559E-03
 -1.37953250E-03 -2.97792491E-03 -4.56952692E-03  3.21356912E-02  8.90757986E-02
 -2.97439951E-02  1.75696781E-02 -2.02062584E-02  6.98526213E-02  1.56703440E-01
 -4.17495074E-02  2.04110689E-02 -3.32861489E-02 -3.09109725E-02 -4.99562320E-02
 -1.72791230E-02  1.95252058E-03 -1.69629179E-02  1.55822029E-02 -8.04084767E-02
 -1.11165330E-01  4.74611177E-02  9.67249595E-02 -3.16347579E-01 -1.43844924E-01
  1.73568948E-01  3.10430591E-02  1.36201172E-01  1.62366153E-02  1.32574346E-01
  1.95924710E-01 -8.46718340E-02  1.23064162E-02 -6.35483862E-03  1.06104592E-02
 -2.54547054E-01  8.55038087E-02 -3.94799869E-02 -3.72523947E-03 -2.07220603E-02
 -6.81509712E-01  5.23089355E-01 -5.95793460E-02  5.24473157E-02 -5.27251098E-02
  7.76292887E-01 -6.25913081E-01  4.33507106E-02  2.27431011E-02  1.11014473E-01
  9.02020283E-04 -1.03144460E-02  7.31266753E-02 -2.07095025E-03 -2.33154366E-03
  1.16160056E-02  2.13582105E-01  2.71335280E-01 -7.36623378E-02  4.54815815E-02
 -8.00800564E-02 -1.05970873E-01 -1.19732710E-01 -2.03465360E-02 -2.55575460E-02
  2.02358447E-01  3.12890119E-01 -5.50385477E-02  2.28060527E-01 -3.73122056E-01
 -2.70611956E-01  8.01249891E-02 -1.09327974E-01 -4.62919226E-02 -4.09823017E-02
 -1.23172471E-01  7.51145152E-02  7.36942758E-02  5.54536961E-01 -3.87999051E-01
  1.61540822E-02 -3.90091673E-02  4.91143535E-02 -5.50529621E-01  3.74067247E-01
 -5.64959753E-02  3.91885039E-03 -4.24243822E-02 -2.68128199E-01  2.23878255E-01
 -5.06279736E-02  1.09758438E-01  3.39765753E-02 -5.40594272E-01  5.26848032E-01
  4.07082462E-04 -8.77081450E-02 -1.16939944E-01  1.01068234E-02 -8.53818811E-02
 -1.18810559E-01  1.49162018E-01 -8.39668511E-02  1.47062684E-01  2.99372626E-01
  5.29952197E-02  3.17820808E-03  2.47256050E-02 -6.14821578E-02 -1.34380090E-01
 -9.46234090E-02  2.58496380E-02  1.85897915E-02 -1.35919222E-01 -1.40530914E-01
  1.14641840E-01 -3.54578476E-01  3.70561160E-01  5.36713892E-02  1.70485232E-02
  3.53220861E-01 -1.92993607E-02  3.08953093E-02  8.57314929E-02 -9.86194930E-02
 -1.33923698E-01  6.04773618E-01 -5.50651623E-01 -1.29627752E-02 -7.56530116E-02
  7.59008641E-02 -3.29308780E-01  3.02702989E-01  3.19952389E-03  2.67307487E-02
 -2.85163775E-02  6.17673635E-01 -5.87446223E-01  5.86619912E-02 -1.20802014E-01
 -2.28003084E-02  2.68537404E-01 -3.29323757E-01 -1.48779035E-02  1.04715076E-01
  9.19182410E-02  1.28499853E-02 -1.02990165E-01 -1.79507628E-01  1.30031380E-01
 -1.77900589E-01  2.50147899E-01  1.80653166E-01 -8.84953232E-02  1.30752073E-01
 -2.94849561E-02  8.91916462E-03 -7.41020682E-02  2.22165366E-03  8.40460631E-02
  1.91718410E-03  9.86767534E-03 -5.84185835E-01 -4.39159628E-01  4.32048030E-01
 -1.10982219E-01  6.17183868E-01  4.68928744E-01 -4.88960506E-01  3.85290407E-03
  2.05917238E-03 -2.49587054E-03  1.87589222E-02  2.24188407E-02  3.22513503E-01
 -3.21176240E-01 -4.38411679E-02 -7.13271540E-02  4.52787472E-02  2.06122190E-01
 -2.27534088E-01  7.38037789E-02  5.13604742E-02  2.69814283E-03 -7.40524780E-02
  1.53335335E-01 -2.39208639E-02  2.18581307E-02  6.44414920E-03  2.87645597E-03
  4.49140185E-02 -6.30633371E-03 -2.30996426E-02 -1.11618436E-02  2.93484717E-03
 -2.22636067E-02 -5.08405351E-02  3.73791377E-02 -1.19527120E-01  9.43863895E-02
  2.81197784E-02 -4.68009616E-02  1.15508473E-01 -1.52356523E-02  9.76988452E-03
 -2.20152044E-02  9.51755176E-03  3.63043505E-02 -6.36593608E-02  4.10811050E-01
 -4.03349920E-01  2.72164674E-01 -5.01930962E-01 -6.19882592E-02  6.50160697E-01
 -4.46922374E-01  7.74826328E-01 -3.25720922E-03 -4.63594482E-03 -7.95728971E-02
  6.09160151E-02  5.31684209E-02  8.01559319E-02 -1.05794289E-01 -2.00413393E-02
 -2.99458682E-02  1.55467917E-02  1.27843423E-01 -1.31353484E-01  3.06142812E-02
  1.89035485E-02  2.23545191E-03 -4.97579078E-01  2.62162377E-02  2.88605462E-02
 -1.54289671E-02  3.17548909E-02 -4.45333875E-01  1.15417332E-01  2.20773906E-02
 -2.79005943E-02  9.61874040E-03  1.70574765E-02 -1.15686963E-01 -1.58575477E-01
  9.42371895E-02 -4.90239650E-01  3.84245852E-01  3.01983315E-02 -1.29197031E-01
  4.52433576E-01 -7.13381636E-02  4.81831800E-02 -8.68226913E-02  5.12476465E-02
  1.61674032E-01  1.29980562E-02 -1.11922258E-01  4.46300345E-01  1.89031437E-01
  2.47132364E-02 -1.69182479E-02 -4.93130482E-01 -2.55347530E-01 -9.12658010E-02
  1.92572217E-02 -7.98581432E-03 -2.55977071E-03  1.61407925E-02  2.68866039E-02
  3.44407757E-01 -4.10470261E-01 -8.56221234E-02 -1.20502374E-01  5.69236722E-02
  6.15703818E-01 -5.97179946E-01  1.30721138E-01  7.69230554E-02  9.80332254E-03
 -1.22472010E-01  1.94375586E-01 -6.05897775E-04  2.56892011E-02 -4.11402219E-03
  7.82039363E-02  2.46203506E-02  5.50348977E-03 -2.50434775E-02 -2.34854776E-02
  1.13356725E-02 -8.16396850E-02  4.74214293E-01 -6.77535132E-01 -4.40761919E-01
 -7.77322746E-03 -5.09349921E-01  7.73587255E-01  4.29719799E-01  7.97636295E-03
 -3.10414041E-03  1.38256382E-03 -3.83280658E-03  3.05116632E-03 -6.28659375E-04
  2.48440850E-02 -1.00969216E-01 -1.28626802E-01 -6.10439065E-02  1.22038784E-02
  7.09464208E-02  2.43740100E-01  1.10679370E-01 -2.71873845E-03  5.87686938E-03
  1.79411686E-02 -1.69532244E-02 -2.04158620E-02  6.88639943E-02  3.51366744E-02
  1.41332186E-02  7.32948475E-03 -2.06681290E-02  1.58302398E-03  4.25062734E-02
 -1.03999800E-03 -1.26530856E-02 -1.22243438E-02  1.51353946E-01 -4.46438510E-02
 -7.30089316E-03  3.89328632E-03 -3.87232329E-03 -1.95232043E-03 -1.10080786E-01
 -2.49361444E-03  2.94251510E-02  2.88824766E-02 -6.68878207E-02  4.41401081E-01
 -2.63936655E-01  1.42110711E-01 -6.07104523E-01 -1.20893060E-01  4.77683234E-01