Atom number=15                                                          
SP        RHF                                                         6-31G(d,p)          
Number of atoms                            I               15
Info1-9                                    I   N=           9
         107         106           0           0           0         111
           1           1           2
Full Title                                 C   N=           2
Atom number=15          
Route                                      C   N=           4
#p hf/6-31g** 5d 7f pop=npa charge nosymm       
Charge                                     I                0
Multiplicity                               I                1
Number of electrons                        I               50
Number of alpha electrons                  I               25
Number of beta electrons                   I               25
Number of basis functions                  I              120
Number of independent functions            I              120
Number of point charges in /Mol/           I                0
Number of translation vectors              I                0
Atomic numbers                             I   N=          15
           8           8           8           8           8           1
           1           1           1           1           1           1
           1           1           1
Nuclear charges                            R   N=          15
  8.00000000E+00  8.00000000E+00  8.00000000E+00  8.00000000E+00  8.00000000E+00
  1.00000000E+00  1.00000000E+00  1.00000000E+00  1.00000000E+00  1.00000000E+00
  1.00000000E+00  1.00000000E+00  1.00000000E+00  1.00000000E+00  1.00000000E+00
Current cartesian coordinates              R   N=          45
  1.84053920E+01 -2.75148262E+01 -2.47254336E+01  1.59711829E+01 -2.00983315E+01
 -2.96421136E+01  1.60474257E+01 -2.67578000E+01 -2.96895325E+01  2.01732119E+01
 -2.25352958E+01 -2.98939423E+01  1.46630370E+01 -3.11898692E+01 -2.50313519E+01
  1.78327464E+01 -2.63066431E+01 -2.35071158E+01  2.01306987E+01 -2.70664981E+01
 -2.50324158E+01  1.53540909E+01 -1.96661077E+01 -3.12865930E+01  1.75030005E+01
 -2.10073446E+01 -2.99570119E+01  1.67126282E+01 -2.84285107E+01 -2.98848829E+01
  1.68532352E+01 -2.61200080E+01 -2.82009707E+01  2.10617025E+01 -2.31675113E+01
 -2.84507471E+01  2.03511466E+01 -2.38337078E+01 -3.11406929E+01  1.38099655E+01
 -3.06346091E+01 -2.35360646E+01  1.61331437E+01 -3.01406725E+01 -2.51308649E+01
Number of symbols in /Mol/                 I                0
Force Field                                I                0
Atom Types                                 C   N=          15
                                                            
                                                            
                                                            
Int Atom Types                             I   N=          15
           0           0           0           0           0           0
           0           0           0           0           0           0
           0           0           0
MM charges                                 R   N=          15
  0.00000000E+00  0.00000000E+00  0.00000000E+00  0.00000000E+00  0.00000000E+00
  0.00000000E+00  0.00000000E+00  0.00000000E+00  0.00000000E+00  0.00000000E+00
  0.00000000E+00  0.00000000E+00  0.00000000E+00  0.00000000E+00  0.00000000E+00
Integer atomic weights                     I   N=          15
          16          16          16          16          16           1
           1           1           1           1           1           1
           1           1           1
Real atomic weights                        R   N=          15
  1.59949146E+01  1.59949146E+01  1.59949146E+01  1.59949146E+01  1.59949146E+01
  1.00782504E+00  1.00782504E+00  1.00782504E+00  1.00782504E+00  1.00782504E+00
  1.00782504E+00  1.00782504E+00  1.00782504E+00  1.00782504E+00  1.00782504E+00
Atom fragment info                         I   N=          15
           0           0           0           0           0           0
           0           0           0           0           0           0
           0           0           0
Atom residue num                           I   N=          15
           0           0           0           0           0           0
           0           0           0           0           0           0
           0           0           0
Nuclear spins                              I   N=          15
           0           0           0           0           0           1
           1           1           1           1           1           1
           1           1           1
Nuclear ZEff                               R   N=          15
 -5.60000000E+00 -5.60000000E+00 -5.60000000E+00 -5.60000000E+00 -5.60000000E+00
 -1.00000000E+00 -1.00000000E+00 -1.00000000E+00 -1.00000000E+00 -1.00000000E+00
 -1.00000000E+00 -1.00000000E+00 -1.00000000E+00 -1.00000000E+00 -1.00000000E+00
Nuclear ZNuc                               R   N=          15
  8.00000000E+00  8.00000000E+00  8.00000000E+00  8.00000000E+00  8.00000000E+00
  1.00000000E+00  1.00000000E+00  1.00000000E+00  1.00000000E+00  1.00000000E+00
  1.00000000E+00  1.00000000E+00  1.00000000E+00  1.00000000E+00  1.00000000E+00
Nuclear QMom                               R   N=          15
  0.00000000E+00  0.00000000E+00  0.00000000E+00  0.00000000E+00  0.00000000E+00
  0.00000000E+00  0.00000000E+00  0.00000000E+00  0.00000000E+00  0.00000000E+00
  0.00000000E+00  0.00000000E+00  0.00000000E+00  0.00000000E+00  0.00000000E+00
Nuclear GFac                               R   N=          15
  0.00000000E+00  0.00000000E+00  0.00000000E+00  0.00000000E+00  0.00000000E+00
  2.79284600E+00  2.79284600E+00  2.79284600E+00  2.79284600E+00  2.79284600E+00
  2.79284600E+00  2.79284600E+00  2.79284600E+00  2.79284600E+00  2.79284600E+00
MicOpt                                     I   N=          15
          -1          -1          -1          -1          -1          -1
          -1          -1          -1          -1          -1          -1
          -1          -1          -1
Number of residues                         I                0
Number of secondary structures             I                0
Number of contracted shells                I               50
Number of primitive shells                 I              105
Pure/Cartesian d shells                    I                0
Pure/Cartesian f shells                    I                0
Highest angular momentum                   I                2
Largest degree of contraction              I                6
Shell types                                I   N=          50
           0          -1          -1          -2           0          -1
          -1          -2           0          -1          -1          -2
           0          -1          -1          -2           0          -1
          -1          -2           0           0           1           0
           0           1           0           0           1           0
           0           1           0           0           1           0
           0           1           0           0           1           0
           0           1           0           0           1           0
           0           1
Number of primitives per shell             I   N=          50
           6           3           1           1           6           3
           1           1           6           3           1           1
           6           3           1           1           6           3
           1           1           3           1           1           3
           1           1           3           1           1           3
           1           1           3           1           1           3
           1           1           3           1           1           3
           1           1           3           1           1           3
           1           1
Shell to atom map                          I   N=          50
           1           1           1           1           2           2
           2           2           3           3           3           3
           4           4           4           4           5           5
           5           5           6           6           6           7
           7           7           8           8           8           9
           9           9          10          10          10          11
          11          11          12          12          12          13
          13          13          14          14          14          15
          15          15
Primitive exponents                        R   N=         105
  5.48467166E+03  8.25234946E+02  1.88046958E+02  5.29645000E+01  1.68975704E+01
  5.79963534E+00  1.55396162E+01  3.59993359E+00  1.01376175E+00  2.70005823E-01
  8.00000000E-01  5.48467166E+03  8.25234946E+02  1.88046958E+02  5.29645000E+01
  1.68975704E+01  5.79963534E+00  1.55396162E+01  3.59993359E+00  1.01376175E+00
  2.70005823E-01  8.00000000E-01  5.48467166E+03  8.25234946E+02  1.88046958E+02
  5.29645000E+01  1.68975704E+01  5.79963534E+00  1.55396162E+01  3.59993359E+00
  1.01376175E+00  2.70005823E-01  8.00000000E-01  5.48467166E+03  8.25234946E+02
  1.88046958E+02  5.29645000E+01  1.68975704E+01  5.79963534E+00  1.55396162E+01
  3.59993359E+00  1.01376175E+00  2.70005823E-01  8.00000000E-01  5.48467166E+03
  8.25234946E+02  1.88046958E+02  5.29645000E+01  1.68975704E+01  5.79963534E+00
  1.55396162E+01  3.59993359E+00  1.01376175E+00  2.70005823E-01  8.00000000E-01
  1.87311370E+01  2.82539436E+00  6.40121692E-01  1.61277759E-01  1.10000000E+00
  1.87311370E+01  2.82539436E+00  6.40121692E-01  1.61277759E-01  1.10000000E+00
  1.87311370E+01  2.82539436E+00  6.40121692E-01  1.61277759E-01  1.10000000E+00
  1.87311370E+01  2.82539436E+00  6.40121692E-01  1.61277759E-01  1.10000000E+00
  1.87311370E+01  2.82539436E+00  6.40121692E-01  1.61277759E-01  1.10000000E+00
  1.87311370E+01  2.82539436E+00  6.40121692E-01  1.61277759E-01  1.10000000E+00
  1.87311370E+01  2.82539436E+00  6.40121692E-01  1.61277759E-01  1.10000000E+00
  1.87311370E+01  2.82539436E+00  6.40121692E-01  1.61277759E-01  1.10000000E+00
  1.87311370E+01  2.82539436E+00  6.40121692E-01  1.61277759E-01  1.10000000E+00
  1.87311370E+01  2.82539436E+00  6.40121692E-01  1.61277759E-01  1.10000000E+00
Contraction coefficients                   R   N=         105
  1.83107443E-03  1.39501722E-02  6.84450781E-02  2.32714336E-01  4.70192898E-01
  3.58520853E-01 -1.10777550E-01 -1.48026263E-01  1.13076702E+00  1.00000000E+00
  1.00000000E+00  1.83107443E-03  1.39501722E-02  6.84450781E-02  2.32714336E-01
  4.70192898E-01  3.58520853E-01 -1.10777550E-01 -1.48026263E-01  1.13076702E+00
  1.00000000E+00  1.00000000E+00  1.83107443E-03  1.39501722E-02  6.84450781E-02
  2.32714336E-01  4.70192898E-01  3.58520853E-01 -1.10777550E-01 -1.48026263E-01
  1.13076702E+00  1.00000000E+00  1.00000000E+00  1.83107443E-03  1.39501722E-02
  6.84450781E-02  2.32714336E-01  4.70192898E-01  3.58520853E-01 -1.10777550E-01
 -1.48026263E-01  1.13076702E+00  1.00000000E+00  1.00000000E+00  1.83107443E-03
  1.39501722E-02  6.84450781E-02  2.32714336E-01  4.70192898E-01  3.58520853E-01
 -1.10777550E-01 -1.48026263E-01  1.13076702E+00  1.00000000E+00  1.00000000E+00
  3.34946043E-02  2.34726953E-01  8.13757326E-01  1.00000000E+00  1.00000000E+00
  3.34946043E-02  2.34726953E-01  8.13757326E-01  1.00000000E+00  1.00000000E+00
  3.34946043E-02  2.34726953E-01  8.13757326E-01  1.00000000E+00  1.00000000E+00
  3.34946043E-02  2.34726953E-01  8.13757326E-01  1.00000000E+00  1.00000000E+00
  3.34946043E-02  2.34726953E-01  8.13757326E-01  1.00000000E+00  1.00000000E+00
  3.34946043E-02  2.34726953E-01  8.13757326E-01  1.00000000E+00  1.00000000E+00
  3.34946043E-02  2.34726953E-01  8.13757326E-01  1.00000000E+00  1.00000000E+00
  3.34946043E-02  2.34726953E-01  8.13757326E-01  1.00000000E+00  1.00000000E+00
  3.34946043E-02  2.34726953E-01  8.13757326E-01  1.00000000E+00  1.00000000E+00
  3.34946043E-02  2.34726953E-01  8.13757326E-01  1.00000000E+00  1.00000000E+00
P(S=P) Contraction coefficients            R   N=         105
  0.00000000E+00  0.00000000E+00  0.00000000E+00  0.00000000E+00  0.00000000E+00
  0.00000000E+00  7.08742682E-02  3.39752839E-01  7.27158577E-01  1.00000000E+00
  0.00000000E+00  0.00000000E+00  0.00000000E+00  0.00000000E+00  0.00000000E+00
  0.00000000E+00  0.00000000E+00  7.08742682E-02  3.39752839E-01  7.27158577E-01
  1.00000000E+00  0.00000000E+00  0.00000000E+00  0.00000000E+00  0.00000000E+00
  0.00000000E+00  0.00000000E+00  0.00000000E+00  7.08742682E-02  3.39752839E-01
  7.27158577E-01  1.00000000E+00  0.00000000E+00  0.00000000E+00  0.00000000E+00
  0.00000000E+00  0.00000000E+00  0.00000000E+00  0.00000000E+00  7.08742682E-02
  3.39752839E-01  7.27158577E-01  1.00000000E+00  0.00000000E+00  0.00000000E+00
  0.00000000E+00  0.00000000E+00  0.00000000E+00  0.00000000E+00  0.00000000E+00
  7.08742682E-02  3.39752839E-01  7.27158577E-01  1.00000000E+00  0.00000000E+00
  0.00000000E+00  0.00000000E+00  0.00000000E+00  0.00000000E+00  0.00000000E+00
  0.00000000E+00  0.00000000E+00  0.00000000E+00  0.00000000E+00  0.00000000E+00
  0.00000000E+00  0.00000000E+00  0.00000000E+00  0.00000000E+00  0.00000000E+00
  0.00000000E+00  0.00000000E+00  0.00000000E+00  0.00000000E+00  0.00000000E+00
  0.00000000E+00  0.00000000E+00  0.00000000E+00  0.00000000E+00  0.00000000E+00
  0.00000000E+00  0.00000000E+00  0.00000000E+00  0.00000000E+00  0.00000000E+00
  0.00000000E+00  0.00000000E+00  0.00000000E+00  0.00000000E+00  0.00000000E+00
  0.00000000E+00  0.00000000E+00  0.00000000E+00  0.00000000E+00  0.00000000E+00
  0.00000000E+00  0.00000000E+00  0.00000000E+00  0.00000000E+00  0.00000000E+00
  0.00000000E+00  0.00000000E+00  0.00000000E+00  0.00000000E+00  0.00000000E+00
Coordinates of each shell                  R   N=         150
  1.84053920E+01 -2.75148262E+01 -2.47254336E+01  1.84053920E+01 -2.75148262E+01
 -2.47254336E+01  1.84053920E+01 -2.75148262E+01 -2.47254336E+01  1.84053920E+01
 -2.75148262E+01 -2.47254336E+01  1.59711829E+01 -2.00983315E+01 -2.96421136E+01
  1.59711829E+01 -2.00983315E+01 -2.96421136E+01  1.59711829E+01 -2.00983315E+01
 -2.96421136E+01  1.59711829E+01 -2.00983315E+01 -2.96421136E+01  1.60474257E+01
 -2.67578000E+01 -2.96895325E+01  1.60474257E+01 -2.67578000E+01 -2.96895325E+01
  1.60474257E+01 -2.67578000E+01 -2.96895325E+01  1.60474257E+01 -2.67578000E+01
 -2.96895325E+01  2.01732119E+01 -2.25352958E+01 -2.98939423E+01  2.01732119E+01
 -2.25352958E+01 -2.98939423E+01  2.01732119E+01 -2.25352958E+01 -2.98939423E+01
  2.01732119E+01 -2.25352958E+01 -2.98939423E+01  1.46630370E+01 -3.11898692E+01
 -2.50313519E+01  1.46630370E+01 -3.11898692E+01 -2.50313519E+01  1.46630370E+01
 -3.11898692E+01 -2.50313519E+01  1.46630370E+01 -3.11898692E+01 -2.50313519E+01
  1.78327464E+01 -2.63066431E+01 -2.35071158E+01  1.78327464E+01 -2.63066431E+01
 -2.35071158E+01  1.78327464E+01 -2.63066431E+01 -2.35071158E+01  2.01306987E+01
 -2.70664981E+01 -2.50324158E+01  2.01306987E+01 -2.70664981E+01 -2.50324158E+01
  2.01306987E+01 -2.70664981E+01 -2.50324158E+01  1.53540909E+01 -1.96661077E+01
 -3.12865930E+01  1.53540909E+01 -1.96661077E+01 -3.12865930E+01  1.53540909E+01
 -1.96661077E+01 -3.12865930E+01  1.75030005E+01 -2.10073446E+01 -2.99570119E+01
  1.75030005E+01 -2.10073446E+01 -2.99570119E+01  1.75030005E+01 -2.10073446E+01
 -2.99570119E+01  1.67126282E+01 -2.84285107E+01 -2.98848829E+01  1.67126282E+01
 -2.84285107E+01 -2.98848829E+01  1.67126282E+01 -2.84285107E+01 -2.98848829E+01
  1.68532352E+01 -2.61200080E+01 -2.82009707E+01  1.68532352E+01 -2.61200080E+01
 -2.82009707E+01  1.68532352E+01 -2.61200080E+01 -2.82009707E+01  2.10617025E+01
 -2.31675113E+01 -2.84507471E+01  2.10617025E+01 -2.31675113E+01 -2.84507471E+01
  2.10617025E+01 -2.31675113E+01 -2.84507471E+01  2.03511466E+01 -2.38337078E+01
 -3.11406929E+01  2.03511466E+01 -2.38337078E+01 -3.11406929E+01  2.03511466E+01
 -2.38337078E+01 -3.11406929E+01  1.38099655E+01 -3.06346091E+01 -2.35360646E+01
  1.38099655E+01 -3.06346091E+01 -2.35360646E+01  1.38099655E+01 -3.06346091E+01
 -2.35360646E+01  1.61331437E+01 -3.01406725E+01 -2.51308649E+01  1.61331437E+01
 -3.01406725E+01 -2.51308649E+01  1.61331437E+01 -3.01406725E+01 -2.51308649E+01
Num ILSW                                   I              100
ILSW                                       I   N=         100
           0           0           0           0           2           0
           0           0           0           0           0          -1
           5           0           0           0           0           0
           0           0           0           0           0           0
           1           1           0           0           0           0
           0           0      100000           0          -1           0
           0           0           0           0           0           0
           0           0           0           1           0           0
           0 -2000000000           1           0           0           0
           0           0           4          52           0           0
           0           1           0           0           0           0
           0           0           0          15           0           1
           0           0           0           0           0           0
           0           0           0           0           0           0
           0           0           0           0           0           0
           0           0           0           0           0           0
           0           0           0           0
Num RLSW                                   I               52
RLSW                                       R   N=          52
  1.00000000E+00  1.00000000E+00  1.00000000E+00  1.00000000E+00  1.00000000E+00
  0.00000000E+00  0.00000000E+00  1.00000000E+00  0.00000000E+00  0.00000000E+00
  0.00000000E+00  0.00000000E+00  1.00000000E+00  0.00000000E+00  0.00000000E+00
  0.00000000E+00  0.00000000E+00  1.00000000E+00  0.00000000E+00  0.00000000E+00
  0.00000000E+00  0.00000000E+00  1.00000000E+00  0.00000000E+00  0.00000000E+00
  0.00000000E+00  0.00000000E+00  1.00000000E+00  0.00000000E+00  0.00000000E+00
  0.00000000E+00  0.00000000E+00  1.00000000E+00  0.00000000E+00  0.00000000E+00
  0.00000000E+00  0.00000000E+00  0.00000000E+00  1.00000000E+00  1.00000000E+00
  0.00000000E+00  1.00000000E+00  0.00000000E+00  0.00000000E+00  0.00000000E+00
  0.00000000E+00  0.00000000E+00  0.00000000E+00  0.00000000E+00  0.00000000E+00
  0.00000000E+00  0.00000000E+00
MxBond                                     I                2
NBond                                      I   N=          15
           2           2           2           2           2           1
           1           1           1           1           1           1
           1           1           1
IBond                                      I   N=          30
           6           7           8           9          10          11
          12          13          14          15           1           0
           1           0           2           0           2           0
           3           0           3           0           4           0
           4           0           5           0           5           0
RBond                                      R   N=          30
  1.00000000E+00  1.00000000E+00  1.00000000E+00  1.00000000E+00  1.00000000E+00
  1.00000000E+00  1.00000000E+00  1.00000000E+00  1.00000000E+00  1.00000000E+00
  1.00000000E+00  0.00000000E+00  1.00000000E+00  0.00000000E+00  1.00000000E+00
  0.00000000E+00  1.00000000E+00  0.00000000E+00  1.00000000E+00  0.00000000E+00
  1.00000000E+00  0.00000000E+00  1.00000000E+00  0.00000000E+00  1.00000000E+00
  0.00000000E+00  1.00000000E+00  0.00000000E+00  1.00000000E+00  0.00000000E+00
Virial Ratio                               R      2.036100882914475E+00
SCF Energy                                 R     -3.933404759971552E+02
Total Energy                               R     -3.933404759971552E+02
RMS Density                                R      7.404824172423841E-09
Job Status                                 I                1
Nuclear derivative order                   I                0
External E-field                           R   N=          35
  0.00000000E+00  0.00000000E+00  0.00000000E+00  0.00000000E+00  0.00000000E+00
  0.00000000E+00  0.00000000E+00  0.00000000E+00  0.00000000E+00  0.00000000E+00
  0.00000000E+00  0.00000000E+00  0.00000000E+00  0.00000000E+00  0.00000000E+00
  0.00000000E+00  0.00000000E+00  0.00000000E+00  0.00000000E+00  0.00000000E+00
  0.00000000E+00  0.00000000E+00  0.00000000E+00  0.00000000E+00  0.00000000E+00
  0.00000000E+00  0.00000000E+00  0.00000000E+00  0.00000000E+00  0.00000000E+00
  0.00000000E+00  0.00000000E+00  0.00000000E+00  0.00000000E+00  0.00000000E+00
IOpCl                                      I                0
IROHF                                      I                0
Alpha Orbital Energies                     R   N=         120
 -2.05915376E+01 -2.05843729E+01 -2.05404677E+01 -2.05275167E+01 -2.05018999E+01
 -1.38035912E+00 -1.36912140E+00 -1.32886634E+00 -1.31103125E+00 -1.28848234E+00
 -7.37922921E-01 -7.29273046E-01 -7.20232101E-01 -6.77099348E-01 -6.67659661E-01
 -6.10739936E-01 -5.97080809E-01 -5.58684657E-01 -5.53188427E-01 -5.27765328E-01
 -5.16568037E-01 -5.09340232E-01 -4.87586530E-01 -4.66952321E-01 -4.45239029E-01
  1.61357261E-01  2.27218188E-01  2.52516546E-01  2.62539599E-01  2.98466637E-01
  3.14510643E-01  3.39325627E-01  3.87169009E-01  4.62428828E-01  4.73839928E-01
  9.41174206E-01  9.58972657E-01  9.80637655E-01  1.02889526E+00  1.04227227E+00
  1.05498082E+00  1.06782035E+00  1.09758551E+00  1.10605071E+00  1.12859927E+00
  1.15262947E+00  1.15720776E+00  1.18777909E+00  1.21256264E+00  1.22635109E+00
  1.24461105E+00  1.24985244E+00  1.27659187E+00  1.29980130E+00  1.33345674E+00
  1.35718916E+00  1.36451967E+00  1.37739997E+00  1.38869451E+00  1.43000780E+00
  1.60131876E+00  1.61849586E+00  1.67858442E+00  1.76364413E+00  1.77362807E+00
  1.78217772E+00  1.79058740E+00  1.80305142E+00  1.83033761E+00  1.83746237E+00
  1.85133953E+00  1.85814443E+00  1.88216835E+00  1.89412205E+00  1.94606905E+00
  1.94680990E+00  1.96346430E+00  1.98209988E+00  1.99737081E+00  2.04767358E+00
  2.51906029E+00  2.53931638E+00  2.56547303E+00  2.56898506E+00  2.62366129E+00
  2.62782456E+00  2.63453628E+00  2.66446167E+00  2.70784671E+00  2.73149079E+00
  2.77808775E+00  2.79286518E+00  2.84395777E+00  2.91421739E+00  2.93157780E+00
  2.94643438E+00  2.96657855E+00  2.98941796E+00  2.99324849E+00  3.01711702E+00
  3.03038565E+00  3.04353577E+00  3.05164229E+00  3.06689919E+00  3.09917773E+00
  3.35583365E+00  3.36854760E+00  3.42356291E+00  3.42843333E+00  3.45758749E+00
  3.73695782E+00  3.76033152E+00  3.80589170E+00  3.82694570E+00  3.83389195E+00
  3.88490707E+00  3.92170049E+00  4.00685634E+00  4.03863824E+00  4.06886859E+00
Alpha MO coefficients                      R   N=       14400
 -5.58411463E-06 -9.39394963E-06 -1.07170890E-05  1.56646227E-05 -2.00902298E-05
  1.29995096E-04  1.31259947E-04 -2.37619168E-05  5.13599302E-05 -1.25320586E-05
 -7.35900267E-06  7.55849300E-06  2.06840770E-05  1.25383744E-05  1.23869117E-04
  4.08777903E-04  7.85159740E-05 -4.77422864E-05 -7.86264701E-07 -1.46751219E-03
 -7.16070192E-04  4.36653772E-04  3.52996555E-05  4.32243579E-05  3.09965909E-06
 -2.27631205E-06 -4.04340424E-05  8.71924227E-05  9.57181084E-06  6.82685217E-05
 -9.47810486E-06  1.64873390E-05 -8.02967939E-06 -2.11080591E-04 -3.78546411E-05
 -1.61318231E-04 -8.89409458E-05 -1.72106552E-05 -1.51350975E-05 -1.01109266E-05
 -5.11673875E-06 -2.53065669E-05  9.95699291E-01  2.23283260E-02  7.19039912E-04
 -1.65532454E-03  1.89370382E-04 -6.47634477E-03  4.26486497E-04  2.50757732E-04
 -7.25253130E-06  3.50510148E-04  2.47132104E-04  1.37581596E-04 -1.89593378E-04
 -8.93805628E-05  1.20921956E-06  4.01976545E-06  6.84340303E-07  2.03933128E-07
  2.08526045E-07 -1.65897827E-05 -4.84127188E-06 -4.87375905E-06 -1.63298317E-06
  2.58938252E-07  3.19848220E-07 -1.44725143E-07  6.36199460E-07 -5.36198109E-07
  1.48818583E-05 -8.76760687E-06 -8.27913286E-06  8.78636447E-06 -7.76717672E-06
  1.48243448E-05 -2.58833507E-04  4.18157822E-05  1.10496238E-05 -9.43220956E-06
  1.29516030E-04 -4.26187073E-04 -2.22900867E-06  1.02462603E-06 -1.19815796E-05
  2.71004777E-04  2.20707136E-03  1.18327491E-04 -8.73317498E-05  8.53022317E-05
 -7.35344552E-06 -1.24385674E-04  8.34553247E-06 -1.83891954E-05 -2.27042122E-06
 -2.29566554E-06  2.85203731E-04 -3.06736058E-05 -2.39300993E-05 -4.61239899E-05
 -6.33830452E-04  1.02714544E-03  5.49568248E-04 -4.35124634E-04  9.74018157E-04
 -5.15171667E-04  1.00283527E-03  6.56130176E-05 -8.56028312E-04 -8.18501129E-04
  2.09026549E-06 -8.82808457E-07  5.23942785E-07  1.04548314E-08 -4.89575390E-07
  2.22945921E-06  2.28385748E-05 -8.32965202E-07  3.24357532E-06  3.30852608E-07
  9.95701052E-01  2.22452655E-02  9.36636026E-04  1.44725850E-03  7.01190827E-04
 -6.25221722E-03  3.81344720E-05 -3.23044788E-04 -3.68771903E-05 -1.11735598E-04
 -2.98754401E-04  2.98283727E-04  2.20233171E-04 -1.97651105E-05 -7.97834686E-06
 -1.71952810E-05 -5.41026462E-06 -8.21139855E-06  2.76745730E-06  9.91010141E-05
  5.49195762E-05  1.67219767E-07 -2.44958046E-05  2.93112769E-06 -4.64591273E-07
 -1.19633399E-07  9.46433242E-06 -7.03126696E-06  5.18037390E-05  1.98946454E-04
 -1.42828716E-05  2.49552857E-05  1.09300866E-05 -7.47296435E-04 -1.33778291E-04
 -3.00812477E-04 -4.49912506E-04 -9.88702379E-05 -8.03803073E-05 -2.91148246E-05
 -3.87659425E-05 -3.94099174E-05  1.27936636E-06 -1.35959829E-05 -2.65306309E-05
 -2.89367232E-05  1.26577080E-05  1.50840162E-04  9.41450945E-05  8.80630176E-05
  3.75054512E-05  8.63525398E-06  1.41550383E-05 -2.85897230E-06  1.53022345E-05
 -1.94187119E-05  7.70871147E-05  2.97368237E-04  6.22644146E-05  1.69103313E-05
 -2.94821564E-05 -1.01553329E-03 -5.75397025E-04 -3.08354397E-04  1.61190803E-04
  6.73774110E-05 -2.08311358E-05  7.27944356E-06 -9.32866568E-06 -1.02636751E-04
 -4.87883013E-04  9.98679082E-04 -3.90578432E-04  8.00210613E-04  7.81276733E-04
 -6.08573257E-04  1.04746343E-03  1.13775942E-03  3.20278947E-04 -2.14827601E-04
 -1.90901723E-05  1.86632888E-05 -4.97449791E-06 -2.24057278E-06 -3.27748552E-06
  1.61159766E-05 -1.50546398E-04  1.57357664E-05 -1.70876883E-05 -3.17030720E-06
 -1.61747558E-05 -2.95583497E-04  2.61402187E-05 -3.63967903E-05  3.99904264E-07
  7.42857270E-05  1.13033592E-03 -5.53631163E-05 -1.28000233E-04 -6.50368314E-05
  5.17354191E-05 -2.81497678E-04  1.68120586E-05 -1.79087193E-05  2.73793662E-05
  3.60978418E-05  7.15747956E-07 -9.31553623E-06 -7.35806332E-06  1.08272751E-05
  1.30223746E-05 -2.90971601E-04 -3.10745753E-07  2.32585478E-05  3.20338457E-05
  1.42048108E-04  1.47802865E-03 -2.70883636E-05  5.54505678E-05  4.35664239E-05
  6.42871524E-06 -3.79027750E-06  4.85182498E-06 -5.50455442E-06  8.90162374E-06
 -2.48143746E-05 -5.42834767E-05  1.50166825E-05 -2.01334412E-05  6.14764481E-06
  2.66248109E-06 -1.98503891E-06 -7.59702853E-06 -5.88058424E-06  9.95726681E-01
  2.25340784E-02  8.19083676E-04 -3.83656458E-04 -1.77693778E-03 -7.88717459E-03
 -1.41656712E-03  7.99221975E-04  8.72629670E-04  1.87187574E-04  1.88127176E-04
 -1.32453606E-04  8.28059910E-05 -1.79770989E-04  3.39066843E-05  8.91648723E-06
 -2.28669577E-06  3.16696318E-05 -1.15708494E-05  8.04107150E-05  3.63296786E-05
 -1.60906990E-04  3.20713765E-05 -1.02016892E-05 -7.63411613E-06  5.39946204E-07
  1.66294029E-06 -3.03101843E-05 -8.32056623E-05  4.07328120E-04 -1.60416721E-04
  1.17427550E-04 -3.44405189E-05 -9.63216219E-04  1.11418962E-03 -7.47376533E-04
  2.48906713E-04  1.10240275E-04  1.33001738E-05 -3.92842967E-05 -1.00360934E-04
  1.14833156E-04 -9.92444080E-07 -1.22960205E-06 -4.07437904E-07 -1.56633157E-07
  2.97062146E-07  2.57852028E-06  1.96358279E-06  1.08682796E-06 -1.73084119E-06
 -8.83363873E-08  1.69796521E-07 -3.56713268E-07 -3.93710502E-07  3.24611283E-07
 -4.25902537E-06 -1.65465458E-05  2.17800303E-06 -5.62936291E-07  6.14933355E-06
 -7.39635952E-06  9.87247535E-05 -1.51535045E-05 -4.21662024E-06  4.08939040E-06
 -3.95785743E-04  7.16827263E-04 -3.35172021E-04  2.44900016E-04 -1.13707508E-03
 -1.98363896E-04  4.05104438E-03  8.48447716E-04 -4.91362884E-04 -1.66035483E-04
 -7.75348459E-05 -3.13254705E-05  1.02998581E-05 -2.05082827E-05 -6.24182720E-06
  4.92642125E-05 -1.45891216E-04 -3.26079080E-07  9.86578382E-06  2.60985667E-07
 -1.33770035E-04 -3.71864845E-04 -9.27439008E-06  1.57698346E-05  8.42525708E-05
  7.09958600E-05 -2.79514583E-04 -8.21333685E-05  2.66681359E-05 -6.47089252E-05
  7.87429574E-08  2.06916548E-06  1.05705339E-07 -2.07928125E-07 -3.25792806E-07
 -1.48553849E-06 -4.01457054E-06 -2.77700617E-07 -1.52619256E-06 -5.46537115E-07
 -3.07232105E-05  1.59207829E-04 -3.05662267E-05  4.20506633E-05 -7.76696008E-05
 -3.06213131E-04  1.09802405E-04 -1.74874848E-04  3.56026112E-04 -2.21572654E-05
 -1.29525633E-05  3.63435171E-05 -2.28071024E-06  1.25302670E-05 -3.57232373E-05
  1.62053146E-05 -2.05006992E-06 -1.16102670E-05  6.76818100E-06 -1.49375773E-05
 -1.83138236E-05  5.10141288E-05 -3.52364682E-05  1.65671722E-05  7.22204638E-06
 -2.86616692E-06  2.85217393E-06  7.73012192E-06  9.95716628E-01  2.21178912E-02
  1.42335698E-03 -9.54826205E-04  1.15913766E-03 -6.52316262E-03 -7.87728411E-04
  2.62930100E-04 -8.13224497E-04 -3.27764349E-05  1.51502914E-04  2.48186948E-04
 -2.45196694E-04 -1.32383013E-04 -1.03427710E-06  6.31373010E-05 -1.25542789E-05
 -1.19344741E-05  1.11828485E-05 -1.65803490E-04  5.81720709E-05  1.26491937E-04
  3.71250388E-05 -1.69209115E-06  6.72073705E-06  2.83301200E-06  1.33485670E-05