Atom number=24                                                          
SP        RHF                                                         6-31G(d,p)          
Number of atoms                            I               24
Info1-9                                    I   N=           9
         107         106           0           0           0         111
           1           1           2
Full Title                                 C   N=           2
Atom number=24          
Route                                      C   N=           4
#p hf/6-31g** 5d 7f pop=npa charge nosymm       
Charge                                     I                0
Multiplicity                               I                1
Number of electrons                        I               80
Number of alpha electrons                  I               40
Number of beta electrons                   I               40
Number of basis functions                  I              192
Number of independent functions            I              192
Number of point charges in /Mol/           I                0
Number of translation vectors              I                0
Atomic numbers                             I   N=          24
           8           8           8           8           8           8
           8           8           1           1           1           1
           1           1           1           1           1           1
           1           1           1           1           1           1
Nuclear charges                            R   N=          24
  8.00000000E+00  8.00000000E+00  8.00000000E+00  8.00000000E+00  8.00000000E+00
  8.00000000E+00  8.00000000E+00  8.00000000E+00  1.00000000E+00  1.00000000E+00
  1.00000000E+00  1.00000000E+00  1.00000000E+00  1.00000000E+00  1.00000000E+00
  1.00000000E+00  1.00000000E+00  1.00000000E+00  1.00000000E+00  1.00000000E+00
  1.00000000E+00  1.00000000E+00  1.00000000E+00  1.00000000E+00
Current cartesian coordinates              R   N=          72
  1.58591958E+01 -2.23232232E+01 -2.11658453E+01  1.37010511E+01 -1.86319947E+01
 -2.47619431E+01  1.31641969E+01 -1.74757998E+01 -1.94156226E+01  1.90577217E+01
 -1.81470343E+01 -2.58786843E+01  1.59711829E+01 -2.00983315E+01 -2.96421136E+01
  7.63287216E+00 -2.12107811E+01 -2.41968281E+01  1.00906745E+01 -2.11880666E+01
 -2.92426009E+01  8.77070649E+00 -1.53791165E+01 -2.39449937E+01  1.54490326E+01
 -2.36930366E+01 -2.00580047E+01  1.74840371E+01 -2.17584956E+01 -2.06064713E+01
  1.34560972E+01 -1.93157846E+01 -2.64185526E+01  1.38733941E+01 -2.00816358E+01
 -2.36938794E+01  1.31811270E+01 -1.86043839E+01 -2.08291075E+01  1.45213642E+01
 -1.63243462E+01 -1.97383746E+01  1.85910557E+01 -1.86665521E+01 -2.75472898E+01
  1.75122961E+01 -1.81949823E+01 -2.49399156E+01  1.53540909E+01 -1.96661077E+01
 -3.12865930E+01  1.75030005E+01 -2.10073446E+01 -2.99570119E+01  8.55071592E+00
 -2.27666815E+01 -2.41037950E+01  8.37549106E+00 -2.03288025E+01 -2.55905880E+01
  1.11117370E+01 -1.97640295E+01 -2.96914619E+01  1.03737593E+01 -2.23851288E+01
 -3.05688107E+01  8.68859978E+00 -1.37421677E+01 -2.31797548E+01  1.05380540E+01
 -1.57573055E+01 -2.40183567E+01
Number of symbols in /Mol/                 I                0
Force Field                                I                0
Atom Types                                 C   N=          24
                                                            
                                                            
                                                            
                                                            
                                                
Int Atom Types                             I   N=          24
           0           0           0           0           0           0
           0           0           0           0           0           0
           0           0           0           0           0           0
           0           0           0           0           0           0
MM charges                                 R   N=          24
  0.00000000E+00  0.00000000E+00  0.00000000E+00  0.00000000E+00  0.00000000E+00
  0.00000000E+00  0.00000000E+00  0.00000000E+00  0.00000000E+00  0.00000000E+00
  0.00000000E+00  0.00000000E+00  0.00000000E+00  0.00000000E+00  0.00000000E+00
  0.00000000E+00  0.00000000E+00  0.00000000E+00  0.00000000E+00  0.00000000E+00
  0.00000000E+00  0.00000000E+00  0.00000000E+00  0.00000000E+00
Integer atomic weights                     I   N=          24
          16          16          16          16          16          16
          16          16           1           1           1           1
           1           1           1           1           1           1
           1           1           1           1           1           1
Real atomic weights                        R   N=          24
  1.59949146E+01  1.59949146E+01  1.59949146E+01  1.59949146E+01  1.59949146E+01
  1.59949146E+01  1.59949146E+01  1.59949146E+01  1.00782504E+00  1.00782504E+00
  1.00782504E+00  1.00782504E+00  1.00782504E+00  1.00782504E+00  1.00782504E+00
  1.00782504E+00  1.00782504E+00  1.00782504E+00  1.00782504E+00  1.00782504E+00
  1.00782504E+00  1.00782504E+00  1.00782504E+00  1.00782504E+00
Atom fragment info                         I   N=          24
           0           0           0           0           0           0
           0           0           0           0           0           0
           0           0           0           0           0           0
           0           0           0           0           0           0
Atom residue num                           I   N=          24
           0           0           0           0           0           0
           0           0           0           0           0           0
           0           0           0           0           0           0
           0           0           0           0           0           0
Nuclear spins                              I   N=          24
           0           0           0           0           0           0
           0           0           1           1           1           1
           1           1           1           1           1           1
           1           1           1           1           1           1
Nuclear ZEff                               R   N=          24
 -5.60000000E+00 -5.60000000E+00 -5.60000000E+00 -5.60000000E+00 -5.60000000E+00
 -5.60000000E+00 -5.60000000E+00 -5.60000000E+00 -1.00000000E+00 -1.00000000E+00
 -1.00000000E+00 -1.00000000E+00 -1.00000000E+00 -1.00000000E+00 -1.00000000E+00
 -1.00000000E+00 -1.00000000E+00 -1.00000000E+00 -1.00000000E+00 -1.00000000E+00
 -1.00000000E+00 -1.00000000E+00 -1.00000000E+00 -1.00000000E+00
Nuclear ZNuc                               R   N=          24
  8.00000000E+00  8.00000000E+00  8.00000000E+00  8.00000000E+00  8.00000000E+00
  8.00000000E+00  8.00000000E+00  8.00000000E+00  1.00000000E+00  1.00000000E+00
  1.00000000E+00  1.00000000E+00  1.00000000E+00  1.00000000E+00  1.00000000E+00
  1.00000000E+00  1.00000000E+00  1.00000000E+00  1.00000000E+00  1.00000000E+00
  1.00000000E+00  1.00000000E+00  1.00000000E+00  1.00000000E+00
Nuclear QMom                               R   N=          24
  0.00000000E+00  0.00000000E+00  0.00000000E+00  0.00000000E+00  0.00000000E+00
  0.00000000E+00  0.00000000E+00  0.00000000E+00  0.00000000E+00  0.00000000E+00
  0.00000000E+00  0.00000000E+00  0.00000000E+00  0.00000000E+00  0.00000000E+00
  0.00000000E+00  0.00000000E+00  0.00000000E+00  0.00000000E+00  0.00000000E+00
  0.00000000E+00  0.00000000E+00  0.00000000E+00  0.00000000E+00
Nuclear GFac                               R   N=          24
  0.00000000E+00  0.00000000E+00  0.00000000E+00  0.00000000E+00  0.00000000E+00
  0.00000000E+00  0.00000000E+00  0.00000000E+00  2.79284600E+00  2.79284600E+00
  2.79284600E+00  2.79284600E+00  2.79284600E+00  2.79284600E+00  2.79284600E+00
  2.79284600E+00  2.79284600E+00  2.79284600E+00  2.79284600E+00  2.79284600E+00
  2.79284600E+00  2.79284600E+00  2.79284600E+00  2.79284600E+00
MicOpt                                     I   N=          24
          -1          -1          -1          -1          -1          -1
          -1          -1          -1          -1          -1          -1
          -1          -1          -1          -1          -1          -1
          -1          -1          -1          -1          -1          -1
Number of residues                         I                0
Number of secondary structures             I                0
Number of contracted shells                I               80
Number of primitive shells                 I              168
Pure/Cartesian d shells                    I                0
Pure/Cartesian f shells                    I                0
Highest angular momentum                   I                2
Largest degree of contraction              I                6
Shell types                                I   N=          80
           0          -1          -1          -2           0          -1
          -1          -2           0          -1          -1          -2
           0          -1          -1          -2           0          -1
          -1          -2           0          -1          -1          -2
           0          -1          -1          -2           0          -1
          -1          -2           0           0           1           0
           0           1           0           0           1           0
           0           1           0           0           1           0
           0           1           0           0           1           0
           0           1           0           0           1           0
           0           1           0           0           1           0
           0           1           0           0           1           0
           0           1           0           0           1           0
           0           1
Number of primitives per shell             I   N=          80
           6           3           1           1           6           3
           1           1           6           3           1           1
           6           3           1           1           6           3
           1           1           6           3           1           1
           6           3           1           1           6           3
           1           1           3           1           1           3
           1           1           3           1           1           3
           1           1           3           1           1           3
           1           1           3           1           1           3
           1           1           3           1           1           3
           1           1           3           1           1           3
           1           1           3           1           1           3
           1           1           3           1           1           3
           1           1
Shell to atom map                          I   N=          80
           1           1           1           1           2           2
           2           2           3           3           3           3
           4           4           4           4           5           5
           5           5           6           6           6           6
           7           7           7           7           8           8
           8           8           9           9           9          10
          10          10          11          11          11          12
          12          12          13          13          13          14
          14          14          15          15          15          16
          16          16          17          17          17          18
          18          18          19          19          19          20
          20          20          21          21          21          22
          22          22          23          23          23          24
          24          24
Primitive exponents                        R   N=         168
  5.48467166E+03  8.25234946E+02  1.88046958E+02  5.29645000E+01  1.68975704E+01
  5.79963534E+00  1.55396162E+01  3.59993359E+00  1.01376175E+00  2.70005823E-01
  8.00000000E-01  5.48467166E+03  8.25234946E+02  1.88046958E+02  5.29645000E+01
  1.68975704E+01  5.79963534E+00  1.55396162E+01  3.59993359E+00  1.01376175E+00
  2.70005823E-01  8.00000000E-01  5.48467166E+03  8.25234946E+02  1.88046958E+02
  5.29645000E+01  1.68975704E+01  5.79963534E+00  1.55396162E+01  3.59993359E+00
  1.01376175E+00  2.70005823E-01  8.00000000E-01  5.48467166E+03  8.25234946E+02
  1.88046958E+02  5.29645000E+01  1.68975704E+01  5.79963534E+00  1.55396162E+01
  3.59993359E+00  1.01376175E+00  2.70005823E-01  8.00000000E-01  5.48467166E+03
  8.25234946E+02  1.88046958E+02  5.29645000E+01  1.68975704E+01  5.79963534E+00
  1.55396162E+01  3.59993359E+00  1.01376175E+00  2.70005823E-01  8.00000000E-01
  5.48467166E+03  8.25234946E+02  1.88046958E+02  5.29645000E+01  1.68975704E+01
  5.79963534E+00  1.55396162E+01  3.59993359E+00  1.01376175E+00  2.70005823E-01
  8.00000000E-01  5.48467166E+03  8.25234946E+02  1.88046958E+02  5.29645000E+01
  1.68975704E+01  5.79963534E+00  1.55396162E+01  3.59993359E+00  1.01376175E+00
  2.70005823E-01  8.00000000E-01  5.48467166E+03  8.25234946E+02  1.88046958E+02
  5.29645000E+01  1.68975704E+01  5.79963534E+00  1.55396162E+01  3.59993359E+00
  1.01376175E+00  2.70005823E-01  8.00000000E-01  1.87311370E+01  2.82539436E+00
  6.40121692E-01  1.61277759E-01  1.10000000E+00  1.87311370E+01  2.82539436E+00
  6.40121692E-01  1.61277759E-01  1.10000000E+00  1.87311370E+01  2.82539436E+00
  6.40121692E-01  1.61277759E-01  1.10000000E+00  1.87311370E+01  2.82539436E+00
  6.40121692E-01  1.61277759E-01  1.10000000E+00  1.87311370E+01  2.82539436E+00
  6.40121692E-01  1.61277759E-01  1.10000000E+00  1.87311370E+01  2.82539436E+00
  6.40121692E-01  1.61277759E-01  1.10000000E+00  1.87311370E+01  2.82539436E+00
  6.40121692E-01  1.61277759E-01  1.10000000E+00  1.87311370E+01  2.82539436E+00
  6.40121692E-01  1.61277759E-01  1.10000000E+00  1.87311370E+01  2.82539436E+00
  6.40121692E-01  1.61277759E-01  1.10000000E+00  1.87311370E+01  2.82539436E+00
  6.40121692E-01  1.61277759E-01  1.10000000E+00  1.87311370E+01  2.82539436E+00
  6.40121692E-01  1.61277759E-01  1.10000000E+00  1.87311370E+01  2.82539436E+00
  6.40121692E-01  1.61277759E-01  1.10000000E+00  1.87311370E+01  2.82539436E+00
  6.40121692E-01  1.61277759E-01  1.10000000E+00  1.87311370E+01  2.82539436E+00
  6.40121692E-01  1.61277759E-01  1.10000000E+00  1.87311370E+01  2.82539436E+00
  6.40121692E-01  1.61277759E-01  1.10000000E+00  1.87311370E+01  2.82539436E+00
  6.40121692E-01  1.61277759E-01  1.10000000E+00
Contraction coefficients                   R   N=         168
  1.83107443E-03  1.39501722E-02  6.84450781E-02  2.32714336E-01  4.70192898E-01
  3.58520853E-01 -1.10777550E-01 -1.48026263E-01  1.13076702E+00  1.00000000E+00
  1.00000000E+00  1.83107443E-03  1.39501722E-02  6.84450781E-02  2.32714336E-01
  4.70192898E-01  3.58520853E-01 -1.10777550E-01 -1.48026263E-01  1.13076702E+00
  1.00000000E+00  1.00000000E+00  1.83107443E-03  1.39501722E-02  6.84450781E-02
  2.32714336E-01  4.70192898E-01  3.58520853E-01 -1.10777550E-01 -1.48026263E-01
  1.13076702E+00  1.00000000E+00  1.00000000E+00  1.83107443E-03  1.39501722E-02
  6.84450781E-02  2.32714336E-01  4.70192898E-01  3.58520853E-01 -1.10777550E-01
 -1.48026263E-01  1.13076702E+00  1.00000000E+00  1.00000000E+00  1.83107443E-03
  1.39501722E-02  6.84450781E-02  2.32714336E-01  4.70192898E-01  3.58520853E-01
 -1.10777550E-01 -1.48026263E-01  1.13076702E+00  1.00000000E+00  1.00000000E+00
  1.83107443E-03  1.39501722E-02  6.84450781E-02  2.32714336E-01  4.70192898E-01
  3.58520853E-01 -1.10777550E-01 -1.48026263E-01  1.13076702E+00  1.00000000E+00
  1.00000000E+00  1.83107443E-03  1.39501722E-02  6.84450781E-02  2.32714336E-01
  4.70192898E-01  3.58520853E-01 -1.10777550E-01 -1.48026263E-01  1.13076702E+00
  1.00000000E+00  1.00000000E+00  1.83107443E-03  1.39501722E-02  6.84450781E-02
  2.32714336E-01  4.70192898E-01  3.58520853E-01 -1.10777550E-01 -1.48026263E-01
  1.13076702E+00  1.00000000E+00  1.00000000E+00  3.34946043E-02  2.34726953E-01
  8.13757326E-01  1.00000000E+00  1.00000000E+00  3.34946043E-02  2.34726953E-01
  8.13757326E-01  1.00000000E+00  1.00000000E+00  3.34946043E-02  2.34726953E-01
  8.13757326E-01  1.00000000E+00  1.00000000E+00  3.34946043E-02  2.34726953E-01
  8.13757326E-01  1.00000000E+00  1.00000000E+00  3.34946043E-02  2.34726953E-01
  8.13757326E-01  1.00000000E+00  1.00000000E+00  3.34946043E-02  2.34726953E-01
  8.13757326E-01  1.00000000E+00  1.00000000E+00  3.34946043E-02  2.34726953E-01
  8.13757326E-01  1.00000000E+00  1.00000000E+00  3.34946043E-02  2.34726953E-01
  8.13757326E-01  1.00000000E+00  1.00000000E+00  3.34946043E-02  2.34726953E-01
  8.13757326E-01  1.00000000E+00  1.00000000E+00  3.34946043E-02  2.34726953E-01
  8.13757326E-01  1.00000000E+00  1.00000000E+00  3.34946043E-02  2.34726953E-01
  8.13757326E-01  1.00000000E+00  1.00000000E+00  3.34946043E-02  2.34726953E-01
  8.13757326E-01  1.00000000E+00  1.00000000E+00  3.34946043E-02  2.34726953E-01
  8.13757326E-01  1.00000000E+00  1.00000000E+00  3.34946043E-02  2.34726953E-01
  8.13757326E-01  1.00000000E+00  1.00000000E+00  3.34946043E-02  2.34726953E-01
  8.13757326E-01  1.00000000E+00  1.00000000E+00  3.34946043E-02  2.34726953E-01
  8.13757326E-01  1.00000000E+00  1.00000000E+00
P(S=P) Contraction coefficients            R   N=         168
  0.00000000E+00  0.00000000E+00  0.00000000E+00  0.00000000E+00  0.00000000E+00
  0.00000000E+00  7.08742682E-02  3.39752839E-01  7.27158577E-01  1.00000000E+00
  0.00000000E+00  0.00000000E+00  0.00000000E+00  0.00000000E+00  0.00000000E+00
  0.00000000E+00  0.00000000E+00  7.08742682E-02  3.39752839E-01  7.27158577E-01
  1.00000000E+00  0.00000000E+00  0.00000000E+00  0.00000000E+00  0.00000000E+00
  0.00000000E+00  0.00000000E+00  0.00000000E+00  7.08742682E-02  3.39752839E-01
  7.27158577E-01  1.00000000E+00  0.00000000E+00  0.00000000E+00  0.00000000E+00
  0.00000000E+00  0.00000000E+00  0.00000000E+00  0.00000000E+00  7.08742682E-02
  3.39752839E-01  7.27158577E-01  1.00000000E+00  0.00000000E+00  0.00000000E+00
  0.00000000E+00  0.00000000E+00  0.00000000E+00  0.00000000E+00  0.00000000E+00
  7.08742682E-02  3.39752839E-01  7.27158577E-01  1.00000000E+00  0.00000000E+00
  0.00000000E+00  0.00000000E+00  0.00000000E+00  0.00000000E+00  0.00000000E+00
  0.00000000E+00  7.08742682E-02  3.39752839E-01  7.27158577E-01  1.00000000E+00
  0.00000000E+00  0.00000000E+00  0.00000000E+00  0.00000000E+00  0.00000000E+00
  0.00000000E+00  0.00000000E+00  7.08742682E-02  3.39752839E-01  7.27158577E-01
  1.00000000E+00  0.00000000E+00  0.00000000E+00  0.00000000E+00  0.00000000E+00
  0.00000000E+00  0.00000000E+00  0.00000000E+00  7.08742682E-02  3.39752839E-01
  7.27158577E-01  1.00000000E+00  0.00000000E+00  0.00000000E+00  0.00000000E+00
  0.00000000E+00  0.00000000E+00  0.00000000E+00  0.00000000E+00  0.00000000E+00
  0.00000000E+00  0.00000000E+00  0.00000000E+00  0.00000000E+00  0.00000000E+00
  0.00000000E+00  0.00000000E+00  0.00000000E+00  0.00000000E+00  0.00000000E+00
  0.00000000E+00  0.00000000E+00  0.00000000E+00  0.00000000E+00  0.00000000E+00
  0.00000000E+00  0.00000000E+00  0.00000000E+00  0.00000000E+00  0.00000000E+00
  0.00000000E+00  0.00000000E+00  0.00000000E+00  0.00000000E+00  0.00000000E+00
  0.00000000E+00  0.00000000E+00  0.00000000E+00  0.00000000E+00  0.00000000E+00
  0.00000000E+00  0.00000000E+00  0.00000000E+00  0.00000000E+00  0.00000000E+00
  0.00000000E+00  0.00000000E+00  0.00000000E+00  0.00000000E+00  0.00000000E+00
  0.00000000E+00  0.00000000E+00  0.00000000E+00  0.00000000E+00  0.00000000E+00
  0.00000000E+00  0.00000000E+00  0.00000000E+00  0.00000000E+00  0.00000000E+00
  0.00000000E+00  0.00000000E+00  0.00000000E+00  0.00000000E+00  0.00000000E+00
  0.00000000E+00  0.00000000E+00  0.00000000E+00  0.00000000E+00  0.00000000E+00
  0.00000000E+00  0.00000000E+00  0.00000000E+00  0.00000000E+00  0.00000000E+00
  0.00000000E+00  0.00000000E+00  0.00000000E+00  0.00000000E+00  0.00000000E+00
  0.00000000E+00  0.00000000E+00  0.00000000E+00
Coordinates of each shell                  R   N=         240
  1.58591958E+01 -2.23232232E+01 -2.11658453E+01  1.58591958E+01 -2.23232232E+01
 -2.11658453E+01  1.58591958E+01 -2.23232232E+01 -2.11658453E+01  1.58591958E+01
 -2.23232232E+01 -2.11658453E+01  1.37010511E+01 -1.86319947E+01 -2.47619431E+01
  1.37010511E+01 -1.86319947E+01 -2.47619431E+01  1.37010511E+01 -1.86319947E+01
 -2.47619431E+01  1.37010511E+01 -1.86319947E+01 -2.47619431E+01  1.31641969E+01
 -1.74757998E+01 -1.94156226E+01  1.31641969E+01 -1.74757998E+01 -1.94156226E+01
  1.31641969E+01 -1.74757998E+01 -1.94156226E+01  1.31641969E+01 -1.74757998E+01
 -1.94156226E+01  1.90577217E+01 -1.81470343E+01 -2.58786843E+01  1.90577217E+01
 -1.81470343E+01 -2.58786843E+01  1.90577217E+01 -1.81470343E+01 -2.58786843E+01
  1.90577217E+01 -1.81470343E+01 -2.58786843E+01  1.59711829E+01 -2.00983315E+01
 -2.96421136E+01  1.59711829E+01 -2.00983315E+01 -2.96421136E+01  1.59711829E+01
 -2.00983315E+01 -2.96421136E+01  1.59711829E+01 -2.00983315E+01 -2.96421136E+01
  7.63287216E+00 -2.12107811E+01 -2.41968281E+01  7.63287216E+00 -2.12107811E+01
 -2.41968281E+01  7.63287216E+00 -2.12107811E+01 -2.41968281E+01  7.63287216E+00
 -2.12107811E+01 -2.41968281E+01  1.00906745E+01 -2.11880666E+01 -2.92426009E+01
  1.00906745E+01 -2.11880666E+01 -2.92426009E+01  1.00906745E+01 -2.11880666E+01
 -2.92426009E+01  1.00906745E+01 -2.11880666E+01 -2.92426009E+01  8.77070649E+00
 -1.53791165E+01 -2.39449937E+01  8.77070649E+00 -1.53791165E+01 -2.39449937E+01
  8.77070649E+00 -1.53791165E+01 -2.39449937E+01  8.77070649E+00 -1.53791165E+01
 -2.39449937E+01  1.54490326E+01 -2.36930366E+01 -2.00580047E+01  1.54490326E+01
 -2.36930366E+01 -2.00580047E+01  1.54490326E+01 -2.36930366E+01 -2.00580047E+01
  1.74840371E+01 -2.17584956E+01 -2.06064713E+01  1.74840371E+01 -2.17584956E+01
 -2.06064713E+01  1.74840371E+01 -2.17584956E+01 -2.06064713E+01  1.34560972E+01
 -1.93157846E+01 -2.64185526E+01  1.34560972E+01 -1.93157846E+01 -2.64185526E+01
  1.34560972E+01 -1.93157846E+01 -2.64185526E+01  1.38733941E+01 -2.00816358E+01
 -2.36938794E+01  1.38733941E+01 -2.00816358E+01 -2.36938794E+01  1.38733941E+01
 -2.00816358E+01 -2.36938794E+01  1.31811270E+01 -1.86043839E+01 -2.08291075E+01
  1.31811270E+01 -1.86043839E+01 -2.08291075E+01  1.31811270E+01 -1.86043839E+01
 -2.08291075E+01  1.45213642E+01 -1.63243462E+01 -1.97383746E+01  1.45213642E+01
 -1.63243462E+01 -1.97383746E+01  1.45213642E+01 -1.63243462E+01 -1.97383746E+01
  1.85910557E+01 -1.86665521E+01 -2.75472898E+01  1.85910557E+01 -1.86665521E+01
 -2.75472898E+01  1.85910557E+01 -1.86665521E+01 -2.75472898E+01  1.75122961E+01
 -1.81949823E+01 -2.49399156E+01  1.75122961E+01 -1.81949823E+01 -2.49399156E+01
  1.75122961E+01 -1.81949823E+01 -2.49399156E+01  1.53540909E+01 -1.96661077E+01
 -3.12865930E+01  1.53540909E+01 -1.96661077E+01 -3.12865930E+01  1.53540909E+01
 -1.96661077E+01 -3.12865930E+01  1.75030005E+01 -2.10073446E+01 -2.99570119E+01
  1.75030005E+01 -2.10073446E+01 -2.99570119E+01  1.75030005E+01 -2.10073446E+01
 -2.99570119E+01  8.55071592E+00 -2.27666815E+01 -2.41037950E+01  8.55071592E+00
 -2.27666815E+01 -2.41037950E+01  8.55071592E+00 -2.27666815E+01 -2.41037950E+01
  8.37549106E+00 -2.03288025E+01 -2.55905880E+01  8.37549106E+00 -2.03288025E+01
 -2.55905880E+01  8.37549106E+00 -2.03288025E+01 -2.55905880E+01  1.11117370E+01
 -1.97640295E+01 -2.96914619E+01  1.11117370E+01 -1.97640295E+01 -2.96914619E+01
  1.11117370E+01 -1.97640295E+01 -2.96914619E+01  1.03737593E+01 -2.23851288E+01
 -3.05688107E+01  1.03737593E+01 -2.23851288E+01 -3.05688107E+01  1.03737593E+01
 -2.23851288E+01 -3.05688107E+01  8.68859978E+00 -1.37421677E+01 -2.31797548E+01
  8.68859978E+00 -1.37421677E+01 -2.31797548E+01  8.68859978E+00 -1.37421677E+01
 -2.31797548E+01  1.05380540E+01 -1.57573055E+01 -2.40183567E+01  1.05380540E+01
 -1.57573055E+01 -2.40183567E+01  1.05380540E+01 -1.57573055E+01 -2.40183567E+01
Num ILSW                                   I              100
ILSW                                       I   N=         100
           0           0           0           0           2           0
           0           0           0           0           0          -1
           5           0           0           0           0           0
           0           0           0           0           0           0
           1           1           0           0           0           0
           0           0      100000           0          -1           0
           0           0           0           0           0           0
           0           0           0           1           0           0
           0 -2000000000           1           0           0           0
           0           0           4          52           0           0
           0           1           0           0           0           0
           0           0           0          24           0           1
           0           0           0           0           0           0
           0           0           0           0           0           0
           0           0           0           0           0           0
           0           0           0           0           0           0
           0           0           0           0
Num RLSW                                   I               52
RLSW                                       R   N=          52
  1.00000000E+00  1.00000000E+00  1.00000000E+00  1.00000000E+00  1.00000000E+00
  0.00000000E+00  0.00000000E+00  1.00000000E+00  0.00000000E+00  0.00000000E+00
  0.00000000E+00  0.00000000E+00  1.00000000E+00  0.00000000E+00  0.00000000E+00
  0.00000000E+00  0.00000000E+00  1.00000000E+00  0.00000000E+00  0.00000000E+00
  0.00000000E+00  0.00000000E+00  1.00000000E+00  0.00000000E+00  0.00000000E+00
  0.00000000E+00  0.00000000E+00  1.00000000E+00  0.00000000E+00  0.00000000E+00
  0.00000000E+00  0.00000000E+00  1.00000000E+00  0.00000000E+00  0.00000000E+00
  0.00000000E+00  0.00000000E+00  0.00000000E+00  1.00000000E+00  1.00000000E+00
  0.00000000E+00  1.00000000E+00  0.00000000E+00  0.00000000E+00  0.00000000E+00
  0.00000000E+00  0.00000000E+00  0.00000000E+00  0.00000000E+00  0.00000000E+00
  0.00000000E+00  0.00000000E+00
MxBond                                     I                2
NBond                                      I   N=          24
           2           2           2           2           2           2
           2           2           1           1           1           1
           1           1           1           1           1           1
           1           1           1           1           1           1
IBond                                      I   N=          48
           9          10          11          12          13          14
          15          16          17          18          19          20
          21          22          23          24           1           0
           1           0           2           0           2           0
           3           0           3           0           4           0
           4           0           5           0           5           0
           6           0           6           0           7           0
           7           0           8           0           8           0
RBond                                      R   N=          48
  1.00000000E+00  1.00000000E+00  1.00000000E+00  1.00000000E+00  1.00000000E+00
  1.00000000E+00  1.00000000E+00  1.00000000E+00  1.00000000E+00  1.00000000E+00
  1.00000000E+00  1.00000000E+00  1.00000000E+00  1.00000000E+00  1.00000000E+00
  1.00000000E+00  1.00000000E+00  0.00000000E+00  1.00000000E+00  0.00000000E+00
  1.00000000E+00  0.00000000E+00  1.00000000E+00  0.00000000E+00  1.00000000E+00
  0.00000000E+00  1.00000000E+00  0.00000000E+00  1.00000000E+00  0.00000000E+00
  1.00000000E+00  0.00000000E+00  1.00000000E+00  0.00000000E+00  1.00000000E+00
  0.00000000E+00  1.00000000E+00  0.00000000E+00  1.00000000E+00  0.00000000E+00
  1.00000000E+00  0.00000000E+00  1.00000000E+00  0.00000000E+00  1.00000000E+00
  0.00000000E+00  1.00000000E+00  0.00000000E+00
Virial Ratio                               R      2.020766677124278E+00
SCF Energy                                 R     -6.198865700833536E+02
Total Energy                               R     -6.198865700833536E+02
RMS Density                                R      8.625118356861473E-09
Job Status                                 I                1
Nuclear derivative order                   I                0
External E-field                           R   N=          35
  0.00000000E+00  0.00000000E+00  0.00000000E+00  0.00000000E+00  0.00000000E+00
  0.00000000E+00  0.00000000E+00  0.00000000E+00  0.00000000E+00  0.00000000E+00
  0.00000000E+00  0.00000000E+00  0.00000000E+00  0.00000000E+00  0.00000000E+00
  0.00000000E+00  0.00000000E+00  0.00000000E+00  0.00000000E+00  0.00000000E+00
  0.00000000E+00  0.00000000E+00  0.00000000E+00  0.00000000E+00  0.00000000E+00
  0.00000000E+00  0.00000000E+00  0.00000000E+00  0.00000000E+00  0.00000000E+00
  0.00000000E+00  0.00000000E+00  0.00000000E+00  0.00000000E+00  0.00000000E+00
IOpCl                                      I                0
IROHF                                      I                0
Alpha Orbital Energies                     R   N=         192
 -2.05564494E+01 -2.05497140E+01 -2.05473620E+01 -2.05442056E+01 -2.05361787E+01