Atom number=27                                                          
SP        RHF                                                         6-31G(d,p)          
Number of atoms                            I               27
Info1-9                                    I   N=           9
         107         106           0           0           0         111
           1           1           2
Full Title                                 C   N=           2
Atom number=27          
Route                                      C   N=           4
#p hf/6-31g** 5d 7f pop=npa charge nosymm       
Charge                                     I                0
Multiplicity                               I                1
Number of electrons                        I               90
Number of alpha electrons                  I               45
Number of beta electrons                   I               45
Number of basis functions                  I              216
Number of independent functions            I              216
Number of point charges in /Mol/           I                0
Number of translation vectors              I                0
Atomic numbers                             I   N=          27
           8           8           8           8           8           8
           8           8           8           1           1           1
           1           1           1           1           1           1
           1           1           1           1           1           1
           1           1           1
Nuclear charges                            R   N=          27
  8.00000000E+00  8.00000000E+00  8.00000000E+00  8.00000000E+00  8.00000000E+00
  8.00000000E+00  8.00000000E+00  8.00000000E+00  8.00000000E+00  1.00000000E+00
  1.00000000E+00  1.00000000E+00  1.00000000E+00  1.00000000E+00  1.00000000E+00
  1.00000000E+00  1.00000000E+00  1.00000000E+00  1.00000000E+00  1.00000000E+00
  1.00000000E+00  1.00000000E+00  1.00000000E+00  1.00000000E+00  1.00000000E+00
  1.00000000E+00  1.00000000E+00
Current cartesian coordinates              R   N=          81
  1.58591958E+01 -2.23232232E+01 -2.11658453E+01  1.64278541E+01 -2.65870709E+01
 -1.80414289E+01  1.05265153E+01 -2.41129828E+01 -2.02839555E+01  1.31641969E+01
 -1.74757998E+01 -1.94156226E+01  1.31196920E+01 -2.23542903E+01 -1.58189805E+01
  7.63287216E+00 -2.12107811E+01 -2.41968281E+01  1.05536555E+01 -2.94649215E+01
 -2.16748884E+01  5.58362480E+00 -2.40041441E+01 -1.86623796E+01  7.95719829E+00
 -2.51911925E+01 -1.42761212E+01  1.54490326E+01 -2.36930366E+01 -2.00580047E+01
  1.74840371E+01 -2.17584956E+01 -2.06064713E+01  1.55337188E+01 -2.59511213E+01
 -1.66033699E+01  1.61624534E+01 -2.83754831E+01 -1.79860013E+01  8.77344660E+00
 -2.42410798E+01 -1.98570305E+01  1.13076525E+01 -2.34423738E+01 -1.87966655E+01
  1.31811270E+01 -1.86043839E+01 -2.08291075E+01  1.45213642E+01 -1.63243462E+01
 -1.97383746E+01  1.41645820E+01 -2.28487768E+01 -1.44277169E+01  1.38091000E+01
 -2.07734569E+01 -1.63645142E+01  8.55071592E+00 -2.27666815E+01 -2.41037950E+01
  8.37549106E+00 -2.03288025E+01 -2.55905880E+01  8.84108934E+00 -2.90041213E+01
 -2.20308448E+01  1.13441828E+01 -2.79179445E+01 -2.11710515E+01  5.79022289E+00
 -2.55204508E+01 -1.76979825E+01  5.17491673E+00 -2.27388534E+01 -1.74360362E+01
  9.38018663E+00 -2.40850659E+01 -1.41227926E+01  8.66153702E+00 -2.67619008E+01
 -1.48317423E+01
Number of symbols in /Mol/                 I                0
Force Field                                I                0
Atom Types                                 C   N=          27
                                                            
                                                            
                                                            
                                                            
                                                            
                        
Int Atom Types                             I   N=          27
           0           0           0           0           0           0
           0           0           0           0           0           0
           0           0           0           0           0           0
           0           0           0           0           0           0
           0           0           0
MM charges                                 R   N=          27
  0.00000000E+00  0.00000000E+00  0.00000000E+00  0.00000000E+00  0.00000000E+00
  0.00000000E+00  0.00000000E+00  0.00000000E+00  0.00000000E+00  0.00000000E+00
  0.00000000E+00  0.00000000E+00  0.00000000E+00  0.00000000E+00  0.00000000E+00
  0.00000000E+00  0.00000000E+00  0.00000000E+00  0.00000000E+00  0.00000000E+00
  0.00000000E+00  0.00000000E+00  0.00000000E+00  0.00000000E+00  0.00000000E+00
  0.00000000E+00  0.00000000E+00
Integer atomic weights                     I   N=          27
          16          16          16          16          16          16
          16          16          16           1           1           1
           1           1           1           1           1           1
           1           1           1           1           1           1
           1           1           1
Real atomic weights                        R   N=          27
  1.59949146E+01  1.59949146E+01  1.59949146E+01  1.59949146E+01  1.59949146E+01
  1.59949146E+01  1.59949146E+01  1.59949146E+01  1.59949146E+01  1.00782504E+00
  1.00782504E+00  1.00782504E+00  1.00782504E+00  1.00782504E+00  1.00782504E+00
  1.00782504E+00  1.00782504E+00  1.00782504E+00  1.00782504E+00  1.00782504E+00
  1.00782504E+00  1.00782504E+00  1.00782504E+00  1.00782504E+00  1.00782504E+00
  1.00782504E+00  1.00782504E+00
Atom fragment info                         I   N=          27
           0           0           0           0           0           0
           0           0           0           0           0           0
           0           0           0           0           0           0
           0           0           0           0           0           0
           0           0           0
Atom residue num                           I   N=          27
           0           0           0           0           0           0
           0           0           0           0           0           0
           0           0           0           0           0           0
           0           0           0           0           0           0
           0           0           0
Nuclear spins                              I   N=          27
           0           0           0           0           0           0
           0           0           0           1           1           1
           1           1           1           1           1           1
           1           1           1           1           1           1
           1           1           1
Nuclear ZEff                               R   N=          27
 -5.60000000E+00 -5.60000000E+00 -5.60000000E+00 -5.60000000E+00 -5.60000000E+00
 -5.60000000E+00 -5.60000000E+00 -5.60000000E+00 -5.60000000E+00 -1.00000000E+00
 -1.00000000E+00 -1.00000000E+00 -1.00000000E+00 -1.00000000E+00 -1.00000000E+00
 -1.00000000E+00 -1.00000000E+00 -1.00000000E+00 -1.00000000E+00 -1.00000000E+00
 -1.00000000E+00 -1.00000000E+00 -1.00000000E+00 -1.00000000E+00 -1.00000000E+00
 -1.00000000E+00 -1.00000000E+00
Nuclear ZNuc                               R   N=          27
  8.00000000E+00  8.00000000E+00  8.00000000E+00  8.00000000E+00  8.00000000E+00
  8.00000000E+00  8.00000000E+00  8.00000000E+00  8.00000000E+00  1.00000000E+00
  1.00000000E+00  1.00000000E+00  1.00000000E+00  1.00000000E+00  1.00000000E+00
  1.00000000E+00  1.00000000E+00  1.00000000E+00  1.00000000E+00  1.00000000E+00
  1.00000000E+00  1.00000000E+00  1.00000000E+00  1.00000000E+00  1.00000000E+00
  1.00000000E+00  1.00000000E+00
Nuclear QMom                               R   N=          27
  0.00000000E+00  0.00000000E+00  0.00000000E+00  0.00000000E+00  0.00000000E+00
  0.00000000E+00  0.00000000E+00  0.00000000E+00  0.00000000E+00  0.00000000E+00
  0.00000000E+00  0.00000000E+00  0.00000000E+00  0.00000000E+00  0.00000000E+00
  0.00000000E+00  0.00000000E+00  0.00000000E+00  0.00000000E+00  0.00000000E+00
  0.00000000E+00  0.00000000E+00  0.00000000E+00  0.00000000E+00  0.00000000E+00
  0.00000000E+00  0.00000000E+00
Nuclear GFac                               R   N=          27
  0.00000000E+00  0.00000000E+00  0.00000000E+00  0.00000000E+00  0.00000000E+00
  0.00000000E+00  0.00000000E+00  0.00000000E+00  0.00000000E+00  2.79284600E+00
  2.79284600E+00  2.79284600E+00  2.79284600E+00  2.79284600E+00  2.79284600E+00
  2.79284600E+00  2.79284600E+00  2.79284600E+00  2.79284600E+00  2.79284600E+00
  2.79284600E+00  2.79284600E+00  2.79284600E+00  2.79284600E+00  2.79284600E+00
  2.79284600E+00  2.79284600E+00
MicOpt                                     I   N=          27
          -1          -1          -1          -1          -1          -1
          -1          -1          -1          -1          -1          -1
          -1          -1          -1          -1          -1          -1
          -1          -1          -1          -1          -1          -1
          -1          -1          -1
Number of residues                         I                0
Number of secondary structures             I                0
Number of contracted shells                I               90
Number of primitive shells                 I              189
Pure/Cartesian d shells                    I                0
Pure/Cartesian f shells                    I                0
Highest angular momentum                   I                2
Largest degree of contraction              I                6
Shell types                                I   N=          90
           0          -1          -1          -2           0          -1
          -1          -2           0          -1          -1          -2
           0          -1          -1          -2           0          -1
          -1          -2           0          -1          -1          -2
           0          -1          -1          -2           0          -1
          -1          -2           0          -1          -1          -2
           0           0           1           0           0           1
           0           0           1           0           0           1
           0           0           1           0           0           1
           0           0           1           0           0           1
           0           0           1           0           0           1
           0           0           1           0           0           1
           0           0           1           0           0           1
           0           0           1           0           0           1
           0           0           1           0           0           1
Number of primitives per shell             I   N=          90
           6           3           1           1           6           3
           1           1           6           3           1           1
           6           3           1           1           6           3
           1           1           6           3           1           1
           6           3           1           1           6           3
           1           1           6           3           1           1
           3           1           1           3           1           1
           3           1           1           3           1           1
           3           1           1           3           1           1
           3           1           1           3           1           1
           3           1           1           3           1           1
           3           1           1           3           1           1
           3           1           1           3           1           1
           3           1           1           3           1           1
           3           1           1           3           1           1
Shell to atom map                          I   N=          90
           1           1           1           1           2           2
           2           2           3           3           3           3
           4           4           4           4           5           5
           5           5           6           6           6           6
           7           7           7           7           8           8
           8           8           9           9           9           9
          10          10          10          11          11          11
          12          12          12          13          13          13
          14          14          14          15          15          15
          16          16          16          17          17          17
          18          18          18          19          19          19
          20          20          20          21          21          21
          22          22          22          23          23          23
          24          24          24          25          25          25
          26          26          26          27          27          27
Primitive exponents                        R   N=         189
  5.48467166E+03  8.25234946E+02  1.88046958E+02  5.29645000E+01  1.68975704E+01
  5.79963534E+00  1.55396162E+01  3.59993359E+00  1.01376175E+00  2.70005823E-01
  8.00000000E-01  5.48467166E+03  8.25234946E+02  1.88046958E+02  5.29645000E+01
  1.68975704E+01  5.79963534E+00  1.55396162E+01  3.59993359E+00  1.01376175E+00
  2.70005823E-01  8.00000000E-01  5.48467166E+03  8.25234946E+02  1.88046958E+02
  5.29645000E+01  1.68975704E+01  5.79963534E+00  1.55396162E+01  3.59993359E+00
  1.01376175E+00  2.70005823E-01  8.00000000E-01  5.48467166E+03  8.25234946E+02
  1.88046958E+02  5.29645000E+01  1.68975704E+01  5.79963534E+00  1.55396162E+01
  3.59993359E+00  1.01376175E+00  2.70005823E-01  8.00000000E-01  5.48467166E+03
  8.25234946E+02  1.88046958E+02  5.29645000E+01  1.68975704E+01  5.79963534E+00
  1.55396162E+01  3.59993359E+00  1.01376175E+00  2.70005823E-01  8.00000000E-01
  5.48467166E+03  8.25234946E+02  1.88046958E+02  5.29645000E+01  1.68975704E+01
  5.79963534E+00  1.55396162E+01  3.59993359E+00  1.01376175E+00  2.70005823E-01
  8.00000000E-01  5.48467166E+03  8.25234946E+02  1.88046958E+02  5.29645000E+01
  1.68975704E+01  5.79963534E+00  1.55396162E+01  3.59993359E+00  1.01376175E+00
  2.70005823E-01  8.00000000E-01  5.48467166E+03  8.25234946E+02  1.88046958E+02
  5.29645000E+01  1.68975704E+01  5.79963534E+00  1.55396162E+01  3.59993359E+00
  1.01376175E+00  2.70005823E-01  8.00000000E-01  5.48467166E+03  8.25234946E+02
  1.88046958E+02  5.29645000E+01  1.68975704E+01  5.79963534E+00  1.55396162E+01
  3.59993359E+00  1.01376175E+00  2.70005823E-01  8.00000000E-01  1.87311370E+01
  2.82539436E+00  6.40121692E-01  1.61277759E-01  1.10000000E+00  1.87311370E+01
  2.82539436E+00  6.40121692E-01  1.61277759E-01  1.10000000E+00  1.87311370E+01
  2.82539436E+00  6.40121692E-01  1.61277759E-01  1.10000000E+00  1.87311370E+01
  2.82539436E+00  6.40121692E-01  1.61277759E-01  1.10000000E+00  1.87311370E+01
  2.82539436E+00  6.40121692E-01  1.61277759E-01  1.10000000E+00  1.87311370E+01
  2.82539436E+00  6.40121692E-01  1.61277759E-01  1.10000000E+00  1.87311370E+01
  2.82539436E+00  6.40121692E-01  1.61277759E-01  1.10000000E+00  1.87311370E+01
  2.82539436E+00  6.40121692E-01  1.61277759E-01  1.10000000E+00  1.87311370E+01
  2.82539436E+00  6.40121692E-01  1.61277759E-01  1.10000000E+00  1.87311370E+01
  2.82539436E+00  6.40121692E-01  1.61277759E-01  1.10000000E+00  1.87311370E+01
  2.82539436E+00  6.40121692E-01  1.61277759E-01  1.10000000E+00  1.87311370E+01
  2.82539436E+00  6.40121692E-01  1.61277759E-01  1.10000000E+00  1.87311370E+01
  2.82539436E+00  6.40121692E-01  1.61277759E-01  1.10000000E+00  1.87311370E+01
  2.82539436E+00  6.40121692E-01  1.61277759E-01  1.10000000E+00  1.87311370E+01
  2.82539436E+00  6.40121692E-01  1.61277759E-01  1.10000000E+00  1.87311370E+01
  2.82539436E+00  6.40121692E-01  1.61277759E-01  1.10000000E+00  1.87311370E+01
  2.82539436E+00  6.40121692E-01  1.61277759E-01  1.10000000E+00  1.87311370E+01
  2.82539436E+00  6.40121692E-01  1.61277759E-01  1.10000000E+00
Contraction coefficients                   R   N=         189
  1.83107443E-03  1.39501722E-02  6.84450781E-02  2.32714336E-01  4.70192898E-01
  3.58520853E-01 -1.10777550E-01 -1.48026263E-01  1.13076702E+00  1.00000000E+00
  1.00000000E+00  1.83107443E-03  1.39501722E-02  6.84450781E-02  2.32714336E-01
  4.70192898E-01  3.58520853E-01 -1.10777550E-01 -1.48026263E-01  1.13076702E+00
  1.00000000E+00  1.00000000E+00  1.83107443E-03  1.39501722E-02  6.84450781E-02
  2.32714336E-01  4.70192898E-01  3.58520853E-01 -1.10777550E-01 -1.48026263E-01
  1.13076702E+00  1.00000000E+00  1.00000000E+00  1.83107443E-03  1.39501722E-02
  6.84450781E-02  2.32714336E-01  4.70192898E-01  3.58520853E-01 -1.10777550E-01
 -1.48026263E-01  1.13076702E+00  1.00000000E+00  1.00000000E+00  1.83107443E-03
  1.39501722E-02  6.84450781E-02  2.32714336E-01  4.70192898E-01  3.58520853E-01
 -1.10777550E-01 -1.48026263E-01  1.13076702E+00  1.00000000E+00  1.00000000E+00
  1.83107443E-03  1.39501722E-02  6.84450781E-02  2.32714336E-01  4.70192898E-01
  3.58520853E-01 -1.10777550E-01 -1.48026263E-01  1.13076702E+00  1.00000000E+00
  1.00000000E+00  1.83107443E-03  1.39501722E-02  6.84450781E-02  2.32714336E-01
  4.70192898E-01  3.58520853E-01 -1.10777550E-01 -1.48026263E-01  1.13076702E+00
  1.00000000E+00  1.00000000E+00  1.83107443E-03  1.39501722E-02  6.84450781E-02
  2.32714336E-01  4.70192898E-01  3.58520853E-01 -1.10777550E-01 -1.48026263E-01
  1.13076702E+00  1.00000000E+00  1.00000000E+00  1.83107443E-03  1.39501722E-02
  6.84450781E-02  2.32714336E-01  4.70192898E-01  3.58520853E-01 -1.10777550E-01
 -1.48026263E-01  1.13076702E+00  1.00000000E+00  1.00000000E+00  3.34946043E-02
  2.34726953E-01  8.13757326E-01  1.00000000E+00  1.00000000E+00  3.34946043E-02
  2.34726953E-01  8.13757326E-01  1.00000000E+00  1.00000000E+00  3.34946043E-02
  2.34726953E-01  8.13757326E-01  1.00000000E+00  1.00000000E+00  3.34946043E-02
  2.34726953E-01  8.13757326E-01  1.00000000E+00  1.00000000E+00  3.34946043E-02
  2.34726953E-01  8.13757326E-01  1.00000000E+00  1.00000000E+00  3.34946043E-02
  2.34726953E-01  8.13757326E-01  1.00000000E+00  1.00000000E+00  3.34946043E-02
  2.34726953E-01  8.13757326E-01  1.00000000E+00  1.00000000E+00  3.34946043E-02
  2.34726953E-01  8.13757326E-01  1.00000000E+00  1.00000000E+00  3.34946043E-02
  2.34726953E-01  8.13757326E-01  1.00000000E+00  1.00000000E+00  3.34946043E-02
  2.34726953E-01  8.13757326E-01  1.00000000E+00  1.00000000E+00  3.34946043E-02
  2.34726953E-01  8.13757326E-01  1.00000000E+00  1.00000000E+00  3.34946043E-02
  2.34726953E-01  8.13757326E-01  1.00000000E+00  1.00000000E+00  3.34946043E-02
  2.34726953E-01  8.13757326E-01  1.00000000E+00  1.00000000E+00  3.34946043E-02
  2.34726953E-01  8.13757326E-01  1.00000000E+00  1.00000000E+00  3.34946043E-02
  2.34726953E-01  8.13757326E-01  1.00000000E+00  1.00000000E+00  3.34946043E-02
  2.34726953E-01  8.13757326E-01  1.00000000E+00  1.00000000E+00  3.34946043E-02
  2.34726953E-01  8.13757326E-01  1.00000000E+00  1.00000000E+00  3.34946043E-02
  2.34726953E-01  8.13757326E-01  1.00000000E+00  1.00000000E+00
P(S=P) Contraction coefficients            R   N=         189
  0.00000000E+00  0.00000000E+00  0.00000000E+00  0.00000000E+00  0.00000000E+00
  0.00000000E+00  7.08742682E-02  3.39752839E-01  7.27158577E-01  1.00000000E+00
  0.00000000E+00  0.00000000E+00  0.00000000E+00  0.00000000E+00  0.00000000E+00
  0.00000000E+00  0.00000000E+00  7.08742682E-02  3.39752839E-01  7.27158577E-01
  1.00000000E+00  0.00000000E+00  0.00000000E+00  0.00000000E+00  0.00000000E+00
  0.00000000E+00  0.00000000E+00  0.00000000E+00  7.08742682E-02  3.39752839E-01
  7.27158577E-01  1.00000000E+00  0.00000000E+00  0.00000000E+00  0.00000000E+00
  0.00000000E+00  0.00000000E+00  0.00000000E+00  0.00000000E+00  7.08742682E-02
  3.39752839E-01  7.27158577E-01  1.00000000E+00  0.00000000E+00  0.00000000E+00
  0.00000000E+00  0.00000000E+00  0.00000000E+00  0.00000000E+00  0.00000000E+00
  7.08742682E-02  3.39752839E-01  7.27158577E-01  1.00000000E+00  0.00000000E+00
  0.00000000E+00  0.00000000E+00  0.00000000E+00  0.00000000E+00  0.00000000E+00
  0.00000000E+00  7.08742682E-02  3.39752839E-01  7.27158577E-01  1.00000000E+00
  0.00000000E+00  0.00000000E+00  0.00000000E+00  0.00000000E+00  0.00000000E+00
  0.00000000E+00  0.00000000E+00  7.08742682E-02  3.39752839E-01  7.27158577E-01
  1.00000000E+00  0.00000000E+00  0.00000000E+00  0.00000000E+00  0.00000000E+00
  0.00000000E+00  0.00000000E+00  0.00000000E+00  7.08742682E-02  3.39752839E-01
  7.27158577E-01  1.00000000E+00  0.00000000E+00  0.00000000E+00  0.00000000E+00
  0.00000000E+00  0.00000000E+00  0.00000000E+00  0.00000000E+00  7.08742682E-02
  3.39752839E-01  7.27158577E-01  1.00000000E+00  0.00000000E+00  0.00000000E+00
  0.00000000E+00  0.00000000E+00  0.00000000E+00  0.00000000E+00  0.00000000E+00
  0.00000000E+00  0.00000000E+00  0.00000000E+00  0.00000000E+00  0.00000000E+00
  0.00000000E+00  0.00000000E+00  0.00000000E+00  0.00000000E+00  0.00000000E+00
  0.00000000E+00  0.00000000E+00  0.00000000E+00  0.00000000E+00  0.00000000E+00
  0.00000000E+00  0.00000000E+00  0.00000000E+00  0.00000000E+00  0.00000000E+00
  0.00000000E+00  0.00000000E+00  0.00000000E+00  0.00000000E+00  0.00000000E+00
  0.00000000E+00  0.00000000E+00  0.00000000E+00  0.00000000E+00  0.00000000E+00
  0.00000000E+00  0.00000000E+00  0.00000000E+00  0.00000000E+00  0.00000000E+00
  0.00000000E+00  0.00000000E+00  0.00000000E+00  0.00000000E+00  0.00000000E+00
  0.00000000E+00  0.00000000E+00  0.00000000E+00  0.00000000E+00  0.00000000E+00
  0.00000000E+00  0.00000000E+00  0.00000000E+00  0.00000000E+00  0.00000000E+00
  0.00000000E+00  0.00000000E+00  0.00000000E+00  0.00000000E+00  0.00000000E+00
  0.00000000E+00  0.00000000E+00  0.00000000E+00  0.00000000E+00  0.00000000E+00
  0.00000000E+00  0.00000000E+00  0.00000000E+00  0.00000000E+00  0.00000000E+00
  0.00000000E+00  0.00000000E+00  0.00000000E+00  0.00000000E+00  0.00000000E+00
  0.00000000E+00  0.00000000E+00  0.00000000E+00  0.00000000E+00  0.00000000E+00
  0.00000000E+00  0.00000000E+00  0.00000000E+00  0.00000000E+00  0.00000000E+00
  0.00000000E+00  0.00000000E+00  0.00000000E+00  0.00000000E+00
Coordinates of each shell                  R   N=         270
  1.58591958E+01 -2.23232232E+01 -2.11658453E+01  1.58591958E+01 -2.23232232E+01
 -2.11658453E+01  1.58591958E+01 -2.23232232E+01 -2.11658453E+01  1.58591958E+01
 -2.23232232E+01 -2.11658453E+01  1.64278541E+01 -2.65870709E+01 -1.80414289E+01
  1.64278541E+01 -2.65870709E+01 -1.80414289E+01  1.64278541E+01 -2.65870709E+01
 -1.80414289E+01  1.64278541E+01 -2.65870709E+01 -1.80414289E+01  1.05265153E+01
 -2.41129828E+01 -2.02839555E+01  1.05265153E+01 -2.41129828E+01 -2.02839555E+01
  1.05265153E+01 -2.41129828E+01 -2.02839555E+01  1.05265153E+01 -2.41129828E+01
 -2.02839555E+01  1.31641969E+01 -1.74757998E+01 -1.94156226E+01  1.31641969E+01
 -1.74757998E+01 -1.94156226E+01  1.31641969E+01 -1.74757998E+01 -1.94156226E+01
  1.31641969E+01 -1.74757998E+01 -1.94156226E+01  1.31196920E+01 -2.23542903E+01
 -1.58189805E+01  1.31196920E+01 -2.23542903E+01 -1.58189805E+01  1.31196920E+01
 -2.23542903E+01 -1.58189805E+01  1.31196920E+01 -2.23542903E+01 -1.58189805E+01
  7.63287216E+00 -2.12107811E+01 -2.41968281E+01  7.63287216E+00 -2.12107811E+01
 -2.41968281E+01  7.63287216E+00 -2.12107811E+01 -2.41968281E+01  7.63287216E+00
 -2.12107811E+01 -2.41968281E+01  1.05536555E+01 -2.94649215E+01 -2.16748884E+01
  1.05536555E+01 -2.94649215E+01 -2.16748884E+01  1.05536555E+01 -2.94649215E+01
 -2.16748884E+01  1.05536555E+01 -2.94649215E+01 -2.16748884E+01  5.58362480E+00
 -2.40041441E+01 -1.86623796E+01  5.58362480E+00 -2.40041441E+01 -1.86623796E+01
  5.58362480E+00 -2.40041441E+01 -1.86623796E+01  5.58362480E+00 -2.40041441E+01
 -1.86623796E+01  7.95719829E+00 -2.51911925E+01 -1.42761212E+01  7.95719829E+00
 -2.51911925E+01 -1.42761212E+01  7.95719829E+00 -2.51911925E+01 -1.42761212E+01
  7.95719829E+00 -2.51911925E+01 -1.42761212E+01  1.54490326E+01 -2.36930366E+01
 -2.00580047E+01  1.54490326E+01 -2.36930366E+01 -2.00580047E+01  1.54490326E+01
 -2.36930366E+01 -2.00580047E+01  1.74840371E+01 -2.17584956E+01 -2.06064713E+01
  1.74840371E+01 -2.17584956E+01 -2.06064713E+01  1.74840371E+01 -2.17584956E+01
 -2.06064713E+01  1.55337188E+01 -2.59511213E+01 -1.66033699E+01  1.55337188E+01
 -2.59511213E+01 -1.66033699E+01  1.55337188E+01 -2.59511213E+01 -1.66033699E+01
  1.61624534E+01 -2.83754831E+01 -1.79860013E+01  1.61624534E+01 -2.83754831E+01
 -1.79860013E+01  1.61624534E+01 -2.83754831E+01 -1.79860013E+01  8.77344660E+00
 -2.42410798E+01 -1.98570305E+01  8.77344660E+00 -2.42410798E+01 -1.98570305E+01
  8.77344660E+00 -2.42410798E+01 -1.98570305E+01  1.13076525E+01 -2.34423738E+01
 -1.87966655E+01  1.13076525E+01 -2.34423738E+01 -1.87966655E+01  1.13076525E+01
 -2.34423738E+01 -1.87966655E+01  1.31811270E+01 -1.86043839E+01 -2.08291075E+01
  1.31811270E+01 -1.86043839E+01 -2.08291075E+01  1.31811270E+01 -1.86043839E+01
 -2.08291075E+01  1.45213642E+01 -1.63243462E+01 -1.97383746E+01  1.45213642E+01
 -1.63243462E+01 -1.97383746E+01  1.45213642E+01 -1.63243462E+01 -1.97383746E+01
  1.41645820E+01 -2.28487768E+01 -1.44277169E+01  1.41645820E+01 -2.28487768E+01
 -1.44277169E+01  1.41645820E+01 -2.28487768E+01 -1.44277169E+01  1.38091000E+01
 -2.07734569E+01 -1.63645142E+01  1.38091000E+01 -2.07734569E+01 -1.63645142E+01
  1.38091000E+01 -2.07734569E+01 -1.63645142E+01  8.55071592E+00 -2.27666815E+01
 -2.41037950E+01  8.55071592E+00 -2.27666815E+01 -2.41037950E+01  8.55071592E+00
 -2.27666815E+01 -2.41037950E+01  8.37549106E+00 -2.03288025E+01 -2.55905880E+01
  8.37549106E+00 -2.03288025E+01 -2.55905880E+01  8.37549106E+00 -2.03288025E+01
 -2.55905880E+01  8.84108934E+00 -2.90041213E+01 -2.20308448E+01  8.84108934E+00
 -2.90041213E+01 -2.20308448E+01  8.84108934E+00 -2.90041213E+01 -2.20308448E+01
  1.13441828E+01 -2.79179445E+01 -2.11710515E+01  1.13441828E+01 -2.79179445E+01
 -2.11710515E+01  1.13441828E+01 -2.79179445E+01 -2.11710515E+01  5.79022289E+00
 -2.55204508E+01 -1.76979825E+01  5.79022289E+00 -2.55204508E+01 -1.76979825E+01
  5.79022289E+00 -2.55204508E+01 -1.76979825E+01  5.17491673E+00 -2.27388534E+01
 -1.74360362E+01  5.17491673E+00 -2.27388534E+01 -1.74360362E+01  5.17491673E+00
 -2.27388534E+01 -1.74360362E+01  9.38018663E+00 -2.40850659E+01 -1.41227926E+01
  9.38018663E+00 -2.40850659E+01 -1.41227926E+01  9.38018663E+00 -2.40850659E+01
 -1.41227926E+01  8.66153702E+00 -2.67619008E+01 -1.48317423E+01  8.66153702E+00
 -2.67619008E+01 -1.48317423E+01  8.66153702E+00 -2.67619008E+01 -1.48317423E+01
Num ILSW                                   I              100
ILSW                                       I   N=         100
           0           0           0           0           2           0
           0           0           0           0           0          -1
           5           0           0           0           0           0
           0           0           0           0           0           0
           1           1           0           0           0           0
           0           0      100000           0          -1           0
           0           0           0           0           0           0
           0           0           0           1           0           0
           0 -2000000000           1           0           0           0
           0           0           4          52           0           0
           0           1           0           0           0           0
           0           0           0          27           0           1
           0           0           0           0           0           0
           0           0           0           0           0           0
           0           0           0           0           0           0
           0           0           0           0           0           0
           0           0           0           0
Num RLSW                                   I               52
RLSW                                       R   N=          52
  1.00000000E+00  1.00000000E+00  1.00000000E+00  1.00000000E+00  1.00000000E+00
  0.00000000E+00  0.00000000E+00  1.00000000E+00  0.00000000E+00  0.00000000E+00
  0.00000000E+00  0.00000000E+00  1.00000000E+00  0.00000000E+00  0.00000000E+00
  0.00000000E+00  0.00000000E+00  1.00000000E+00  0.00000000E+00  0.00000000E+00
  0.00000000E+00  0.00000000E+00  1.00000000E+00  0.00000000E+00  0.00000000E+00
  0.00000000E+00  0.00000000E+00  1.00000000E+00  0.00000000E+00  0.00000000E+00
  0.00000000E+00  0.00000000E+00  1.00000000E+00  0.00000000E+00  0.00000000E+00
  0.00000000E+00  0.00000000E+00  0.00000000E+00  1.00000000E+00  1.00000000E+00
  0.00000000E+00  1.00000000E+00  0.00000000E+00  0.00000000E+00  0.00000000E+00
  0.00000000E+00  0.00000000E+00  0.00000000E+00  0.00000000E+00  0.00000000E+00
  0.00000000E+00  0.00000000E+00
MxBond                                     I                2
NBond                                      I   N=          27
           2           2           2           2           2           2
           2           2           2           1           1           1
           1           1           1           1           1           1
           1           1           1           1           1           1
           1           1           1
IBond                                      I   N=          54
          10          11          12          13          14          15