 Entering Gaussian System, Link 0=g16
 Input=w32_9.gjf
 Output=w32_9.log
 Initial command:
 /home/soft/g16/l1.exe "/tmp/liwei01/gaussian/wsr/Gau-5340.inp" -scrdir="/tmp/liwei01/gaussian/wsr/"
 Entering Link 1 = /home/soft/g16/l1.exe PID=      5341.
  
 Copyright (c) 1988,1990,1992,1993,1995,1998,2003,2009,2016,
            Gaussian, Inc.  All Rights Reserved.
  
 This is part of the Gaussian(R) 16 program.  It is based on
 the Gaussian(R) 09 system (copyright 2009, Gaussian, Inc.),
 the Gaussian(R) 03 system (copyright 2003, Gaussian, Inc.),
 the Gaussian(R) 98 system (copyright 1998, Gaussian, Inc.),
 the Gaussian(R) 94 system (copyright 1995, Gaussian, Inc.),
 the Gaussian 92(TM) system (copyright 1992, Gaussian, Inc.),
 the Gaussian 90(TM) system (copyright 1990, Gaussian, Inc.),
 the Gaussian 88(TM) system (copyright 1988, Gaussian, Inc.),
 the Gaussian 86(TM) system (copyright 1986, Carnegie Mellon
 University), and the Gaussian 82(TM) system (copyright 1983,
 Carnegie Mellon University). Gaussian is a federally registered
 trademark of Gaussian, Inc.
  
 This software contains proprietary and confidential information,
 including trade secrets, belonging to Gaussian, Inc.
  
 This software is provided under written license and may be
 used, copied, transmitted, or stored only in accord with that
 written license.
  
 The following legend is applicable only to US Government
 contracts under FAR:
  
                    RESTRICTED RIGHTS LEGEND
  
 Use, reproduction and disclosure by the US Government is
 subject to restrictions as set forth in subparagraphs (a)
 and (c) of the Commercial Computer Software - Restricted
 Rights clause in FAR 52.227-19.
  
 Gaussian, Inc.
 340 Quinnipiac St., Bldg. 40, Wallingford CT 06492
  
  
 ---------------------------------------------------------------
 Warning -- This program may not be used in any manner that
 competes with the business of Gaussian, Inc. or will provide
 assistance to any competitor of Gaussian, Inc.  The licensee
 of this program is prohibited from giving any competitor of
 Gaussian, Inc. access to this program.  By using this program,
 the user acknowledges that Gaussian, Inc. is engaged in the
 business of creating and licensing software in the field of
 computational chemistry and represents and warrants to the
 licensee that it is not a competitor of Gaussian, Inc. and that
 it will not use this program in any manner prohibited above.
 ---------------------------------------------------------------
  

 Cite this work as:
 Gaussian 16, Revision A.03,
 M. J. Frisch, G. W. Trucks, H. B. Schlegel, G. E. Scuseria, 
 M. A. Robb, J. R. Cheeseman, G. Scalmani, V. Barone, 
 G. A. Petersson, H. Nakatsuji, X. Li, M. Caricato, A. V. Marenich, 
 J. Bloino, B. G. Janesko, R. Gomperts, B. Mennucci, H. P. Hratchian, 
 J. V. Ortiz, A. F. Izmaylov, J. L. Sonnenberg, D. Williams-Young, 
 F. Ding, F. Lipparini, F. Egidi, J. Goings, B. Peng, A. Petrone, 
 T. Henderson, D. Ranasinghe, V. G. Zakrzewski, J. Gao, N. Rega, 
 G. Zheng, W. Liang, M. Hada, M. Ehara, K. Toyota, R. Fukuda, 
 J. Hasegawa, M. Ishida, T. Nakajima, Y. Honda, O. Kitao, H. Nakai, 
 T. Vreven, K. Throssell, J. A. Montgomery, Jr., J. E. Peralta, 
 F. Ogliaro, M. J. Bearpark, J. J. Heyd, E. N. Brothers, K. N. Kudin, 
 V. N. Staroverov, T. A. Keith, R. Kobayashi, J. Normand, 
 K. Raghavachari, A. P. Rendell, J. C. Burant, S. S. Iyengar, 
 J. Tomasi, M. Cossi, J. M. Millam, M. Klene, C. Adamo, R. Cammi, 
 J. W. Ochterski, R. L. Martin, K. Morokuma, O. Farkas, 
 J. B. Foresman, and D. J. Fox, Gaussian, Inc., Wallingford CT, 2016.
 
 ******************************************
 Gaussian 16:  ES64L-G16RevA.03 25-Dec-2016
                15-May-2020 
 ******************************************
 %chk=w32_9.chk
 %nproc=4
 Will use up to    4 processors via shared memory.
 %mem=1gb
 -----------------------------------------
 #p hf/6-31g** 5d 7f pop=npa charge nosymm
 -----------------------------------------
 1/18=10,28=-2,38=1,125=101,172=1/1;
 2/12=2,15=1,17=6,18=5,40=1/2;
 3/5=1,6=6,7=101,8=11,11=9,25=1,30=1/1,2,3;
 4//1;
 5/5=2,38=5/2;
 6/7=2,8=2,9=2,10=2,28=1,40=-1/1,7;
 99/5=1,9=1/99;
 Leave Link    1 at Fri May 15 22:35:01 2020, MaxMem=   134217728 cpu:               0.3 elap:               0.1
 (Enter /home/soft/g16/l101.exe)
 --------------
 Atom number=24
 --------------
 Symbolic Z-matrix:
 Charge =  0 Multiplicity = 1
 o                     8.39232  -11.81294  -11.20048 
 o                     7.25028  -9.85963  -13.10346 
 o                     10.08491  -9.603    -13.69441 
 o                     9.47377  -7.99719  -10.91804 
 o                     8.45159  -10.63558  -15.68593 
 o                     10.6752  -11.92516  -15.81919 
 o                     12.89002  -9.6906   -13.75113 
 o                     8.53888  -6.2611   -12.94835 
 h                     8.17528  -12.53782  -10.61424 
 h                     9.25215  -11.5141  -10.90447 
 h                     7.12066  -10.22147  -13.9801 
 h                     7.34148  -10.62674  -12.53826 
 h                     9.83796  -9.87791  -14.5774 
 h                     9.26711  -9.62837  -13.19764 
 h                     9.99752  -8.79563  -10.85159 
 h                     9.62339  -7.54236  -10.0892 
 h                     8.12504  -10.40686  -16.55615 
 h                     9.26219  -11.11661  -15.85257 
 h                     11.14537  -12.25972  -15.05549 
 h                     10.76936  -12.61226  -16.47894 
 h                     13.48844  -9.84591  -13.02036 
 h                     12.01715  -9.74274  -13.36177 
 h                     8.88003  -6.84914  -12.27451 
 h                     9.27672  -6.12296  -13.54226 
 
 ITRead=  0  0  0  0  0  0  0  0  0  0  0  0  0  0  0  0  0  0  0  0
 ITRead=  0  0  0  0
 MicOpt= -1 -1 -1 -1 -1 -1 -1 -1 -1 -1 -1 -1 -1 -1 -1 -1 -1 -1 -1 -1
 MicOpt= -1 -1 -1 -1
 NAtoms=     24 NQM=       24 NQMF=       0 NMMI=      0 NMMIF=      0
                NMic=       0 NMicF=      0.
                    Isotopes and Nuclear Properties:
 (Nuclear quadrupole moments (NQMom) in fm**2, nuclear magnetic moments (NMagM)
  in nuclear magnetons)

  Atom         1           2           3           4           5           6           7           8           9          10
 IAtWgt=          16          16          16          16          16          16          16          16           1           1
 AtmWgt=  15.9949146  15.9949146  15.9949146  15.9949146  15.9949146  15.9949146  15.9949146  15.9949146   1.0078250   1.0078250
 NucSpn=           0           0           0           0           0           0           0           0           1           1
 AtZEff=  -0.0000000  -0.0000000  -0.0000000  -0.0000000  -0.0000000  -0.0000000  -0.0000000  -0.0000000  -0.0000000  -0.0000000
 NQMom=    0.0000000   0.0000000   0.0000000   0.0000000   0.0000000   0.0000000   0.0000000   0.0000000   0.0000000   0.0000000
 NMagM=    0.0000000   0.0000000   0.0000000   0.0000000   0.0000000   0.0000000   0.0000000   0.0000000   2.7928460   2.7928460
 AtZNuc=   8.0000000   8.0000000   8.0000000   8.0000000   8.0000000   8.0000000   8.0000000   8.0000000   1.0000000   1.0000000

  Atom        11          12          13          14          15          16          17          18          19          20
 IAtWgt=           1           1           1           1           1           1           1           1           1           1
 AtmWgt=   1.0078250   1.0078250   1.0078250   1.0078250   1.0078250   1.0078250   1.0078250   1.0078250   1.0078250   1.0078250
 NucSpn=           1           1           1           1           1           1           1           1           1           1
 AtZEff=  -0.0000000  -0.0000000  -0.0000000  -0.0000000  -0.0000000  -0.0000000  -0.0000000  -0.0000000  -0.0000000  -0.0000000
 NQMom=    0.0000000   0.0000000   0.0000000   0.0000000   0.0000000   0.0000000   0.0000000   0.0000000   0.0000000   0.0000000
 NMagM=    2.7928460   2.7928460   2.7928460   2.7928460   2.7928460   2.7928460   2.7928460   2.7928460   2.7928460   2.7928460
 AtZNuc=   1.0000000   1.0000000   1.0000000   1.0000000   1.0000000   1.0000000   1.0000000   1.0000000   1.0000000   1.0000000

  Atom        21          22          23          24
 IAtWgt=           1           1           1           1
 AtmWgt=   1.0078250   1.0078250   1.0078250   1.0078250
 NucSpn=           1           1           1           1
 AtZEff=  -0.0000000  -0.0000000  -0.0000000  -0.0000000
 NQMom=    0.0000000   0.0000000   0.0000000   0.0000000
 NMagM=    2.7928460   2.7928460   2.7928460   2.7928460
 AtZNuc=   1.0000000   1.0000000   1.0000000   1.0000000
 Background charge distribution read from input stream:
 Point Charges:
 XYZ=   10.7060  -10.8489  -10.0915 Q=   -1.0357 A=    0.0000 R=    0.0000 C=    0.0000
 XYZ=   11.5214  -11.3203   -9.9208 Q=    0.5206 A=    0.0000 R=    0.0000 C=    0.0000
 XYZ=   10.5678  -10.3169   -9.3078 Q=    0.5156 A=    0.0000 R=    0.0000 C=    0.0000
 XYZ=    8.6932  -14.0693   -9.5471 Q=   -1.0099 A=    0.0000 R=    0.0000 C=    0.0000
 XYZ=    8.2201  -13.7327   -8.7861 Q=    0.4999 A=    0.0000 R=    0.0000 C=    0.0000
 XYZ=    8.5528  -15.0157   -9.5178 Q=    0.5079 A=    0.0000 R=    0.0000 C=    0.0000
 XYZ=    5.5704  -12.7600  -10.7338 Q=   -1.0500 A=    0.0000 R=    0.0000 C=    0.0000
 XYZ=    4.6427  -12.8278  -10.5079 Q=    0.5214 A=    0.0000 R=    0.0000 C=    0.0000
 XYZ=    5.9838  -12.4052   -9.9468 Q=    0.5064 A=    0.0000 R=    0.0000 C=    0.0000
 XYZ=    6.9662   -9.2478  -10.2743 Q=   -1.0324 A=    0.0000 R=    0.0000 C=    0.0000
 XYZ=    6.9752   -9.8450  -11.0223 Q=    0.5142 A=    0.0000 R=    0.0000 C=    0.0000
 XYZ=    7.6844   -8.6385  -10.4451 Q=    0.5185 A=    0.0000 R=    0.0000 C=    0.0000
 XYZ=    6.9426  -11.8294   -8.3710 Q=   -1.0528 A=    0.0000 R=    0.0000 C=    0.0000
 XYZ=    7.4956  -12.0911   -7.6348 Q=    0.5210 A=    0.0000 R=    0.0000 C=    0.0000
 XYZ=    7.3075  -10.9928   -8.6597 Q=    0.5255 A=    0.0000 R=    0.0000 C=    0.0000
 XYZ=    9.7397  -14.5602  -13.0841 Q=   -1.0029 A=    0.0000 R=    0.0000 C=    0.0000
 XYZ=    9.4367  -13.9209  -12.4394 Q=    0.5215 A=    0.0000 R=    0.0000 C=    0.0000
 XYZ=   10.6527  -14.3230  -13.2466 Q=    0.4988 A=    0.0000 R=    0.0000 C=    0.0000
 XYZ=    4.0391  -11.2243  -12.8044 Q=   -0.9921 A=    0.0000 R=    0.0000 C=    0.0000
 XYZ=    4.5248  -12.0476  -12.7552 Q=    0.4802 A=    0.0000 R=    0.0000 C=    0.0000
 XYZ=    4.4321  -10.7575  -13.5420 Q=    0.5046 A=    0.0000 R=    0.0000 C=    0.0000
 XYZ=    5.5848  -15.5922  -11.4699 Q=   -1.0129 A=    0.0000 R=    0.0000 C=    0.0000
 XYZ=    4.6785  -15.3483  -11.6582 Q=    0.5050 A=    0.0000 R=    0.0000 C=    0.0000
 XYZ=    6.0031  -14.7735  -11.2032 Q=    0.5257 A=    0.0000 R=    0.0000 C=    0.0000
 XYZ=    8.8013  -12.4259   -6.4973 Q=   -0.9852 A=    0.0000 R=    0.0000 C=    0.0000
 XYZ=    9.0556  -11.7490   -5.8701 Q=    0.5006 A=    0.0000 R=    0.0000 C=    0.0000
 XYZ=    8.9395  -13.2499   -6.0303 Q=    0.5083 A=    0.0000 R=    0.0000 C=    0.0000
 XYZ=   10.5523   -9.0602   -7.7657 Q=   -0.9799 A=    0.0000 R=    0.0000 C=    0.0000
 XYZ=   10.0296   -9.4526   -7.0665 Q=    0.5003 A=    0.0000 R=    0.0000 C=    0.0000
 XYZ=   10.0576   -8.2839   -8.0284 Q=    0.4937 A=    0.0000 R=    0.0000 C=    0.0000
 XYZ=    8.4919  -14.1596  -15.7110 Q=   -0.9823 A=    0.0000 R=    0.0000 C=    0.0000
 XYZ=    8.8439  -15.0437  -15.8144 Q=    0.4799 A=    0.0000 R=    0.0000 C=    0.0000
 XYZ=    8.9183  -13.8221  -14.9233 Q=    0.4950 A=    0.0000 R=    0.0000 C=    0.0000
 XYZ=    7.7593  -16.5050  -13.2460 Q=   -1.0112 A=    0.0000 R=    0.0000 C=    0.0000
 XYZ=    7.3079  -16.2111  -12.4547 Q=    0.4926 A=    0.0000 R=    0.0000 C=    0.0000
 XYZ=    8.5373  -15.9498  -13.2987 Q=    0.4973 A=    0.0000 R=    0.0000 C=    0.0000
 XYZ=   13.4576  -11.7733   -9.7740 Q=   -0.9993 A=    0.0000 R=    0.0000 C=    0.0000
 XYZ=   13.9089  -10.9962  -10.1037 Q=    0.5128 A=    0.0000 R=    0.0000 C=    0.0000
 XYZ=   14.1508  -12.4236   -9.6612 Q=    0.5076 A=    0.0000 R=    0.0000 C=    0.0000
 XYZ=    5.5914  -15.5335   -8.7002 Q=   -1.0162 A=    0.0000 R=    0.0000 C=    0.0000
 XYZ=    6.3093  -16.0707   -8.3652 Q=    0.4831 A=    0.0000 R=    0.0000 C=    0.0000
 XYZ=    5.4763  -15.8239   -9.6050 Q=    0.5237 A=    0.0000 R=    0.0000 C=    0.0000
 XYZ=    5.3398  -11.2122  -15.4745 Q=   -0.9760 A=    0.0000 R=    0.0000 C=    0.0000
 XYZ=    5.8801  -10.4587  -15.7120 Q=    0.4863 A=    0.0000 R=    0.0000 C=    0.0000
 XYZ=    5.4896  -11.8457  -16.1763 Q=    0.4965 A=    0.0000 R=    0.0000 C=    0.0000
 XYZ=   12.9960  -14.7139  -11.2100 Q=   -0.9778 A=    0.0000 R=    0.0000 C=    0.0000
 XYZ=   12.2864  -15.1619  -10.7497 Q=    0.5059 A=    0.0000 R=    0.0000 C=    0.0000
 XYZ=   13.6357  -14.5124  -10.5270 Q=    0.4638 A=    0.0000 R=    0.0000 C=    0.0000
 XYZ=    4.6413   -8.1383  -12.6711 Q=   -0.9897 A=    0.0000 R=    0.0000 C=    0.0000
 XYZ=    4.5978   -7.2720  -12.2662 Q=    0.4876 A=    0.0000 R=    0.0000 C=    0.0000
 XYZ=    5.5765   -8.3384  -12.7100 Q=    0.4969 A=    0.0000 R=    0.0000 C=    0.0000
 XYZ=    8.9611  -17.0167   -9.2755 Q=   -0.9921 A=    0.0000 R=    0.0000 C=    0.0000
 XYZ=    8.6736  -17.2191   -8.3852 Q=    0.5092 A=    0.0000 R=    0.0000 C=    0.0000
 XYZ=    8.3026  -17.4234   -9.8386 Q=    0.5103 A=    0.0000 R=    0.0000 C=    0.0000
 XYZ=    4.9070   -7.9100   -9.1300 Q=   -1.0105 A=    0.0000 R=    0.0000 C=    0.0000
 XYZ=    4.0635   -8.0265   -9.5674 Q=    0.4764 A=    0.0000 R=    0.0000 C=    0.0000
 XYZ=    5.4227   -8.6710   -9.3968 Q=    0.5176 A=    0.0000 R=    0.0000 C=    0.0000
 XYZ=    2.9547  -12.7024   -9.8757 Q=   -0.9915 A=    0.0000 R=    0.0000 C=    0.0000
 XYZ=    3.0641  -13.5048   -9.3654 Q=    0.5019 A=    0.0000 R=    0.0000 C=    0.0000
 XYZ=    2.7384  -12.0329   -9.2268 Q=    0.5105 A=    0.0000 R=    0.0000 C=    0.0000
 XYZ=    4.2108  -13.3306   -7.5546 Q=   -1.0293 A=    0.0000 R=    0.0000 C=    0.0000
 XYZ=    4.9638  -12.7453   -7.4735 Q=    0.4979 A=    0.0000 R=    0.0000 C=    0.0000
 XYZ=    4.5835  -14.1618   -7.8486 Q=    0.5197 A=    0.0000 R=    0.0000 C=    0.0000
 XYZ=   11.4715  -15.3553   -7.5180 Q=   -1.0197 A=    0.0000 R=    0.0000 C=    0.0000
 XYZ=   10.8644  -15.3558   -8.2581 Q=    0.4753 A=    0.0000 R=    0.0000 C=    0.0000
 XYZ=   11.9075  -14.5045   -7.5658 Q=    0.5146 A=    0.0000 R=    0.0000 C=    0.0000
 XYZ=   12.8138  -13.0185   -7.3663 Q=   -0.9959 A=    0.0000 R=    0.0000 C=    0.0000
 XYZ=   12.4819  -12.4171   -6.6996 Q=    0.4994 A=    0.0000 R=    0.0000 C=    0.0000
 XYZ=   12.6552  -12.5682   -8.1960 Q=    0.5110 A=    0.0000 R=    0.0000 C=    0.0000
 XYZ=   11.3245  -17.0116  -10.7628 Q=   -1.0019 A=    0.0000 R=    0.0000 C=    0.0000
 XYZ=   11.7165  -17.8633  -10.5702 Q=    0.4876 A=    0.0000 R=    0.0000 C=    0.0000
 XYZ=   10.4428  -17.0644  -10.3939 Q=    0.5095 A=    0.0000 R=    0.0000 C=    0.0000
 Pt Chg Charge=              0.0123 electrons
 Pt Chg Dipole moment (Debye):
    X=             12.3222    Y=              2.9053    Z=             12.0800  Tot=             17.4986
 Pt Chg Quadrupole moment (Debye-Ang):
   XX=            177.2703   YY=            -40.1428   ZZ=           -226.6017
   XY=            -80.1863   XZ=            -28.4513   YZ=           -217.8798
 Pt Chg Traceless Quadrupole moment (Debye-Ang):
   XX=            207.0950   YY=            -10.3180   ZZ=           -196.7770
   XY=            -80.1863   XZ=            -28.4513   YZ=           -217.8798
 Pt Chg Octapole moment (Debye-Ang**2):
  XXX=           2307.1176  YYY=            -58.2164  ZZZ=           3221.6211  XYY=            448.8378
  XXY=          -1241.2083  XXZ=          -1016.8291  XZZ=           -426.4918  YZZ=           3990.2621
  YYZ=           3198.2656  XYZ=           -583.6119
 Pt Chg Hexadecapole moment (Debye-Ang**3):
 XXXX=          32355.8342 YYYY=          18238.4384 ZZZZ=         -40408.8722 XXXY=         -16961.7357
 XXXZ=         -17107.1832 YYYX=          -4007.1194 YYYZ=         -41478.6031 ZZZX=          10161.8225
 ZZZY=         -58971.0581 XXYY=           6550.8728 XXZZ=           4598.9253 YYZZ=         -61363.4028
 XXYZ=           2043.6324 YYXZ=          15763.1108 ZZXY=          18419.6992
 Leave Link  101 at Fri May 15 22:35:01 2020, MaxMem=   134217728 cpu:               0.6 elap:               0.2
 (Enter /home/soft/g16/l202.exe)
                          Input orientation:                          
 ---------------------------------------------------------------------
 Center     Atomic      Atomic             Coordinates (Angstroms)
 Number     Number       Type             X           Y           Z
 ---------------------------------------------------------------------
      1          8           0        8.392325  -11.812941  -11.200483
      2          8           0        7.250284   -9.859627  -13.103456
      3          8           0       10.084912   -9.602997  -13.694410
      4          8           0        9.473772   -7.997188  -10.918041
      5          8           0        8.451586  -10.635579  -15.685931
      6          8           0       10.675204  -11.925165  -15.819193
      7          8           0       12.890023   -9.690601  -13.751128
      8          8           0        8.538876   -6.261102  -12.948352
      9          1           0        8.175276  -12.537815  -10.614239
     10          1           0        9.252154  -11.514100  -10.904475
     11          1           0        7.120660  -10.221473  -13.980096
     12          1           0        7.341484  -10.626744  -12.538261
     13          1           0        9.837963   -9.877914  -14.577398
     14          1           0        9.267108   -9.628370  -13.197635
     15          1           0        9.997520   -8.795627  -10.851588
     16          1           0        9.623390   -7.542356  -10.089201
     17          1           0        8.125035  -10.406856  -16.556152
     18          1           0        9.262189  -11.116608  -15.852568
     19          1           0       11.145373  -12.259719  -15.055487
     20          1           0       10.769363  -12.612255  -16.478945
     21          1           0       13.488436   -9.845906  -13.020365
     22          1           0       12.017146   -9.742740  -13.361769
     23          1           0        8.880032   -6.849136  -12.274511
     24          1           0        9.276723   -6.122958  -13.542264
 ---------------------------------------------------------------------
                    Distance matrix (angstroms):
                    1          2          3          4          5
     1  O    0.000000
     2  O    2.956518   0.000000
     3  O    3.737429   2.906923   0.000000
     4  O    3.976088   3.631614   3.265018   0.000000
     5  O    4.637773   2.952017   2.774912   5.544253   0.000000
     6  O    5.153311   4.834434   3.202438   6.394821   2.573960
     7  O    5.589222   5.679323   2.807052   4.750242   4.933170
     8  O    5.822323   3.825429   3.757006   2.830228   5.161202
     9  H    0.957201   3.771538   4.663402   4.732408   5.423736
    10  H    0.957200   3.402981   3.482749   3.523914   4.926970
    11  H    3.446179   0.957200   3.041532   4.456541   2.202889
    12  H    2.073880   0.957200   3.148196   3.753176   3.337698
    13  H    4.151837   2.978074   0.957200   4.130455   1.930011
    14  H    3.086456   2.032223   0.957200   2.810696   2.805559
    15  H    3.435486   3.708141   2.956539   0.957201   5.398723
    16  H    4.581306   4.481865   4.178131   0.957201   6.501118
    17  H    5.543619   3.603576   3.560460   6.278048   0.957201
    18  H    4.783664   3.631168   2.761438   5.841670   0.957201
    19  H    4.758145   4.974192   3.167851   6.171052   3.208080
    20  H    5.843918   5.599536   4.156650   7.341734   3.147731
    21  H    5.757738   6.238720   3.478120   4.894390   5.753146
    22  H    4.700661   4.775287   1.965631   3.935417   4.348805
    23  H    5.102034   3.522256   3.324395   1.873649   5.114538
    24  H    6.216269   4.273371   3.575890   3.230807   5.063586
                    6          7          8          9         10
     6  O    0.000000
     7  O    3.765049   0.000000
     8  O    6.699794   5.598070   0.000000
     9  H    5.806593   6.338418   6.706520   0.000000
    10  H    5.133079   4.966153   5.681566   1.513901   0.000000
    11  H    4.349670   5.798258   4.331324   4.219792   3.958989
    12  H    4.854287   5.756188   4.545410   2.837122   2.665955
    13  H    2.536585   3.167472   4.174056   5.054328   4.063329
    14  H    3.759065   3.665480   3.454122   4.041151   2.968970
    15  H    5.910191   4.192241   3.598316   4.169038   2.819302
    16  H    7.290277   5.356823   3.315498   5.227553   4.071515
    17  H    3.058060   5.575508   5.511330   6.312673   5.868376
    18  H    1.628340   4.428400   5.703822   5.535458   4.964043
    19  H    0.957200   3.368312   6.871481   5.350093   4.622892
    20  H    0.957200   4.524848   7.601138   6.413237   5.880696
    21  H    4.480070   0.957200   6.111804   6.423822   5.020552
    22  H    3.550031   0.957201   4.938733   5.488290   4.101365
    23  H    6.446199   5.131700   0.957201   5.967768   4.876204
    24  H    6.387939   5.082090   0.957201   7.137010   6.001912
                   11         12         13         14         15
    11  H    0.000000
    12  H    1.513901   0.000000
    13  H    2.803308   3.309265   0.000000
    14  H    2.360351   2.267058   1.513900   0.000000
    15  H    4.482959   3.640382   3.883100   2.594398   0.000000
    16  H    5.346063   4.551751   5.064068   3.760419   1.513901
    17  H    2.771137   4.099482   2.670088   3.631805   6.216455
    18  H    2.982208   3.861827   1.868673   3.043607   5.562146
    19  H    4.637804   4.844854   2.758783   3.728739   5.566890
    20  H    5.027238   5.587629   3.458324   4.682663   6.843211
    21  H    6.450636   6.215075   3.968794   4.230645   4.241836
    22  H    4.958537   4.829228   2.498973   2.757305   3.358113
    23  H    4.168581   4.087422   3.923572   2.954002   2.657502
    24  H    4.651680   5.003725   3.935249   3.522325   3.860369
                   16         17         18         19         20
    16  H    0.000000
    17  H    7.229930   0.000000
    18  H    6.791328   1.513901   0.000000
    19  H    7.016690   3.848056   2.342738   0.000000
    20  H    8.236866   3.444157   2.213793   1.513902   0.000000
    21  H    5.369976   6.448451   5.243779   3.931687   5.196905
    22  H    4.613183   5.078746   3.959972   3.156557   4.416771
    23  H    2.410128   5.617815   5.582101   6.491533   7.379727
    24  H    3.749468   5.362992   5.502205   6.591019   7.277571
                   21         22         23         24
    21  H    0.000000
    22  H    1.513900   0.000000
    23  H    5.547460   4.404152   0.000000
    24  H    5.645462   4.543712   1.513901   0.000000
 Symmetry turned off by external request.
 Stoichiometry    H16O8
 Framework group  C1[X(H16O8)]
 Deg. of freedom    66
 Full point group                 C1      NOp   1
 Rotational constants (GHZ):           0.7920155           0.5638909           0.5040280
 Leave Link  202 at Fri May 15 22:35:01 2020, MaxMem=   134217728 cpu:               0.0 elap:               0.0
 (Enter /home/soft/g16/l301.exe)
 Standard basis: 6-31G(d,p) (5D, 7F)
 Ernie: Thresh=  0.10000D-02 Tol=  0.10000D-05 Strict=F.
   192 basis functions,   336 primitive gaussians,   200 cartesian basis functions
    40 alpha electrons       40 beta electrons
       nuclear repulsion energy       447.3730865725 Hartrees.
 IExCor=    0 DFT=F Ex=HF Corr=None ExCW=0 ScaHFX=  1.000000
 ScaDFX=  1.000000  1.000000  1.000000  1.000000 ScalE2=  1.000000  1.000000
 IRadAn=      5 IRanWt=     -1 IRanGd=            0 ICorTp=0 IEmpDi=  4
 NAtoms=   24 NActive=   24 NUniq=   24 SFac= 1.00D+00 NAtFMM=   60 NAOKFM=F Big=F
 Integral buffers will be    131072 words long.
 Raffenetti 1 integral format.
 Two-electron integral symmetry is turned off.
 Background charge distribution read from rwf.
 PtFMM for NChg=        96 BoxLen=    40.00 Levels= 1 LMax=20 SMax=    22.2 ICnFMM=     1:
 Self energy of the charges =       -11.5849333111 a.u.
 MM   energy of the charges =         0.0000000000 a.u.
 Nuclei-charges interaction =         0.7561041084 a.u.
 Nuclear repulsion after external point charges =      436.5442573697 Hartrees.
 Leave Link  301 at Fri May 15 22:35:01 2020, MaxMem=   134217728 cpu:               0.2 elap:               0.1
 (Enter /home/soft/g16/l302.exe)
 NPDir=0 NMtPBC=     1 NCelOv=     1 NCel=       1 NClECP=     1 NCelD=      1
         NCelK=      1 NCelE2=     1 NClLst=     1 CellRange=     0.0.
 One-electron integrals computed using PRISM.
 NBasis=   192 RedAO= T EigKep=  1.99D-02  NBF=   192
 NBsUse=   192 1.00D-06 EigRej= -1.00D+00 NBFU=   192
 Leave Link  302 at Fri May 15 22:35:01 2020, MaxMem=   134217728 cpu:               0.6 elap:               0.2
 (Enter /home/soft/g16/l303.exe)
 DipDrv:  MaxL=1.
 Leave Link  303 at Fri May 15 22:35:01 2020, MaxMem=   134217728 cpu:               0.1 elap:               0.0
 (Enter /home/soft/g16/l401.exe)
 ExpMin= 1.61D-01 ExpMax= 5.48D+03 ExpMxC= 8.25D+02 IAcc=3 IRadAn=         5 AccDes= 0.00D+00
 Harris functional with IExCor=  205 and IRadAn=       5 diagonalized for initial guess.
 HarFok:  IExCor=  205 AccDes= 0.00D+00 IRadAn=         5 IDoV= 1 UseB2=F ITyADJ=14
 ICtDFT=  3500011 ScaDFX=  1.000000  1.000000  1.000000  1.000000
 FoFCou: FMM=F IPFlag=           0 FMFlag=      100000 FMFlg1=           0
         NFxFlg=           0 DoJE=T BraDBF=F KetDBF=T FulRan=T
         wScrn=  0.000000 ICntrl=       500 IOpCl=  0 I1Cent=   200000004 NGrid=           0
         NMat0=    1 NMatS0=      1 NMatT0=    0 NMatD0=    1 NMtDS0=    0 NMtDT0=    0
 Symmetry not used in FoFCou.
 Harris En= -620.590136481324    
 JPrj=0 DoOrth=F DoCkMO=F.
 Leave Link  401 at Fri May 15 22:35:02 2020, MaxMem=   134217728 cpu:               4.9 elap:               1.2
 (Enter /home/soft/g16/l502.exe)
 Two-electron integral symmetry not used.
 Closed shell SCF:
 Using DIIS extrapolation, IDIIS=  1040.
 NGot=   134217728 LenX=   134134708 LenY=   134094267
 Requested convergence on RMS density matrix=1.00D-08 within 128 cycles.
 Requested convergence on MAX density matrix=1.00D-06.
 Requested convergence on             energy=1.00D-06.
 No special actions if energy rises.
 Fock matrices will be formed incrementally for  20 cycles.
 Integral accuracy reduced to 1.0D-05 until final iterations.

 Cycle   1  Pass 0  IDiag  1:
 FoFJK:  IHMeth= 1 ICntrl=       0 DoSepK=F KAlg= 0 I1Cent=           0 FoldK=F
 IRaf= 820000000 NMat=       1 IRICut=       1 DoRegI=T DoRafI=F ISym2E= 0 IDoP0=0 IntGTp=1.
 FoFCou: FMM=F IPFlag=           0 FMFlag=      100000 FMFlg1=           0
         NFxFlg=           0 DoJE=F BraDBF=F KetDBF=F FulRan=T
         wScrn=  0.000000 ICntrl=         0 IOpCl=  0 I1Cent=           0 NGrid=           0
         NMat0=    1 NMatS0=      1 NMatT0=    0 NMatD0=    1 NMtDS0=    0 NMtDT0=    0
 Symmetry not used in FoFCou.
 E= -619.280991560603    
 DIIS: error= 4.32D-02 at cycle   1 NSaved=   1.
 NSaved= 1 IEnMin= 1 EnMin= -619.280991560603     IErMin= 1 ErrMin= 4.32D-02
 ErrMax= 4.32D-02  0.00D+00 EMaxC= 1.00D-01 BMatC= 8.87D-01 BMatP= 8.87D-01
 IDIUse=3 WtCom= 5.68D-01 WtEn= 4.32D-01
 Coeff-Com:  0.100D+01
 Coeff-En:   0.100D+01
 Coeff:      0.100D+01
 Gap=     0.581 Goal=   None    Shift=    0.000
 GapD=    0.581 DampG=2.000 DampE=0.500 DampFc=1.0000 IDamp=-1.
 RMSDP=4.02D-03 MaxDP=1.21D-01              OVMax= 1.19D-01

 Cycle   2  Pass 0  IDiag  1:
 RMSU=  3.94D-03    CP:  9.67D-01
 E= -619.691469387580     Delta-E=       -0.410477826977 Rises=F Damp=F
 DIIS: error= 2.32D-02 at cycle   2 NSaved=   2.
 NSaved= 2 IEnMin= 2 EnMin= -619.691469387580     IErMin= 2 ErrMin= 2.32D-02
 ErrMax= 2.32D-02  0.00D+00 EMaxC= 1.00D-01 BMatC= 2.56D-01 BMatP= 8.87D-01
 IDIUse=3 WtCom= 7.68D-01 WtEn= 2.32D-01
 Coeff-Com:  0.336D+00 0.664D+00
 Coeff-En:   0.567D-01 0.943D+00
 Coeff:      0.271D+00 0.729D+00
 Gap=     0.619 Goal=   None    Shift=    0.000
 RMSDP=1.77D-03 MaxDP=5.21D-02 DE=-4.10D-01 OVMax= 4.41D-02

 Cycle   3  Pass 0  IDiag  1:
 RMSU=  6.48D-04    CP:  9.80D-01  5.89D-01
 E= -619.862720165899     Delta-E=       -0.171250778320 Rises=F Damp=F
 DIIS: error= 4.37D-03 at cycle   3 NSaved=   3.
 NSaved= 3 IEnMin= 3 EnMin= -619.862720165899     IErMin= 3 ErrMin= 4.37D-03
 ErrMax= 4.37D-03  0.00D+00 EMaxC= 1.00D-01 BMatC= 5.67D-03 BMatP= 2.56D-01
 IDIUse=3 WtCom= 9.56D-01 WtEn= 4.37D-02
 Coeff-Com: -0.322D-01 0.820D-01 0.950D+00
 Coeff-En:   0.000D+00 0.000D+00 0.100D+01
 Coeff:     -0.308D-01 0.784D-01 0.952D+00
 Gap=     0.608 Goal=   None    Shift=    0.000
 RMSDP=2.44D-04 MaxDP=7.72D-03 DE=-1.71D-01 OVMax= 8.64D-03

 Cycle   4  Pass 0  IDiag  1:
 RMSU=  8.40D-05    CP:  9.78D-01  6.43D-01  1.11D+00
 E= -619.867224546890     Delta-E=       -0.004504380990 Rises=F Damp=F
 DIIS: error= 4.05D-04 at cycle   4 NSaved=   4.
 NSaved= 4 IEnMin= 4 EnMin= -619.867224546890     IErMin= 4 ErrMin= 4.05D-04
 ErrMax= 4.05D-04  0.00D+00 EMaxC= 1.00D-01 BMatC= 5.89D-05 BMatP= 5.67D-03
 IDIUse=3 WtCom= 9.96D-01 WtEn= 4.05D-03
 Coeff-Com:  0.452D-02-0.332D-01-0.240D+00 0.127D+01
 Coeff-En:   0.000D+00 0.000D+00 0.000D+00 0.100D+01
 Coeff:      0.450D-02-0.331D-01-0.239D+00 0.127D+01
 Gap=     0.610 Goal=   None    Shift=    0.000
 RMSDP=6.54D-05 MaxDP=1.38D-03 DE=-4.50D-03 OVMax= 2.07D-03

 Cycle   5  Pass 0  IDiag  1:
 RMSU=  2.79D-05    CP:  9.79D-01  6.43D-01  1.18D+00  1.45D+00
 E= -619.867334146344     Delta-E=       -0.000109599454 Rises=F Damp=F
 DIIS: error= 1.52D-04 at cycle   5 NSaved=   5.
 NSaved= 5 IEnMin= 5 EnMin= -619.867334146344     IErMin= 5 ErrMin= 1.52D-04
 ErrMax= 1.52D-04  0.00D+00 EMaxC= 1.00D-01 BMatC= 6.75D-06 BMatP= 5.89D-05
 IDIUse=3 WtCom= 9.98D-01 WtEn= 1.52D-03
 Coeff-Com:  0.311D-02-0.138D-01-0.118D+00 0.321D+00 0.807D+00
 Coeff-En:   0.000D+00 0.000D+00 0.000D+00 0.000D+00 0.100D+01
 Coeff:      0.310D-02-0.138D-01-0.118D+00 0.321D+00 0.808D+00
 Gap=     0.611 Goal=   None    Shift=    0.000
 RMSDP=1.49D-05 MaxDP=4.92D-04 DE=-1.10D-04 OVMax= 5.19D-04

 Cycle   6  Pass 0  IDiag  1:
 RMSU=  8.00D-06    CP:  9.79D-01  6.43D-01  1.18D+00  1.58D+00  1.00D+00
 E= -619.867342215769     Delta-E=       -0.000008069424 Rises=F Damp=F
 DIIS: error= 3.51D-05 at cycle   6 NSaved=   6.
 NSaved= 6 IEnMin= 6 EnMin= -619.867342215769     IErMin= 6 ErrMin= 3.51D-05
 ErrMax= 3.51D-05  0.00D+00 EMaxC= 1.00D-01 BMatC= 4.02D-07 BMatP= 6.75D-06
 IDIUse=1 WtCom= 1.00D+00 WtEn= 0.00D+00
 Coeff-Com: -0.371D-03 0.288D-02 0.226D-01-0.127D+00-0.111D-01 0.111D+01
 Coeff:     -0.371D-03 0.288D-02 0.226D-01-0.127D+00-0.111D-01 0.111D+01
 Gap=     0.611 Goal=   None    Shift=    0.000
 RMSDP=6.17D-06 MaxDP=1.71D-04 DE=-8.07D-06 OVMax= 2.19D-04

 Initial convergence to 1.0D-05 achieved.  Increase integral accuracy.
 Cycle   7  Pass 1  IDiag  1:
 E= -619.867345777073     Delta-E=       -0.000003561305 Rises=F Damp=F
 DIIS: error= 6.49D-06 at cycle   1 NSaved=   1.
 NSaved= 1 IEnMin= 1 EnMin= -619.867345777073     IErMin= 1 ErrMin= 6.49D-06
 ErrMax= 6.49D-06  0.00D+00 EMaxC= 1.00D-01 BMatC= 1.64D-08 BMatP= 1.64D-08
 IDIUse=1 WtCom= 1.00D+00 WtEn= 0.00D+00
 Coeff-Com:  0.100D+01
 Coeff:      0.100D+01
 Gap=     0.611 Goal=   None    Shift=    0.000
 RMSDP=6.17D-06 MaxDP=1.71D-04 DE=-3.56D-06 OVMax= 3.05D-05

 Cycle   8  Pass 1  IDiag  1:
 RMSU=  1.06D-06    CP:  1.00D+00
 E= -619.867345804187     Delta-E=       -0.000000027114 Rises=F Damp=F
 DIIS: error= 2.14D-06 at cycle   2 NSaved=   2.
 NSaved= 2 IEnMin= 2 EnMin= -619.867345804187     IErMin= 2 ErrMin= 2.14D-06
 ErrMax= 2.14D-06  0.00D+00 EMaxC= 1.00D-01 BMatC= 2.26D-09 BMatP= 1.64D-08
 IDIUse=1 WtCom= 1.00D+00 WtEn= 0.00D+00
 Coeff-Com: -0.118D+00 0.112D+01
 Coeff:     -0.118D+00 0.112D+01
 Gap=     0.611 Goal=   None    Shift=    0.000
 RMSDP=3.94D-07 MaxDP=1.21D-05 DE=-2.71D-08 OVMax= 1.62D-05

 Cycle   9  Pass 1  IDiag  1:
 RMSU=  2.55D-07    CP:  1.00D+00  1.28D+00
 E= -619.867345808787     Delta-E=       -0.000000004600 Rises=F Damp=F
 DIIS: error= 1.31D-06 at cycle   3 NSaved=   3.
 NSaved= 3 IEnMin= 3 EnMin= -619.867345808787     IErMin= 3 ErrMin= 1.31D-06
 ErrMax= 1.31D-06  0.00D+00 EMaxC= 1.00D-01 BMatC= 5.25D-10 BMatP= 2.26D-09
 IDIUse=1 WtCom= 1.00D+00 WtEn= 0.00D+00
 Coeff-Com: -0.158D+00 0.216D+00 0.942D+00
 Coeff:     -0.158D+00 0.216D+00 0.942D+00
 Gap=     0.611 Goal=   None    Shift=    0.000
 RMSDP=1.79D-07 MaxDP=5.24D-06 DE=-4.60D-09 OVMax= 6.86D-06

 Cycle  10  Pass 1  IDiag  1:
 RMSU=  9.45D-08    CP:  1.00D+00  1.41D+00  1.24D+00
 E= -619.867345809644     Delta-E=       -0.000000000857 Rises=F Damp=F
 DIIS: error= 2.35D-07 at cycle   4 NSaved=   4.
 NSaved= 4 IEnMin= 4 EnMin= -619.867345809644     IErMin= 4 ErrMin= 2.35D-07
 ErrMax= 2.35D-07  0.00D+00 EMaxC= 1.00D-01 BMatC= 2.76D-11 BMatP= 5.25D-10
 IDIUse=1 WtCom= 1.00D+00 WtEn= 0.00D+00
 Coeff-Com:  0.102D-01-0.121D+00 0.218D-01 0.109D+01
 Coeff:      0.102D-01-0.121D+00 0.218D-01 0.109D+01
 Gap=     0.611 Goal=   None    Shift=    0.000
 RMSDP=5.50D-08 MaxDP=1.53D-06 DE=-8.57D-10 OVMax= 2.31D-06

 Cycle  11  Pass 1  IDiag  1:
 RMSU=  1.29D-08    CP:  1.00D+00  1.44D+00  1.40D+00  1.16D+00
 E= -619.867345809713     Delta-E=       -0.000000000069 Rises=F Damp=F
 DIIS: error= 4.47D-08 at cycle   5 NSaved=   5.
 NSaved= 5 IEnMin= 5 EnMin= -619.867345809713     IErMin= 5 ErrMin= 4.47D-08
 ErrMax= 4.47D-08  0.00D+00 EMaxC= 1.00D-01 BMatC= 5.79D-13 BMatP= 2.76D-11
 IDIUse=1 WtCom= 1.00D+00 WtEn= 0.00D+00
 Coeff-Com:  0.323D-02 0.617D-02-0.271D-01-0.109D+00 0.113D+01
 Coeff:      0.323D-02 0.617D-02-0.271D-01-0.109D+00 0.113D+01
 Gap=     0.611 Goal=   None    Shift=    0.000
 RMSDP=7.27D-09 MaxDP=1.65D-07 DE=-6.93D-11 OVMax= 2.87D-07

 SCF Done:  E(RHF) =  -619.867345810     A.U. after   11 cycles
            NFock= 11  Conv=0.73D-08     -V/T= 2.0205
 KE= 6.073957706645D+02 PE=-2.341840029672D+03 EE= 6.780326558285D+02
 Leave Link  502 at Fri May 15 22:35:06 2020, MaxMem=   134217728 cpu:              12.7 elap:               3.2
 (Enter /home/soft/g16/l601.exe)
 Copying SCF densities to generalized density rwf, IOpCl= 0 IROHF=0.

 **********************************************************************

            Population analysis using the SCF density.

 **********************************************************************

 Alpha  occ. eigenvalues --  -20.61462 -20.59939 -20.54782 -20.54670 -20.53509
 Alpha  occ. eigenvalues --  -20.52869 -20.51706 -20.50713  -1.39808  -1.38838
 Alpha  occ. eigenvalues --   -1.34042  -1.33103  -1.32059  -1.31543  -1.30095
 Alpha  occ. eigenvalues --   -1.29282  -0.75771  -0.74572  -0.73319  -0.69522
 Alpha  occ. eigenvalues --   -0.68661  -0.68486  -0.67826  -0.66545  -0.61994
 Alpha  occ. eigenvalues --   -0.61475  -0.57942  -0.56885  -0.56002  -0.55289
 Alpha  occ. eigenvalues --   -0.54426  -0.53630  -0.52819  -0.51802  -0.49301
 Alpha  occ. eigenvalues --   -0.48757  -0.47292  -0.47074  -0.46174  -0.44961
 Alpha virt. eigenvalues --    0.16181   0.18466   0.23143   0.23692   0.25023
 Alpha virt. eigenvalues --    0.28030   0.28410   0.29023   0.32047   0.36253
 Alpha virt. eigenvalues --    0.39453   0.41714   0.42658   0.43997   0.46457
 Alpha virt. eigenvalues --    0.49763   0.90684   0.95745   0.97826   1.01338
 Alpha virt. eigenvalues --    1.02317   1.03473   1.04136   1.05242   1.05767
 Alpha virt. eigenvalues --    1.08409   1.09136   1.09742   1.10494   1.12096
 Alpha virt. eigenvalues --    1.12640   1.13314   1.13686   1.15303   1.16602
 Alpha virt. eigenvalues --    1.17395   1.20521   1.20979   1.21426   1.22696
 Alpha virt. eigenvalues --    1.23671   1.24866   1.25208   1.27843   1.28753
 Alpha virt. eigenvalues --    1.30109   1.31215   1.33218   1.34675   1.35886
 Alpha virt. eigenvalues --    1.37576   1.39163   1.41538   1.42081   1.47765
 Alpha virt. eigenvalues --    1.53533   1.56847   1.60781   1.64531   1.68232
 Alpha virt. eigenvalues --    1.73246   1.75183   1.75579   1.76464   1.78209
 Alpha virt. eigenvalues --    1.79665   1.80548   1.81804   1.83044   1.83087
 Alpha virt. eigenvalues --    1.84495   1.85212   1.85643   1.85899   1.86456
 Alpha virt. eigenvalues --    1.87995   1.88826   1.91425   1.92049   1.93777
 Alpha virt. eigenvalues --    1.95256   1.97152   1.97324   1.98514   2.00349
 Alpha virt. eigenvalues --    2.01446   2.02593   2.11299   2.51356   2.52488
 Alpha virt. eigenvalues --    2.54334   2.55487   2.59534   2.60738   2.60930
 Alpha virt. eigenvalues --    2.61246   2.63162   2.63245   2.64980   2.67866
 Alpha virt. eigenvalues --    2.68626   2.71062   2.73208   2.73447   2.77306
 Alpha virt. eigenvalues --    2.77781   2.83692   2.84356   2.85587   2.88498
 Alpha virt. eigenvalues --    2.90576   2.90924   2.92626   2.94149   2.96682
 Alpha virt. eigenvalues --    2.97830   2.99827   3.00218   3.01012   3.01917
 Alpha virt. eigenvalues --    3.02655   3.02902   3.03631   3.04444   3.05245
 Alpha virt. eigenvalues --    3.05435   3.07989   3.14637   3.34211   3.35007
 Alpha virt. eigenvalues --    3.40720   3.41644   3.41881   3.43093   3.43680
 Alpha virt. eigenvalues --    3.52055   3.72400   3.73172   3.79227   3.79971
 Alpha virt. eigenvalues --    3.80749   3.82260   3.84121   3.86812   3.89360
 Alpha virt. eigenvalues --    3.93521   3.95993   3.98129   4.01028   4.03381
 Alpha virt. eigenvalues --    4.09214   4.13787
          Condensed to atoms (all electrons):
               1          2          3          4          5          6
     1  O    8.132812  -0.007041  -0.000136  -0.000059  -0.000001  -0.000000
     2  O   -0.007041   8.132985  -0.010357   0.000012  -0.004997  -0.000002
     3  O   -0.000136  -0.010357   8.164206  -0.000194  -0.012782  -0.000412
     4  O   -0.000059   0.000012  -0.000194   8.092990  -0.000000  -0.000000
     5  O   -0.000001  -0.004997  -0.012782  -0.000000   8.157226  -0.030116
     6  O   -0.000000  -0.000002  -0.000412  -0.000000  -0.030116   8.087493
     7  O   -0.000000  -0.000000  -0.012276  -0.000002  -0.000000  -0.000113
     8  O    0.000000  -0.000030  -0.000197  -0.010066  -0.000000   0.000000
     9  H    0.314258   0.000188   0.000002   0.000000   0.000000   0.000000
    10  H    0.310810   0.000340   0.000436   0.000201   0.000000  -0.000000
    11  H    0.000126   0.312829   0.000770   0.000007   0.013379   0.000017
    12  H    0.021013   0.303355   0.000728   0.000076   0.000264   0.000000
    13  H   -0.000000   0.000050   0.311448   0.000025   0.024779   0.001491
    14  H    0.001051   0.030980   0.305949   0.000928  -0.000120   0.000059
    15  H    0.000451  -0.000014   0.001416   0.311020   0.000000   0.000000
    16  H   -0.000001   0.000007   0.000026   0.303274   0.000000   0.000000
    17  H   -0.000000   0.000273   0.000496  -0.000000   0.306923   0.001725
    18  H    0.000002   0.000315   0.001134  -0.000000   0.298511   0.016526
    19  H    0.000002   0.000001   0.001347  -0.000000   0.001081   0.310421
    20  H   -0.000000   0.000000   0.000045   0.000000   0.001164   0.310567
    21  H    0.000000   0.000000   0.000342  -0.000001   0.000000   0.000005
    22  H   -0.000001   0.000004   0.025363   0.000047   0.000010   0.000126
    23  H   -0.000000   0.000426   0.000816   0.010040   0.000000   0.000000
    24  H    0.000000  -0.000002   0.000379   0.000809   0.000000  -0.000000
               7          8          9         10         11         12
     1  O   -0.000000   0.000000   0.314258   0.310810   0.000126   0.021013
     2  O   -0.000000  -0.000030   0.000188   0.000340   0.312829   0.303355
     3  O   -0.012276  -0.000197   0.000002   0.000436   0.000770   0.000728
     4  O   -0.000002  -0.010066   0.000000   0.000201   0.000007   0.000076
     5  O   -0.000000  -0.000000   0.000000   0.000000   0.013379   0.000264
     6  O   -0.000113   0.000000   0.000000  -0.000000   0.000017   0.000000
     7  O    8.119756  -0.000000  -0.000000  -0.000000   0.000000   0.000000
     8  O   -0.000000   8.118758  -0.000000  -0.000000   0.000013   0.000004
     9  H   -0.000000  -0.000000   0.310607  -0.018552  -0.000008  -0.000662
    10  H   -0.000000  -0.000000  -0.018552   0.304144   0.000001  -0.001211
    11  H    0.000000   0.000013  -0.000008   0.000001   0.314663  -0.020470
    12  H    0.000000   0.000004  -0.000662  -0.001211  -0.020470   0.326863
    13  H    0.000540   0.000009   0.000000  -0.000012   0.000020   0.000075
    14  H    0.000156   0.000628  -0.000017   0.000045  -0.002080  -0.001962
    15  H    0.000006   0.000339  -0.000010   0.000223  -0.000001   0.000026
    16  H   -0.000000   0.000692   0.000000  -0.000001  -0.000000  -0.000002
    17  H    0.000000  -0.000000   0.000000  -0.000000  -0.000762  -0.000009
    18  H   -0.000010  -0.000000  -0.000000   0.000000  -0.000296  -0.000016
    19  H    0.001227   0.000000  -0.000000   0.000002  -0.000003  -0.000000
    20  H   -0.000003   0.000000   0.000000   0.000000  -0.000001  -0.000000
    21  H    0.302882   0.000000  -0.000000   0.000000  -0.000000  -0.000000
    22  H    0.300843  -0.000000   0.000000   0.000009  -0.000000  -0.000001
    23  H   -0.000000   0.312501   0.000000  -0.000001  -0.000010  -0.000020
    24  H    0.000000   0.313207  -0.000000  -0.000000  -0.000000  -0.000000
              13         14         15         16         17         18
     1  O   -0.000000   0.001051   0.000451  -0.000001  -0.000000   0.000002
     2  O    0.000050   0.030980  -0.000014   0.000007   0.000273   0.000315
     3  O    0.311448   0.305949   0.001416   0.000026   0.000496   0.001134
     4  O    0.000025   0.000928   0.311020   0.303274  -0.000000  -0.000000
     5  O    0.024779  -0.000120   0.000000   0.000000   0.306923   0.298511
     6  O    0.001491   0.000059   0.000000   0.000000   0.001725   0.016526
     7  O    0.000540   0.000156   0.000006  -0.000000   0.000000  -0.000010
     8  O    0.000009   0.000628   0.000339   0.000692  -0.000000  -0.000000
     9  H    0.000000  -0.000017  -0.000010   0.000000   0.000000  -0.000000
    10  H   -0.000012   0.000045   0.000223  -0.000001  -0.000000   0.000000
    11  H    0.000020  -0.002080  -0.000001  -0.000000  -0.000762  -0.000296
    12  H    0.000075  -0.001962   0.000026  -0.000002  -0.000009  -0.000016
    13  H    0.313141  -0.027246  -0.000031  -0.000001  -0.000542  -0.002751
    14  H   -0.027246   0.318069  -0.000784  -0.000007   0.000026   0.000238
    15  H   -0.000031  -0.000784   0.320365  -0.020763  -0.000000  -0.000000
    16  H   -0.000001  -0.000007  -0.020763   0.381790  -0.000000  -0.000000
    17  H   -0.000542   0.000026  -0.000000  -0.000000   0.383819  -0.019120
    18  H   -0.002751   0.000238  -0.000000  -0.000000  -0.019120   0.275246
    19  H   -0.000677   0.000009  -0.000000  -0.000000  -0.000027  -0.001011
    20  H    0.000035  -0.000003  -0.000000  -0.000000  -0.000065  -0.002045
    21  H   -0.000016  -0.000016   0.000008  -0.000000  -0.000000   0.000000
    22  H   -0.001865  -0.000702   0.000144  -0.000001  -0.000001   0.000005
    23  H    0.000007   0.000069  -0.000085  -0.001421  -0.000000  -0.000000
    24  H    0.000008   0.000007  -0.000032  -0.000009  -0.000000  -0.000000
              19         20         21         22         23         24
     1  O    0.000002  -0.000000   0.000000  -0.000001  -0.000000   0.000000
     2  O    0.000001   0.000000   0.000000   0.000004   0.000426  -0.000002
     3  O    0.001347   0.000045   0.000342   0.025363   0.000816   0.000379
     4  O   -0.000000   0.000000  -0.000001   0.000047   0.010040   0.000809
     5  O    0.001081   0.001164   0.000000   0.000010   0.000000   0.000000
     6  O    0.310421   0.310567   0.000005   0.000126   0.000000  -0.000000
     7  O    0.001227  -0.000003   0.302882   0.300843  -0.000000   0.000000
     8  O    0.000000   0.000000   0.000000  -0.000000   0.312501   0.313207
     9  H   -0.000000   0.000000  -0.000000   0.000000   0.000000  -0.000000
    10  H    0.000002   0.000000   0.000000   0.000009  -0.000001  -0.000000
    11  H   -0.000003  -0.000001  -0.000000  -0.000000  -0.000010  -0.000000
    12  H   -0.000000  -0.000000  -0.000000  -0.000001  -0.000020  -0.000000
    13  H   -0.000677   0.000035  -0.000016  -0.001865   0.000007   0.000008
    14  H    0.000009  -0.000003  -0.000016  -0.000702   0.000069   0.000007
    15  H   -0.000000  -0.000000   0.000008   0.000144  -0.000085  -0.000032
    16  H   -0.000000  -0.000000  -0.000000  -0.000001  -0.001421  -0.000009
    17  H   -0.000027  -0.000065  -0.000000  -0.000001  -0.000000  -0.000000
    18  H   -0.001011  -0.002045   0.000000   0.000005  -0.000000  -0.000000
    19  H    0.346493  -0.020161  -0.000025   0.000023  -0.000000  -0.000000
    20  H   -0.020161   0.343165  -0.000000  -0.000003  -0.000000  -0.000000
    21  H   -0.000025  -0.000000   0.415598  -0.023887  -0.000000   0.000000
    22  H    0.000023  -0.000003  -0.023887   0.322318  -0.000001   0.000000
    23  H   -0.000000  -0.000000  -0.000000  -0.000001   0.316998  -0.027927
    24  H   -0.000000  -0.000000   0.000000   0.000000  -0.027927   0.383654
 Mulliken charges:
               1
     1  O   -0.773282
     2  O   -0.759322
     3  O   -0.778549
     4  O   -0.709107
     5  O   -0.755322
     6  O   -0.697788
     7  O   -0.713007
     8  O   -0.735858
     9  H    0.394195
    10  H    0.403568
    11  H    0.381809
    12  H    0.371952
    13  H    0.381513
    14  H    0.374721
    15  H    0.387722
    16  H    0.336419
    17  H    0.327264
    18  H    0.433272
    19  H    0.361300
    20  H    0.367306
    21  H    0.305110
    22  H    0.377570
    23  H    0.388609
    24  H    0.329906
 Sum of Mulliken charges =  -0.00000
 Mulliken charges with hydrogens summed into heavy atoms:
               1
     1  O    0.024480
     2  O   -0.005561
     3  O   -0.022316
     4  O    0.015034
     5  O    0.005215
     6  O    0.030818
     7  O   -0.030327
     8  O   -0.017344
 Electronic spatial extent (au):  <R**2>=         106640.1645
 Charge=              0.0000 electrons
 Dipole moment (field-independent basis, Debye):
    X=              4.0479    Y=             -9.5077    Z=              2.4672  Tot=             10.6239
 Quadrupole moment (field-independent basis, Debye-Ang):
   XX=             16.4163   YY=            142.8795   ZZ=            -80.5812
   XY=           -124.7450   XZ=            -18.9640   YZ=            105.6344
 Traceless Quadrupole moment (field-independent basis, Debye-Ang):
   XX=             -9.8219   YY=            116.6413   ZZ=           -106.8194
   XY=           -124.7450   XZ=            -18.9640   YZ=            105.6344
 Octapole moment (field-independent basis, Debye-Ang**2):
  XXX=           -621.6526  YYY=          -1566.3477  ZZZ=           1925.2026  XYY=           1688.7833
  XXY=           -960.0634  XXZ=            240.8616  XZZ=           -352.1157  YZZ=          -1025.1339
  YYZ=          -1733.8019  XYZ=           1376.7609
 Hexadecapole moment (field-independent basis, Debye-Ang**3):
 XXXX=         -19509.5833 YYYY=          13859.0170 ZZZZ=         -40586.5778 XXXY=          -1760.6132
 XXXZ=          14238.5207 YYYX=         -18390.8777 YYYZ=          19453.2804 ZZZX=          14895.9797
 ZZZY=           6976.5129 XXYY=          13861.5726 XXZZ=         -10908.2899 YYZZ=          20173.6467
 XXYZ=           9044.9220 YYXZ=         -20352.8490 ZZXY=         -13582.8737
 N-N= 4.365442573697D+02 E-N=-2.341840024026D+03  KE= 6.073957706645D+02
 No NMR shielding tensors so no spin-rotation constants.
 Leave Link  601 at Fri May 15 22:35:06 2020, MaxMem=   134217728 cpu:               0.6 elap:               0.2
 (Enter /home/soft/g16/l607.exe)
 ******************************Gaussian NBO Version 3.1******************************
             N A T U R A L   A T O M I C   O R B I T A L   A N D
          N A T U R A L   B O N D   O R B I T A L   A N A L Y S I S
 ******************************Gaussian NBO Version 3.1******************************
       /RESON  / : Allow strongly delocalized NBO set

 Analyzing the SCF density

 Job title: Atom number=24                                                  

 Storage needed:    112536 in NPA ( 134214704 available)
 GSVD:  LWork=       17664 too small for GESVD, short by       19872 words or       19872 for optimal perf.


 NATURAL POPULATIONS:  Natural atomic orbital occupancies 
                                                          
   NAO  Atom  No  lang   Type(AO)    Occupancy      Energy
 ----------------------------------------------------------
     1    O    1  S      Cor( 1S)     1.99986     -20.38440
     2    O    1  S      Val( 2S)     1.75863      -1.15412
     3    O    1  S      Ryd( 3S)     0.00085       1.72776
     4    O    1  px     Val( 2p)     1.68733      -0.38585
     5    O    1  px     Ryd( 3p)     0.00151       1.31825
     6    O    1  py     Val( 2p)     1.75011      -0.40785
     7    O    1  py     Ryd( 3p)     0.00142       1.28876
     8    O    1  pz     Val( 2p)     1.84764      -0.44442
     9    O    1  pz     Ryd( 3p)     0.00047       1.27169
    10    O    1  dxy    Ryd( 3d)     0.00054       2.55601
    11    O    1  dxz    Ryd( 3d)     0.00128       2.52322
    12    O    1  dyz    Ryd( 3d)     0.00143       2.72384
    13    O    1  dx2y2  Ryd( 3d)     0.00083       2.68978
    14    O    1  dz2    Ryd( 3d)     0.00132       2.36554

    15    O    2  S      Cor( 1S)     1.99985     -20.36187
    16    O    2  S      Val( 2S)     1.74828      -1.14474
    17    O    2  S      Ryd( 3S)     0.00088       1.91389
    18    O    2  px     Val( 2p)     1.97190      -0.46610
    19    O    2  px     Ryd( 3p)     0.00085       1.31860
    20    O    2  py     Val( 2p)     1.75277      -0.40925
    21    O    2  py     Ryd( 3p)     0.00037       1.24643
    22    O    2  pz     Val( 2p)     1.55491      -0.33513
    23    O    2  pz     Ryd( 3p)     0.00175       1.34429
    24    O    2  dxy    Ryd( 3d)     0.00145       2.26868
    25    O    2  dxz    Ryd( 3d)     0.00012       2.33409
    26    O    2  dyz    Ryd( 3d)     0.00168       3.05295
    27    O    2  dx2y2  Ryd( 3d)     0.00184       2.53426
    28    O    2  dz2    Ryd( 3d)     0.00051       2.75164

    29    O    3  S      Cor( 1S)     1.99983     -20.33845
    30    O    3  S      Val( 2S)     1.73473      -1.12486
    31    O    3  S      Ryd( 3S)     0.00060       2.01478
    32    O    3  px     Val( 2p)     1.75376      -0.39514
    33    O    3  px     Ryd( 3p)     0.00075       1.43864
    34    O    3  py     Val( 2p)     1.96879      -0.45237
    35    O    3  py     Ryd( 3p)     0.00053       1.22061
    36    O    3  pz     Val( 2p)     1.58553      -0.32997
    37    O    3  pz     Ryd( 3p)     0.00179       1.42767
    38    O    3  dxy    Ryd( 3d)     0.00126       2.30205
    39    O    3  dxz    Ryd( 3d)     0.00116       2.93286
    40    O    3  dyz    Ryd( 3d)     0.00043       2.45938
    41    O    3  dx2y2  Ryd( 3d)     0.00145       2.58918
    42    O    3  dz2    Ryd( 3d)     0.00060       2.79859

    43    O    4  S      Cor( 1S)     1.99986     -20.45215
    44    O    4  S      Val( 2S)     1.75568      -1.21365
    45    O    4  S      Ryd( 3S)     0.00119       1.67516
    46    O    4  px     Val( 2p)     1.88949      -0.52131
    47    O    4  px     Ryd( 3p)     0.00059       1.16452
    48    O    4  py     Val( 2p)     1.64171      -0.43281
    49    O    4  py     Ryd( 3p)     0.00196       1.30850
    50    O    4  pz     Val( 2p)     1.70034      -0.45550
    51    O    4  pz     Ryd( 3p)     0.00133       1.31182
    52    O    4  dxy    Ryd( 3d)     0.00098       2.65149
    53    O    4  dxz    Ryd( 3d)     0.00159       2.29137
    54    O    4  dyz    Ryd( 3d)     0.00107       2.62892
    55    O    4  dx2y2  Ryd( 3d)     0.00052       2.32381
    56    O    4  dz2    Ryd( 3d)     0.00172       2.67025

    57    O    5  S      Cor( 1S)     1.99982     -20.36660
    58    O    5  S      Val( 2S)     1.74004      -1.15945
    59    O    5  S      Ryd( 3S)     0.00088       1.99447
    60    O    5  px     Val( 2p)     1.72521      -0.41616
    61    O    5  px     Ryd( 3p)     0.00135       1.34699
    62    O    5  py     Val( 2p)     1.88432      -0.45450
    63    O    5  py     Ryd( 3p)     0.00106       1.27671
    64    O    5  pz     Val( 2p)     1.67594      -0.39287
    65    O    5  pz     Ryd( 3p)     0.00068       1.36600
    66    O    5  dxy    Ryd( 3d)     0.00073       2.68809
    67    O    5  dxz    Ryd( 3d)     0.00133       2.58766
    68    O    5  dyz    Ryd( 3d)     0.00128       2.40089
    69    O    5  dx2y2  Ryd( 3d)     0.00047       2.40228
    70    O    5  dz2    Ryd( 3d)     0.00180       2.85964

    71    O    6  S      Cor( 1S)     1.99986     -20.43779
    72    O    6  S      Val( 2S)     1.74701      -1.19682
    73    O    6  S      Ryd( 3S)     0.00120       1.72884
    74    O    6  px     Val( 2p)     1.89345      -0.50608
    75    O    6  px     Ryd( 3p)     0.00121       1.32393
    76    O    6  py     Val( 2p)     1.77745      -0.47335
    77    O    6  py     Ryd( 3p)     0.00069       1.27266
    78    O    6  pz     Val( 2p)     1.55970      -0.39418
    79    O    6  pz     Ryd( 3p)     0.00206       1.28220
    80    O    6  dxy    Ryd( 3d)     0.00127       2.33788
    81    O    6  dxz    Ryd( 3d)     0.00045       2.55762
    82    O    6  dyz    Ryd( 3d)     0.00144       2.90898
    83    O    6  dx2y2  Ryd( 3d)     0.00158       2.37203
    84    O    6  dz2    Ryd( 3d)     0.00019       2.52196

    85    O    7  S      Cor( 1S)     1.99984     -20.35737
    86    O    7  S      Val( 2S)     1.75134      -1.12915
    87    O    7  S      Ryd( 3S)     0.00122       1.82868
    88    O    7  px     Val( 2p)     1.52329      -0.31010
    89    O    7  px     Ryd( 3p)     0.00230       1.33962
    90    O    7  py     Val( 2p)     1.98344      -0.46198
    91    O    7  py     Ryd( 3p)     0.00073       1.19767
    92    O    7  pz     Val( 2p)     1.72267      -0.38591
    93    O    7  pz     Ryd( 3p)     0.00043       1.24266
    94    O    7  dxy    Ryd( 3d)     0.00014       2.34130
    95    O    7  dxz    Ryd( 3d)     0.00187       3.08645
    96    O    7  dyz    Ryd( 3d)     0.00199       2.29549
    97    O    7  dx2y2  Ryd( 3d)     0.00052       2.72410
    98    O    7  dz2    Ryd( 3d)     0.00212       2.51391

    99    O    8  S      Cor( 1S)     1.99984     -20.33581
   100    O    8  S      Val( 2S)     1.74691      -1.10629
   101    O    8  S      Ryd( 3S)     0.00081       1.97430
   102    O    8  px     Val( 2p)     1.74276      -0.37236
   103    O    8  px     Ryd( 3p)     0.00039       1.25421
   104    O    8  py     Val( 2p)     1.85542      -0.40122
   105    O    8  py     Ryd( 3p)     0.00100       1.26067
   106    O    8  pz     Val( 2p)     1.64640      -0.32856
   107    O    8  pz     Ryd( 3p)     0.00175       1.34272
   108    O    8  dxy    Ryd( 3d)     0.00183       2.46598
   109    O    8  dxz    Ryd( 3d)     0.00169       2.92454
   110    O    8  dyz    Ryd( 3d)     0.00060       2.73777
   111    O    8  dx2y2  Ryd( 3d)     0.00182       2.53066
   112    O    8  dz2    Ryd( 3d)     0.00038       2.42683

   113    H    9  S      Val( 1S)     0.46649       0.40452
   114    H    9  S      Ryd( 2S)     0.00048       0.74907
   115    H    9  px     Ryd( 2p)     0.00054       2.74404
   116    H    9  py     Ryd( 2p)     0.00133       3.09227
   117    H    9  pz     Ryd( 2p)     0.00108       2.93126

   118    H   10  S      Val( 1S)     0.46227       0.41495
   119    H   10  S      Ryd( 2S)     0.00070       0.78917
   120    H   10  px     Ryd( 2p)     0.00158       3.29978
   121    H   10  py     Ryd( 2p)     0.00070       2.76613
   122    H   10  pz     Ryd( 2p)     0.00077       2.73857

   123    H   11  S      Val( 1S)     0.47261       0.39761
   124    H   11  S      Ryd( 2S)     0.00059       0.86255
   125    H   11  px     Ryd( 2p)     0.00077       2.69340
   126    H   11  py     Ryd( 2p)     0.00075       2.79783
   127    H   11  pz     Ryd( 2p)     0.00143       3.33452

   128    H   12  S      Val( 1S)     0.48296       0.38384
   129    H   12  S      Ryd( 2S)     0.00079       0.88215
   130    H   12  px     Ryd( 2p)     0.00091       2.66814
   131    H   12  py     Ryd( 2p)     0.00144       3.18192
   132    H   12  pz     Ryd( 2p)     0.00082       2.96168

   133    H   13  S      Val( 1S)     0.47730       0.40510
   134    H   13  S      Ryd( 2S)     0.00184       0.92605
   135    H   13  px     Ryd( 2p)     0.00064       2.83069
   136    H   13  py     Ryd( 2p)     0.00091       2.71580
   137    H   13  pz     Ryd( 2p)     0.00135       3.41047

   138    H   14  S      Val( 1S)     0.47552       0.40841
   139    H   14  S      Ryd( 2S)     0.00242       0.94290
   140    H   14  px     Ryd( 2p)     0.00151       3.28944
   141    H   14  py     Ryd( 2p)     0.00080       2.64962
   142    H   14  pz     Ryd( 2p)     0.00061       2.99661

   143    H   15  S      Val( 1S)     0.46955       0.33819
   144    H   15  S      Ryd( 2S)     0.00099       0.73986
   145    H   15  px     Ryd( 2p)     0.00105       2.81051
   146    H   15  py     Ryd( 2p)     0.00139       3.15131
   147    H   15  pz     Ryd( 2p)     0.00059       2.63729

   148    H   16  S      Val( 1S)     0.51050       0.26980
   149    H   16  S      Ryd( 2S)     0.00116       0.67916
   150    H   16  px     Ryd( 2p)     0.00082       2.58033
   151    H   16  py     Ryd( 2p)     0.00091       2.81011
   152    H   16  pz     Ryd( 2p)     0.00137       3.14487

   153    H   17  S      Val( 1S)     0.51579       0.32013
   154    H   17  S      Ryd( 2S)     0.00087       0.73541
   155    H   17  px     Ryd( 2p)     0.00073       2.76403
   156    H   17  py     Ryd( 2p)     0.00091       2.66950
   157    H   17  pz     Ryd( 2p)     0.00152       3.26400

   158    H   18  S      Val( 1S)     0.45880       0.40119
   159    H   18  S      Ryd( 2S)     0.00112       0.93418
   160    H   18  px     Ryd( 2p)     0.00148       3.30028
   161    H   18  py     Ryd( 2p)     0.00109       2.87051
   162    H   18  pz     Ryd( 2p)     0.00057       2.75487

   163    H   19  S      Val( 1S)     0.48380       0.32194
   164    H   19  S      Ryd( 2S)     0.00144       0.70461
   165    H   19  px     Ryd( 2p)     0.00106       2.76484
   166    H   19  py     Ryd( 2p)     0.00075       2.70875
   167    H   19  pz     Ryd( 2p)     0.00121       3.13273

   168    H   20  S      Val( 1S)     0.48365       0.32428
   169    H   20  S      Ryd( 2S)     0.00087       0.70676
   170    H   20  px     Ryd( 2p)     0.00070       2.63038
   171    H   20  py     Ryd( 2p)     0.00121       2.99196
   172    H   20  pz     Ryd( 2p)     0.00108       3.00099

   173    H   21  S      Val( 1S)     0.53957       0.31057
   174    H   21  S      Ryd( 2S)     0.00119       0.75419
   175    H   21  px     Ryd( 2p)     0.00094       2.96718
   176    H   21  py     Ryd( 2p)     0.00105       2.62286
   177    H   21  pz     Ryd( 2p)     0.00129       3.08707

   178    H   22  S      Val( 1S)     0.47478       0.40138
   179    H   22  S      Ryd( 2S)     0.00114       0.86486
   180    H   22  px     Ryd( 2p)     0.00164       3.36037
   181    H   22  py     Ryd( 2p)     0.00084       2.64268
   182    H   22  pz     Ryd( 2p)     0.00072       2.86931

   183    H   23  S      Val( 1S)     0.48708       0.41090
   184    H   23  S      Ryd( 2S)     0.00065       0.88608
   185    H   23  px     Ryd( 2p)     0.00079       2.79953
   186    H   23  py     Ryd( 2p)     0.00124       2.96925
   187    H   23  pz     Ryd( 2p)     0.00111       3.09119

   188    H   24  S      Val( 1S)     0.51722       0.36149
   189    H   24  S      Ryd( 2S)     0.00109       0.77668
   190    H   24  px     Ryd( 2p)     0.00131       3.12457
   191    H   24  py     Ryd( 2p)     0.00084       2.67344
   192    H   24  pz     Ryd( 2p)     0.00106       2.96991


 Summary of Natural Population Analysis:                  
                                                          
                                       Natural Population 
                Natural  -----------------------------------------------
    Atom  No    Charge         Core      Valence    Rydberg      Total
 -----------------------------------------------------------------------
      O    1   -1.05320      1.99986     7.04371    0.00963     9.05320
      O    2   -1.03715      1.99985     7.02785    0.00945     9.03715
      O    3   -1.05119      1.99983     7.04280    0.00856     9.05119
      O    4   -0.99802      1.99986     6.98722    0.01094     8.99802
      O    5   -1.03491      1.99982     7.02551    0.00958     9.03491
      O    6   -0.98756      1.99986     6.97761    0.01009     8.98756
      O    7   -0.99190      1.99984     6.98074    0.01131     8.99190
      O    8   -1.00161      1.99984     6.99149    0.01028     9.00161
      H    9    0.53008      0.00000     0.46649    0.00343     0.46992
      H   10    0.53398      0.00000     0.46227    0.00375     0.46602
      H   11    0.52384      0.00000     0.47261    0.00355     0.47616
      H   12    0.51309      0.00000     0.48296    0.00395     0.48691
      H   13    0.51796      0.00000     0.47730    0.00474     0.48204
      H   14    0.51914      0.00000     0.47552    0.00534     0.48086
      H   15    0.52643      0.00000     0.46955    0.00402     0.47357
      H   16    0.48524      0.00000     0.51050    0.00426     0.51476
      H   17    0.48018      0.00000     0.51579    0.00403     0.51982
      H   18    0.53694      0.00000     0.45880    0.00426     0.46306
      H   19    0.51174      0.00000     0.48380    0.00446     0.48826
      H   20    0.51248      0.00000     0.48365    0.00387     0.48752
      H   21    0.45596      0.00000     0.53957    0.00447     0.54404
      H   22    0.52088      0.00000     0.47478    0.00434     0.47912
      H   23    0.50913      0.00000     0.48708    0.00379     0.49087
      H   24    0.47849      0.00000     0.51722    0.00429     0.52151
 =======================================================================
   * Total *   -0.00000     15.99877    63.85482    0.14641    80.00000

                                 Natural Population      
 --------------------------------------------------------
   Core                      15.99877 ( 99.9923% of  16)
   Valence                   63.85482 ( 99.7732% of  64)
   Natural Minimal Basis     79.85359 ( 99.8170% of  80)
   Natural Rydberg Basis      0.14641 (  0.1830% of  80)
 --------------------------------------------------------

    Atom  No          Natural Electron Configuration
 ----------------------------------------------------------------------------
      O    1      [core]2S( 1.76)2p( 5.29)3d( 0.01)
      O    2      [core]2S( 1.75)2p( 5.28)3d( 0.01)
      O    3      [core]2S( 1.73)2p( 5.31)
      O    4      [core]2S( 1.76)2p( 5.23)3d( 0.01)
      O    5      [core]2S( 1.74)2p( 5.29)3d( 0.01)
      O    6      [core]2S( 1.75)2p( 5.23)
      O    7      [core]2S( 1.75)2p( 5.23)3d( 0.01)
      O    8      [core]2S( 1.75)2p( 5.24)3d( 0.01)
      H    9            1S( 0.47)
      H   10            1S( 0.46)
      H   11            1S( 0.47)
      H   12            1S( 0.48)
      H   13            1S( 0.48)
      H   14            1S( 0.48)
      H   15            1S( 0.47)
      H   16            1S( 0.51)
      H   17            1S( 0.52)
      H   18            1S( 0.46)
      H   19            1S( 0.48)
      H   20            1S( 0.48)
      H   21            1S( 0.54)
      H   22            1S( 0.47)
      H   23            1S( 0.49)
      H   24            1S( 0.52)


 NBO analysis skipped by request.
 Leave Link  607 at Fri May 15 22:35:06 2020, MaxMem=   134217728 cpu:               0.8 elap:               0.2
 (Enter /home/soft/g16/l9999.exe)

 Test job not archived.
 1\1\GINC-MASTER\SP\RHF\6-31G(d,p)\H16O8\LIWEI01\15-May-2020\0\\#p hf/6
 -31g** 5d 7f pop=npa charge nosymm\\Atom number=24\\0,1\O,0,8.392325,-
 11.812941,-11.200483\O,0,7.250284,-9.859627,-13.103456\O,0,10.084912,-
 9.602997,-13.69441\O,0,9.473772,-7.997188,-10.918041\O,0,8.451586,-10.
 635579,-15.685931\O,0,10.675204,-11.925165,-15.819193\O,0,12.890023,-9
 .690601,-13.751128\O,0,8.538876,-6.261102,-12.948352\H,0,8.175276,-12.
 537815,-10.614239\H,0,9.252154,-11.5141,-10.904475\H,0,7.12066,-10.221
 473,-13.980096\H,0,7.341484,-10.626744,-12.538261\H,0,9.837963,-9.8779
 14,-14.577398\H,0,9.267108,-9.62837,-13.197635\H,0,9.99752,-8.795627,-
 10.851588\H,0,9.62339,-7.542356,-10.089201\H,0,8.125035,-10.406856,-16
 .556152\H,0,9.262189,-11.116608,-15.852568\H,0,11.145373,-12.259719,-1
 5.055487\H,0,10.769363,-12.612255,-16.478945\H,0,13.488436,-9.845906,-
 13.020365\H,0,12.017146,-9.74274,-13.361769\H,0,8.880032,-6.849136,-12
 .274511\H,0,9.276723,-6.122958,-13.542264\\Version=ES64L-G16RevA.03\HF
 =-619.8673458\RMSD=7.266e-09\Dipole=1.5925668,-3.7405987,0.9706584\Qua
 drupole=-7.30232,86.7199413,-79.4176213,-92.7448384,-14.0992995,78.536
 577\PG=C01 [X(H16O8)]\\@


 I WANT TO KNOW HOW GOD CREATED THE WORLD.  I AM NOT INTERESTED IN
 THIS OR THAT PHENOMENON, IN THE SPECTRUM OF THIS OR THAT ELEMENT.
 I WANT TO KNOW HIS THOUGHTS, THE REST ARE DETAILS.
     -- ALBERT EINSTEIN
 Job cpu time:       0 days  0 hours  0 minutes 21.1 seconds.
 Elapsed time:       0 days  0 hours  0 minutes  5.4 seconds.
 File lengths (MBytes):  RWF=     80 Int=      0 D2E=      0 Chk=      8 Scr=      8
 Normal termination of Gaussian 16 at Fri May 15 22:35:06 2020.
