Atom number=12                                                          
SP        RHF                                                         6-31G(d,p)          
Number of atoms                            I               12
Info1-9                                    I   N=           9
         107         106           0           0           0         111
           1           1           2
Full Title                                 C   N=           2
Atom number=12          
Route                                      C   N=           4
#p hf/6-31g** 5d 7f pop=npa charge nosymm       
Charge                                     I                0
Multiplicity                               I                1
Number of electrons                        I               40
Number of alpha electrons                  I               20
Number of beta electrons                   I               20
Number of basis functions                  I               96
Number of independent functions            I               96
Number of point charges in /Mol/           I                0
Number of translation vectors              I                0
Atomic numbers                             I   N=          12
           8           8           8           8           1           1
           1           1           1           1           1           1
Nuclear charges                            R   N=          12
  8.00000000E+00  8.00000000E+00  8.00000000E+00  8.00000000E+00  1.00000000E+00
  1.00000000E+00  1.00000000E+00  1.00000000E+00  1.00000000E+00  1.00000000E+00
  1.00000000E+00  1.00000000E+00
Current cartesian coordinates              R   N=          36
  1.37010511E+01 -1.86319947E+01 -2.47619431E+01  1.31641969E+01 -1.74757998E+01
 -1.94156226E+01  7.63287216E+00 -2.12107811E+01 -2.41968281E+01  8.77070649E+00
 -1.53791165E+01 -2.39449937E+01  1.34560972E+01 -1.93157846E+01 -2.64185526E+01
  1.38733941E+01 -2.00816358E+01 -2.36938794E+01  1.31811270E+01 -1.86043839E+01
 -2.08291075E+01  1.45213642E+01 -1.63243462E+01 -1.97383746E+01  8.55071592E+00
 -2.27666815E+01 -2.41037950E+01  8.37549106E+00 -2.03288025E+01 -2.55905880E+01
  8.68859978E+00 -1.37421677E+01 -2.31797548E+01  1.05380540E+01 -1.57573055E+01
 -2.40183567E+01
Number of symbols in /Mol/                 I                0
Force Field                                I                0
Atom Types                                 C   N=          12
                                                            
                                                            
                        
Int Atom Types                             I   N=          12
           0           0           0           0           0           0
           0           0           0           0           0           0
MM charges                                 R   N=          12
  0.00000000E+00  0.00000000E+00  0.00000000E+00  0.00000000E+00  0.00000000E+00
  0.00000000E+00  0.00000000E+00  0.00000000E+00  0.00000000E+00  0.00000000E+00
  0.00000000E+00  0.00000000E+00
Integer atomic weights                     I   N=          12
          16          16          16          16           1           1
           1           1           1           1           1           1
Real atomic weights                        R   N=          12
  1.59949146E+01  1.59949146E+01  1.59949146E+01  1.59949146E+01  1.00782504E+00
  1.00782504E+00  1.00782504E+00  1.00782504E+00  1.00782504E+00  1.00782504E+00
  1.00782504E+00  1.00782504E+00
Atom fragment info                         I   N=          12
           0           0           0           0           0           0
           0           0           0           0           0           0
Atom residue num                           I   N=          12
           0           0           0           0           0           0
           0           0           0           0           0           0
Nuclear spins                              I   N=          12
           0           0           0           0           1           1
           1           1           1           1           1           1
Nuclear ZEff                               R   N=          12
 -5.60000000E+00 -5.60000000E+00 -5.60000000E+00 -5.60000000E+00 -1.00000000E+00
 -1.00000000E+00 -1.00000000E+00 -1.00000000E+00 -1.00000000E+00 -1.00000000E+00
 -1.00000000E+00 -1.00000000E+00
Nuclear ZNuc                               R   N=          12
  8.00000000E+00  8.00000000E+00  8.00000000E+00  8.00000000E+00  1.00000000E+00
  1.00000000E+00  1.00000000E+00  1.00000000E+00  1.00000000E+00  1.00000000E+00
  1.00000000E+00  1.00000000E+00
Nuclear QMom                               R   N=          12
  0.00000000E+00  0.00000000E+00  0.00000000E+00  0.00000000E+00  0.00000000E+00
  0.00000000E+00  0.00000000E+00  0.00000000E+00  0.00000000E+00  0.00000000E+00
  0.00000000E+00  0.00000000E+00
Nuclear GFac                               R   N=          12
  0.00000000E+00  0.00000000E+00  0.00000000E+00  0.00000000E+00  2.79284600E+00
  2.79284600E+00  2.79284600E+00  2.79284600E+00  2.79284600E+00  2.79284600E+00
  2.79284600E+00  2.79284600E+00
MicOpt                                     I   N=          12
          -1          -1          -1          -1          -1          -1
          -1          -1          -1          -1          -1          -1
Number of residues                         I                0
Number of secondary structures             I                0
Number of contracted shells                I               40
Number of primitive shells                 I               84
Pure/Cartesian d shells                    I                0
Pure/Cartesian f shells                    I                0
Highest angular momentum                   I                2
Largest degree of contraction              I                6
Shell types                                I   N=          40
           0          -1          -1          -2           0          -1
          -1          -2           0          -1          -1          -2
           0          -1          -1          -2           0           0
           1           0           0           1           0           0
           1           0           0           1           0           0
           1           0           0           1           0           0
           1           0           0           1
Number of primitives per shell             I   N=          40
           6           3           1           1           6           3
           1           1           6           3           1           1
           6           3           1           1           3           1
           1           3           1           1           3           1
           1           3           1           1           3           1
           1           3           1           1           3           1
           1           3           1           1
Shell to atom map                          I   N=          40
           1           1           1           1           2           2
           2           2           3           3           3           3
           4           4           4           4           5           5
           5           6           6           6           7           7
           7           8           8           8           9           9
           9          10          10          10          11          11
          11          12          12          12
Primitive exponents                        R   N=          84
  5.48467166E+03  8.25234946E+02  1.88046958E+02  5.29645000E+01  1.68975704E+01
  5.79963534E+00  1.55396162E+01  3.59993359E+00  1.01376175E+00  2.70005823E-01
  8.00000000E-01  5.48467166E+03  8.25234946E+02  1.88046958E+02  5.29645000E+01
  1.68975704E+01  5.79963534E+00  1.55396162E+01  3.59993359E+00  1.01376175E+00
  2.70005823E-01  8.00000000E-01  5.48467166E+03  8.25234946E+02  1.88046958E+02
  5.29645000E+01  1.68975704E+01  5.79963534E+00  1.55396162E+01  3.59993359E+00
  1.01376175E+00  2.70005823E-01  8.00000000E-01  5.48467166E+03  8.25234946E+02
  1.88046958E+02  5.29645000E+01  1.68975704E+01  5.79963534E+00  1.55396162E+01
  3.59993359E+00  1.01376175E+00  2.70005823E-01  8.00000000E-01  1.87311370E+01
  2.82539436E+00  6.40121692E-01  1.61277759E-01  1.10000000E+00  1.87311370E+01
  2.82539436E+00  6.40121692E-01  1.61277759E-01  1.10000000E+00  1.87311370E+01
  2.82539436E+00  6.40121692E-01  1.61277759E-01  1.10000000E+00  1.87311370E+01
  2.82539436E+00  6.40121692E-01  1.61277759E-01  1.10000000E+00  1.87311370E+01
  2.82539436E+00  6.40121692E-01  1.61277759E-01  1.10000000E+00  1.87311370E+01
  2.82539436E+00  6.40121692E-01  1.61277759E-01  1.10000000E+00  1.87311370E+01
  2.82539436E+00  6.40121692E-01  1.61277759E-01  1.10000000E+00  1.87311370E+01
  2.82539436E+00  6.40121692E-01  1.61277759E-01  1.10000000E+00
Contraction coefficients                   R   N=          84
  1.83107443E-03  1.39501722E-02  6.84450781E-02  2.32714336E-01  4.70192898E-01
  3.58520853E-01 -1.10777550E-01 -1.48026263E-01  1.13076702E+00  1.00000000E+00
  1.00000000E+00  1.83107443E-03  1.39501722E-02  6.84450781E-02  2.32714336E-01
  4.70192898E-01  3.58520853E-01 -1.10777550E-01 -1.48026263E-01  1.13076702E+00
  1.00000000E+00  1.00000000E+00  1.83107443E-03  1.39501722E-02  6.84450781E-02
  2.32714336E-01  4.70192898E-01  3.58520853E-01 -1.10777550E-01 -1.48026263E-01
  1.13076702E+00  1.00000000E+00  1.00000000E+00  1.83107443E-03  1.39501722E-02
  6.84450781E-02  2.32714336E-01  4.70192898E-01  3.58520853E-01 -1.10777550E-01
 -1.48026263E-01  1.13076702E+00  1.00000000E+00  1.00000000E+00  3.34946043E-02
  2.34726953E-01  8.13757326E-01  1.00000000E+00  1.00000000E+00  3.34946043E-02
  2.34726953E-01  8.13757326E-01  1.00000000E+00  1.00000000E+00  3.34946043E-02
  2.34726953E-01  8.13757326E-01  1.00000000E+00  1.00000000E+00  3.34946043E-02
  2.34726953E-01  8.13757326E-01  1.00000000E+00  1.00000000E+00  3.34946043E-02
  2.34726953E-01  8.13757326E-01  1.00000000E+00  1.00000000E+00  3.34946043E-02
  2.34726953E-01  8.13757326E-01  1.00000000E+00  1.00000000E+00  3.34946043E-02
  2.34726953E-01  8.13757326E-01  1.00000000E+00  1.00000000E+00  3.34946043E-02
  2.34726953E-01  8.13757326E-01  1.00000000E+00  1.00000000E+00
P(S=P) Contraction coefficients            R   N=          84
  0.00000000E+00  0.00000000E+00  0.00000000E+00  0.00000000E+00  0.00000000E+00
  0.00000000E+00  7.08742682E-02  3.39752839E-01  7.27158577E-01  1.00000000E+00
  0.00000000E+00  0.00000000E+00  0.00000000E+00  0.00000000E+00  0.00000000E+00
  0.00000000E+00  0.00000000E+00  7.08742682E-02  3.39752839E-01  7.27158577E-01
  1.00000000E+00  0.00000000E+00  0.00000000E+00  0.00000000E+00  0.00000000E+00
  0.00000000E+00  0.00000000E+00  0.00000000E+00  7.08742682E-02  3.39752839E-01
  7.27158577E-01  1.00000000E+00  0.00000000E+00  0.00000000E+00  0.00000000E+00
  0.00000000E+00  0.00000000E+00  0.00000000E+00  0.00000000E+00  7.08742682E-02
  3.39752839E-01  7.27158577E-01  1.00000000E+00  0.00000000E+00  0.00000000E+00
  0.00000000E+00  0.00000000E+00  0.00000000E+00  0.00000000E+00  0.00000000E+00
  0.00000000E+00  0.00000000E+00  0.00000000E+00  0.00000000E+00  0.00000000E+00
  0.00000000E+00  0.00000000E+00  0.00000000E+00  0.00000000E+00  0.00000000E+00
  0.00000000E+00  0.00000000E+00  0.00000000E+00  0.00000000E+00  0.00000000E+00
  0.00000000E+00  0.00000000E+00  0.00000000E+00  0.00000000E+00  0.00000000E+00
  0.00000000E+00  0.00000000E+00  0.00000000E+00  0.00000000E+00  0.00000000E+00
  0.00000000E+00  0.00000000E+00  0.00000000E+00  0.00000000E+00  0.00000000E+00
  0.00000000E+00  0.00000000E+00  0.00000000E+00  0.00000000E+00
Coordinates of each shell                  R   N=         120
  1.37010511E+01 -1.86319947E+01 -2.47619431E+01  1.37010511E+01 -1.86319947E+01
 -2.47619431E+01  1.37010511E+01 -1.86319947E+01 -2.47619431E+01  1.37010511E+01
 -1.86319947E+01 -2.47619431E+01  1.31641969E+01 -1.74757998E+01 -1.94156226E+01
  1.31641969E+01 -1.74757998E+01 -1.94156226E+01  1.31641969E+01 -1.74757998E+01
 -1.94156226E+01  1.31641969E+01 -1.74757998E+01 -1.94156226E+01  7.63287216E+00
 -2.12107811E+01 -2.41968281E+01  7.63287216E+00 -2.12107811E+01 -2.41968281E+01
  7.63287216E+00 -2.12107811E+01 -2.41968281E+01  7.63287216E+00 -2.12107811E+01
 -2.41968281E+01  8.77070649E+00 -1.53791165E+01 -2.39449937E+01  8.77070649E+00
 -1.53791165E+01 -2.39449937E+01  8.77070649E+00 -1.53791165E+01 -2.39449937E+01
  8.77070649E+00 -1.53791165E+01 -2.39449937E+01  1.34560972E+01 -1.93157846E+01
 -2.64185526E+01  1.34560972E+01 -1.93157846E+01 -2.64185526E+01  1.34560972E+01
 -1.93157846E+01 -2.64185526E+01  1.38733941E+01 -2.00816358E+01 -2.36938794E+01
  1.38733941E+01 -2.00816358E+01 -2.36938794E+01  1.38733941E+01 -2.00816358E+01
 -2.36938794E+01  1.31811270E+01 -1.86043839E+01 -2.08291075E+01  1.31811270E+01
 -1.86043839E+01 -2.08291075E+01  1.31811270E+01 -1.86043839E+01 -2.08291075E+01
  1.45213642E+01 -1.63243462E+01 -1.97383746E+01  1.45213642E+01 -1.63243462E+01
 -1.97383746E+01  1.45213642E+01 -1.63243462E+01 -1.97383746E+01  8.55071592E+00
 -2.27666815E+01 -2.41037950E+01  8.55071592E+00 -2.27666815E+01 -2.41037950E+01
  8.55071592E+00 -2.27666815E+01 -2.41037950E+01  8.37549106E+00 -2.03288025E+01
 -2.55905880E+01  8.37549106E+00 -2.03288025E+01 -2.55905880E+01  8.37549106E+00
 -2.03288025E+01 -2.55905880E+01  8.68859978E+00 -1.37421677E+01 -2.31797548E+01
  8.68859978E+00 -1.37421677E+01 -2.31797548E+01  8.68859978E+00 -1.37421677E+01
 -2.31797548E+01  1.05380540E+01 -1.57573055E+01 -2.40183567E+01  1.05380540E+01
 -1.57573055E+01 -2.40183567E+01  1.05380540E+01 -1.57573055E+01 -2.40183567E+01
Num ILSW                                   I              100
ILSW                                       I   N=         100
           0           0           0           0           2           0
           0           0           0           0           0          -1
           5           0           0           0           0           0
           0           0           0           0           0           0
           1           1           0           0           0           0
           0           0      100000           0          -1           0
           0           0           0           0           0           0
           0           0           0           1           0           0
           0 -2000000000           1           0           0           0
           0           0           4          52           0           0
           0           1           0           0           0           0
           0           0           0          12           0           1
           0           0           0           0           0           0
           0           0           0           0           0           0
           0           0           0           0           0           0
           0           0           0           0           0           0
           0           0           0           0
Num RLSW                                   I               52
RLSW                                       R   N=          52
  1.00000000E+00  1.00000000E+00  1.00000000E+00  1.00000000E+00  1.00000000E+00
  0.00000000E+00  0.00000000E+00  1.00000000E+00  0.00000000E+00  0.00000000E+00
  0.00000000E+00  0.00000000E+00  1.00000000E+00  0.00000000E+00  0.00000000E+00
  0.00000000E+00  0.00000000E+00  1.00000000E+00  0.00000000E+00  0.00000000E+00
  0.00000000E+00  0.00000000E+00  1.00000000E+00  0.00000000E+00  0.00000000E+00
  0.00000000E+00  0.00000000E+00  1.00000000E+00  0.00000000E+00  0.00000000E+00
  0.00000000E+00  0.00000000E+00  1.00000000E+00  0.00000000E+00  0.00000000E+00
  0.00000000E+00  0.00000000E+00  0.00000000E+00  1.00000000E+00  1.00000000E+00
  0.00000000E+00  1.00000000E+00  0.00000000E+00  0.00000000E+00  0.00000000E+00
  0.00000000E+00  0.00000000E+00  0.00000000E+00  0.00000000E+00  0.00000000E+00
  0.00000000E+00  0.00000000E+00
MxBond                                     I                2
NBond                                      I   N=          12
           2           2           2           2           1           1
           1           1           1           1           1           1
IBond                                      I   N=          24
           5           6           7           8           9          10
          11          12           1           0           1           0
           2           0           2           0           3           0
           3           0           4           0           4           0
RBond                                      R   N=          24
  1.00000000E+00  1.00000000E+00  1.00000000E+00  1.00000000E+00  1.00000000E+00
  1.00000000E+00  1.00000000E+00  1.00000000E+00  1.00000000E+00  0.00000000E+00
  1.00000000E+00  0.00000000E+00  1.00000000E+00  0.00000000E+00  1.00000000E+00
  0.00000000E+00  1.00000000E+00  0.00000000E+00  1.00000000E+00  0.00000000E+00
  1.00000000E+00  0.00000000E+00  1.00000000E+00  0.00000000E+00
Virial Ratio                               R      2.046717160884831E+00
SCF Energy                                 R     -3.177851667044927E+02
Total Energy                               R     -3.177851667044927E+02
RMS Density                                R      4.868362879642752E-09
Job Status                                 I                1
Nuclear derivative order                   I                0
External E-field                           R   N=          35
  0.00000000E+00  0.00000000E+00  0.00000000E+00  0.00000000E+00  0.00000000E+00
  0.00000000E+00  0.00000000E+00  0.00000000E+00  0.00000000E+00  0.00000000E+00
  0.00000000E+00  0.00000000E+00  0.00000000E+00  0.00000000E+00  0.00000000E+00
  0.00000000E+00  0.00000000E+00  0.00000000E+00  0.00000000E+00  0.00000000E+00
  0.00000000E+00  0.00000000E+00  0.00000000E+00  0.00000000E+00  0.00000000E+00
  0.00000000E+00  0.00000000E+00  0.00000000E+00  0.00000000E+00  0.00000000E+00
  0.00000000E+00  0.00000000E+00  0.00000000E+00  0.00000000E+00  0.00000000E+00
IOpCl                                      I                0
IROHF                                      I                0
Alpha Orbital Energies                     R   N=          96
 -2.05396260E+01 -2.05274937E+01 -2.04827574E+01 -2.04564186E+01 -1.32461763E+00
 -1.30895264E+00 -1.26607776E+00 -1.23841354E+00 -6.96783104E-01 -6.63145218E-01
 -6.32309016E-01 -6.01138171E-01 -5.64582785E-01 -5.40826953E-01 -4.96827965E-01
 -4.83470659E-01 -4.73016240E-01 -4.66326272E-01 -4.23963348E-01 -3.96085501E-01
  2.39017060E-01  2.99251224E-01  3.07554676E-01  3.51747990E-01  3.65039153E-01
  4.29023030E-01  4.43993077E-01  4.70474727E-01  1.01107923E+00  1.04792839E+00
  1.09170881E+00  1.10523229E+00  1.10948276E+00  1.12938162E+00  1.13369586E+00
  1.14916157E+00  1.19335526E+00  1.21825093E+00  1.23234803E+00  1.23714442E+00
  1.28630475E+00  1.30706507E+00  1.33554951E+00  1.35425781E+00  1.38189461E+00
  1.41759317E+00  1.43882307E+00  1.45303974E+00  1.62391011E+00  1.69167651E+00
  1.71364232E+00  1.77918961E+00  1.82941328E+00  1.85236701E+00  1.85589989E+00
  1.87856114E+00  1.89948653E+00  1.91620632E+00  1.92913080E+00  1.93482721E+00
  1.96444066E+00  2.00090378E+00  2.02846408E+00  2.03779094E+00  2.58083490E+00
  2.59369560E+00  2.64428990E+00  2.65865510E+00  2.66915226E+00  2.68370200E+00
  2.69564833E+00  2.69789840E+00  2.81839079E+00  2.88850398E+00  2.89978080E+00
  2.92951310E+00  3.00552305E+00  3.01472166E+00  3.03252812E+00  3.04304340E+00
  3.05814788E+00  3.07047191E+00  3.08421597E+00  3.09871658E+00  3.40952801E+00
  3.43587379E+00  3.46642355E+00  3.48341295E+00  3.79016588E+00  3.81166142E+00
  3.85523630E+00  3.87019004E+00  3.97489419E+00  4.02783144E+00  4.03567042E+00
  4.05491591E+00
Alpha MO coefficients                      R   N=        9216
 -6.70131986E-05  2.40982660E-05 -3.12331220E-05  4.18152941E-05  6.95289387E-05
  2.40977005E-04  1.15594477E-04 -3.24544912E-04 -3.16672539E-04 -1.71389753E-05
  3.36538475E-05  3.46630371E-06 -1.65137124E-05  7.47867975E-06  9.95715587E-01
  2.22170689E-02  1.24220411E-03 -1.24244503E-05 -1.47734113E-03 -6.85439730E-03
 -4.96881952E-04  4.18232260E-04  1.10523045E-03 -9.47889576E-05 -6.88672887E-05
  1.40868130E-04 -4.79001175E-05  3.44319636E-04  3.74895204E-06  8.97623731E-06
  2.29790848E-06  4.88447724E-06  8.53573530E-06 -1.93212338E-05 -9.85106047E-06
 -3.64648116E-06 -2.50621164E-05  2.31855487E-06 -3.54782572E-06 -3.50183994E-07
  9.03677848E-07  5.13956397E-07  2.12003970E-05  5.16590608E-05  2.08904373E-06
 -7.11128491E-06  4.94258906E-06 -1.79301348E-04 -1.20396366E-04  5.22122088E-05
 -5.79978804E-06  1.53218961E-05  7.33850470E-07  3.20044541E-06 -2.93346820E-05
  1.38538478E-05 -1.63560700E-04  3.39661335E-05 -1.87451264E-05 -1.48450069E-05
 -1.26943046E-05  8.94343819E-05 -9.33553980E-04  2.40746297E-05 -8.97989223E-05
 -4.14352755E-05 -4.04317764E-04  2.52309844E-03  7.31208223E-05 -5.47802367E-04
 -7.95053099E-04 -5.18246653E-04  1.07451765E-03  8.92943273E-04  6.99911744E-04
 -2.80429745E-04  1.92443518E-06  1.78940191E-05  2.13476548E-06  5.78543899E-06
  4.42729846E-06 -8.34147804E-07 -6.29351372E-06  4.71377056E-06  3.03557632E-06
  2.65485503E-06  4.56142581E-06 -3.41088555E-05  6.94935024E-06  1.93164897E-06
  4.64942296E-06  2.24971439E-05  1.78460863E-04 -5.31825294E-05  1.10930782E-05
 -1.57533913E-05  9.95699753E-01  2.20586322E-02 -9.65454732E-05 -1.88286712E-03
 -4.88338915E-04 -5.98298816E-03  1.77909513E-04  7.02501625E-04  1.84623757E-04
  3.41537195E-04  1.31886419E-04 -1.12660943E-04 -2.57272797E-04  3.58781365E-06
  6.59398455E-05  4.70254428E-05 -7.85481588E-06 -8.00448532E-06  2.49719178E-06
 -8.83221686E-05  2.62854095E-05  1.28313460E-05  3.77617212E-05 -2.95614057E-05
 -6.65389633E-06  7.20170671E-07 -1.05655742E-05  1.10357584E-05 -2.98887309E-06
  5.82453794E-06  6.89097219E-06  4.42727821E-06  4.33660911E-06  1.22634560E-05
 -1.89096412E-05 -6.80584192E-05  2.09822650E-05 -5.93291486E-06  6.20438878E-06
  7.94943003E-06 -6.12450178E-06 -1.41443756E-05  8.36747043E-05  1.81923414E-04
  1.21856892E-05 -4.18682256E-06 -7.46366287E-06 -7.24192433E-04 -4.49146696E-04
  1.31184119E-04  4.66855742E-05  6.00960533E-05  9.18599122E-06 -1.05258659E-05
 -7.91226811E-05  4.72473575E-05 -5.13706436E-04  1.16820219E-03 -1.76690645E-04
 -4.75770965E-04 -1.04180432E-03 -5.48222108E-04  1.20963376E-03  8.41740995E-05
 -9.61032060E-04  6.55100857E-04  1.57315361E-05  4.58063315E-06 -2.10790279E-07
  4.48399738E-05 -7.18486492E-05 -1.84482637E-05  1.49492721E-05  3.13845064E-06
  2.07170900E-06 -2.86701442E-06  7.83048430E-06 -1.03878962E-04  1.06634948E-05
 -1.57743771E-05  5.67246895E-07  9.01606633E-06  2.89500320E-05 -1.78831072E-05
 -1.13957938E-05  1.52370448E-05  7.06619484E-05 -2.01931361E-04  1.51766096E-05
  6.43394766E-06  1.47371769E-06  5.53390453E-05  9.51599627E-04 -1.53205883E-04
 -4.32341695E-06 -3.53962703E-06 -7.00917362E-05  1.06560902E-04 -6.83083706E-05
  7.49808967E-05  2.05264893E-05 -6.35350567E-05  2.63718443E-04 -3.71888150E-04
 -5.97621041E-05  2.49760166E-05  1.42236374E-05 -2.30280323E-05 -4.25828135E-05
  3.83050015E-05 -1.60099876E-05  4.11880635E-05 -2.12565872E-05  1.59756836E-05
 -2.24116122E-05 -5.92761581E-05  7.54775938E-05 -1.44178165E-05  1.02838335E-04
 -2.10777346E-05 -1.05399561E-05 -7.15026540E-07  6.41435155E-06  4.22744252E-06
  9.01673483E-07  3.69617614E-05 -1.67132108E-06 -9.41898073E-06 -5.50938823E-06
 -1.81202268E-04 -5.09070912E-05  2.36238845E-05  6.09952113E-05  5.31794419E-06
  6.53170832E-06  3.89000553E-06  8.51391516E-06  1.23618921E-05  9.95714954E-01
  2.20758058E-02  1.57018329E-03  1.23050673E-03  6.48010160E-04 -6.34445522E-03
 -9.99772025E-04 -4.38549240E-04 -2.54569044E-04 -2.41886656E-04 -4.99374202E-05
  2.60196647E-04 -3.49270254E-05 -1.71013661E-04  2.15837114E-06 -1.39713421E-04
 -3.90731121E-05  3.24526746E-05 -3.46529504E-05 -7.27403631E-05 -1.29682338E-04
 -2.56449211E-05 -1.17554183E-05  5.37766232E-05  5.99798498E-05  1.62792678E-05
  2.31818360E-06  1.18217995E-05 -5.47160723E-06  3.58645342E-05 -9.44892061E-05
  1.41716304E-06  1.38951247E-05 -1.73216216E-05  4.90602137E-05  1.13135721E-05
 -9.84620255E-06  1.66031725E-05 -6.30625930E-06 -3.11097988E-05  1.77806041E-04
 -1.40934890E-05 -3.17657597E-05  2.00647679E-05 -5.12376028E-04  1.12915209E-03
  2.11423114E-05  1.08287831E-03  5.09678836E-04 -4.71851699E-04  1.82501111E-03
  1.03513269E-03 -1.80207401E-04 -2.09630330E-05  1.67383343E-06 -3.09288875E-06
 -2.67819435E-05 -5.08173631E-06  4.22762399E-06  1.10419756E-04  7.27877427E-05
 -6.86174989E-06 -8.36376130E-05  1.44797494E-05  8.48858250E-08  1.00328744E-05
 -8.03873199E-06 -1.03121431E-05 -2.75752863E-06  1.27361043E-05 -1.45953342E-06
 -2.33558497E-06  2.04970644E-07 -4.93804787E-05  9.52449073E-06  2.99378825E-05
  2.32861857E-05 -5.23747330E-06 -4.55966763E-07 -7.46055121E-06  2.43134025E-06
  2.63652746E-06  9.95709661E-01  2.19857185E-02  1.55877160E-03 -6.73125687E-04
 -1.22554220E-03 -6.02266425E-03 -7.34282905E-04  2.78588475E-04  6.11728296E-04
 -4.69046158E-05 -1.65674900E-04 -2.93648212E-04 -2.02468842E-04 -1.53021518E-04
  5.20604835E-06  2.81367334E-05  1.38100416E-06 -6.98135817E-06 -1.91018504E-05
 -6.39494133E-05 -2.13443627E-05  5.94358003E-05  6.02368368E-05  9.74595698E-06
  2.27468387E-06 -8.84132453E-06  2.19295668E-06  1.51745552E-06  3.42374761E-05
 -2.28799394E-04 -5.85263258E-06 -1.47999446E-05 -3.25878368E-05  1.96571266E-05
 -3.01262385E-05 -7.28251137E-06 -2.09866038E-06 -7.86103148E-07  7.53135912E-06
  7.44758141E-05  6.79202182E-07  8.60324863E-06  4.68712922E-06 -3.04331834E-06
 -1.61400576E-05  2.79048949E-06  1.07824627E-06 -1.73654830E-06 -5.21434044E-04
  1.25636402E-03  6.30847609E-04 -9.90630911E-04  6.13119581E-06 -5.17941980E-04
  1.38235886E-03  5.07011229E-04  5.02296348E-04 -8.80580250E-04 -9.41891552E-06
 -2.20417072E-05  2.14067226E-06  1.44901649E-06 -6.47997631E-06  2.30193680E-05
  1.35990974E-05 -5.43035344E-06  1.17958120E-06 -9.37511931E-06 -7.83590397E-02
  1.72144604E-01 -8.85145867E-04 -2.78137317E-02 -3.00513696E-03  1.64531983E-01
  2.53327515E-04 -8.08394142E-03  3.48790009E-03  1.17358204E-03  4.18656191E-05
  1.45114769E-04 -8.51309511E-04 -1.98755156E-04 -1.97312637E-01  4.34160559E-01
  4.67898504E-02 -6.30582976E-04 -5.74262284E-02  4.19434029E-01  1.68248876E-02
 -3.95133191E-03 -1.72122668E-02  1.01058192E-03 -2.55067221E-03  1.83369187E-03
  8.84221945E-04  1.10405031E-03 -8.82353016E-04  2.01684804E-03  3.83991076E-04
 -3.03120114E-06 -2.41582205E-04  1.16610855E-03  3.23299598E-04  1.45581269E-04
  2.29356155E-04 -2.92083820E-05  4.76213965E-07  2.22841127E-06  4.37412420E-05
  1.55801604E-05 -5.02819385E-03  1.09857720E-02  2.20663826E-03  6.67588154E-04
  6.00725773E-04  9.52947863E-03  1.08486012E-03 -1.54508807E-04  8.20747898E-04
 -9.78802192E-05  6.76227965E-05  3.82405161E-05  2.02334620E-04 -9.08371259E-05
  5.04541539E-02  2.23946636E-03  1.01361418E-03  2.82870309E-03  8.81250239E-03
  5.37146002E-02  6.86052814E-03 -1.42838997E-03  8.17608764E-03 -5.53575766E-03
  1.33428497E-01 -6.45607054E-05  1.59944351E-03  1.55083954E-02  1.72612770E-02
  1.31840303E-01  9.18728311E-03 -1.79507080E-02 -1.66426536E-02  3.27391574E-03
  5.03788658E-04  5.15670236E-04 -8.82979673E-05  1.27050159E-04 -3.64880998E-05
  7.12187455E-04  8.37870954E-04 -9.59199361E-06 -7.53272896E-05  1.37564739E-04
  3.07738373E-03  5.95876432E-04  5.00401416E-05 -5.56191844E-04 -3.18382694E-04
  4.50119352E-03  2.34974529E-03 -3.70698463E-04  9.87393956E-06  1.99849759E-04
 -1.97901507E-01  4.36463648E-01 -1.25935790E-03 -7.23848144E-02 -1.91605018E-02
  4.20141816E-01  1.85049288E-03 -2.73740392E-02 -4.16570507E-03  8.51029886E-04
  7.84008389E-04  2.52829196E-04 -2.31138644E-03 -4.34318681E-04  8.08778447E-02
 -1.78351280E-01 -1.95137273E-02 -2.00719655E-03  1.98408739E-02 -1.74497878E-01
 -7.02656615E-03  8.60624215E-04  4.55201265E-03  3.06138486E-04  9.21161214E-04
 -2.91528314E-04 -4.77300279E-04 -5.87457416E-04 -2.27113159E-03  5.27123711E-03
  9.17499841E-04 -5.12108709E-05 -6.53160800E-04  2.79046792E-03  7.10096787E-04
  9.78216998E-05  4.08757036E-04 -7.03779694E-05 -7.72148622E-06  1.94305085E-05
  1.07344715E-04  2.42640448E-05 -7.96230537E-03  1.71383971E-02  3.30563842E-03
  1.08578773E-03  7.02102533E-04  1.74231245E-02  2.43039365E-03 -8.63318843E-05
 -2.78012580E-04 -3.37810528E-04 -4.76658302E-05  7.83205334E-05  3.81311118E-04
 -1.91128184E-04  1.31221549E-01  6.89913706E-03  2.77000450E-03  7.54159161E-03
  2.31243931E-02  1.31480200E-01  1.08409514E-03 -2.97929632E-03  1.87180194E-02
 -1.58318141E-02 -4.78603331E-02  4.11156437E-03 -3.81167172E-04 -6.81253200E-03
 -8.19121730E-03 -5.48141994E-02 -3.21622656E-03  7.32060215E-03  6.71671840E-03
 -1.50352691E-03  1.33899042E-03  1.09984218E-03 -2.09098417E-04  3.24169409E-04
 -6.52646892E-05  1.75123191E-03  2.69468336E-03 -1.99061822E-05 -1.89474364E-04
  4.09140818E-04  5.02871875E-03  6.36756966E-04  8.55218986E-05 -8.74874603E-04
 -3.72519305E-04  7.52704510E-03 -6.57338345E-04 -2.58089209E-04 -8.68704667E-05
 -9.69586212E-05  1.02124730E-02 -2.34510636E-02 -1.36511203E-03  5.20301058E-03
  1.30073122E-03 -2.08588525E-02 -3.23395361E-03  4.38229408E-03  5.86077171E-04
 -3.48516508E-04 -1.45189151E-04  1.28100461E-04  4.45740527E-04 -4.03210110E-04
  2.09382169E-03 -4.79786534E-03 -8.08495387E-04  1.78015333E-04  4.94165569E-04
 -5.05707338E-03 -1.57541392E-03  8.70120417E-04 -5.91269902E-04  9.52680408E-05
  1.60124017E-04 -9.29933889E-05 -1.98748404E-05 -6.67187993E-05 -9.36910733E-03
  2.04494774E-02  2.84949271E-03 -2.79302051E-04 -2.17043133E-03  1.94088627E-02
  1.05568912E-03  8.31457359E-04 -4.04343944E-04 -7.21132980E-05 -1.50617222E-04