Atom number=12                                                          
SP        RHF                                                         6-31G(d,p)          
Number of atoms                            I               12
Info1-9                                    I   N=           9
         107         106           0           0           0         111
           1           1           2
Full Title                                 C   N=           2
Atom number=12          
Route                                      C   N=           4
#p hf/6-31g** 5d 7f pop=npa charge nosymm       
Charge                                     I                0
Multiplicity                               I                1
Number of electrons                        I               40
Number of alpha electrons                  I               20
Number of beta electrons                   I               20
Number of basis functions                  I               96
Number of independent functions            I               96
Number of point charges in /Mol/           I                0
Number of translation vectors              I                0
Atomic numbers                             I   N=          12
           8           8           8           8           1           1
           1           1           1           1           1           1
Nuclear charges                            R   N=          12
  8.00000000E+00  8.00000000E+00  8.00000000E+00  8.00000000E+00  1.00000000E+00
  1.00000000E+00  1.00000000E+00  1.00000000E+00  1.00000000E+00  1.00000000E+00
  1.00000000E+00  1.00000000E+00
Current cartesian coordinates              R   N=          36
  1.84053920E+01 -2.75148262E+01 -2.47254336E+01  1.05536555E+01 -2.94649215E+01
 -2.16748884E+01  1.60474257E+01 -2.67578000E+01 -2.96895325E+01  1.46630370E+01
 -3.11898692E+01 -2.50313519E+01  1.78327464E+01 -2.63066431E+01 -2.35071158E+01
  2.01306987E+01 -2.70664981E+01 -2.50324158E+01  8.84108934E+00 -2.90041213E+01
 -2.20308448E+01  1.13441828E+01 -2.79179445E+01 -2.11710515E+01  1.67126282E+01
 -2.84285107E+01 -2.98848829E+01  1.68532352E+01 -2.61200080E+01 -2.82009707E+01
  1.38099655E+01 -3.06346091E+01 -2.35360646E+01  1.61331437E+01 -3.01406725E+01
 -2.51308649E+01
Number of symbols in /Mol/                 I                0
Force Field                                I                0
Atom Types                                 C   N=          12
                                                            
                                                            
                        
Int Atom Types                             I   N=          12
           0           0           0           0           0           0
           0           0           0           0           0           0
MM charges                                 R   N=          12
  0.00000000E+00  0.00000000E+00  0.00000000E+00  0.00000000E+00  0.00000000E+00
  0.00000000E+00  0.00000000E+00  0.00000000E+00  0.00000000E+00  0.00000000E+00
  0.00000000E+00  0.00000000E+00
Integer atomic weights                     I   N=          12
          16          16          16          16           1           1
           1           1           1           1           1           1
Real atomic weights                        R   N=          12
  1.59949146E+01  1.59949146E+01  1.59949146E+01  1.59949146E+01  1.00782504E+00
  1.00782504E+00  1.00782504E+00  1.00782504E+00  1.00782504E+00  1.00782504E+00
  1.00782504E+00  1.00782504E+00
Atom fragment info                         I   N=          12
           0           0           0           0           0           0
           0           0           0           0           0           0
Atom residue num                           I   N=          12
           0           0           0           0           0           0
           0           0           0           0           0           0
Nuclear spins                              I   N=          12
           0           0           0           0           1           1
           1           1           1           1           1           1
Nuclear ZEff                               R   N=          12
 -5.60000000E+00 -5.60000000E+00 -5.60000000E+00 -5.60000000E+00 -1.00000000E+00
 -1.00000000E+00 -1.00000000E+00 -1.00000000E+00 -1.00000000E+00 -1.00000000E+00
 -1.00000000E+00 -1.00000000E+00
Nuclear ZNuc                               R   N=          12
  8.00000000E+00  8.00000000E+00  8.00000000E+00  8.00000000E+00  1.00000000E+00
  1.00000000E+00  1.00000000E+00  1.00000000E+00  1.00000000E+00  1.00000000E+00
  1.00000000E+00  1.00000000E+00
Nuclear QMom                               R   N=          12
  0.00000000E+00  0.00000000E+00  0.00000000E+00  0.00000000E+00  0.00000000E+00
  0.00000000E+00  0.00000000E+00  0.00000000E+00  0.00000000E+00  0.00000000E+00
  0.00000000E+00  0.00000000E+00
Nuclear GFac                               R   N=          12
  0.00000000E+00  0.00000000E+00  0.00000000E+00  0.00000000E+00  2.79284600E+00
  2.79284600E+00  2.79284600E+00  2.79284600E+00  2.79284600E+00  2.79284600E+00
  2.79284600E+00  2.79284600E+00
MicOpt                                     I   N=          12
          -1          -1          -1          -1          -1          -1
          -1          -1          -1          -1          -1          -1
Number of residues                         I                0
Number of secondary structures             I                0
Number of contracted shells                I               40
Number of primitive shells                 I               84
Pure/Cartesian d shells                    I                0
Pure/Cartesian f shells                    I                0
Highest angular momentum                   I                2
Largest degree of contraction              I                6
Shell types                                I   N=          40
           0          -1          -1          -2           0          -1
          -1          -2           0          -1          -1          -2
           0          -1          -1          -2           0           0
           1           0           0           1           0           0
           1           0           0           1           0           0
           1           0           0           1           0           0
           1           0           0           1
Number of primitives per shell             I   N=          40
           6           3           1           1           6           3
           1           1           6           3           1           1
           6           3           1           1           3           1
           1           3           1           1           3           1
           1           3           1           1           3           1
           1           3           1           1           3           1
           1           3           1           1
Shell to atom map                          I   N=          40
           1           1           1           1           2           2
           2           2           3           3           3           3
           4           4           4           4           5           5
           5           6           6           6           7           7
           7           8           8           8           9           9
           9          10          10          10          11          11
          11          12          12          12
Primitive exponents                        R   N=          84
  5.48467166E+03  8.25234946E+02  1.88046958E+02  5.29645000E+01  1.68975704E+01
  5.79963534E+00  1.55396162E+01  3.59993359E+00  1.01376175E+00  2.70005823E-01
  8.00000000E-01  5.48467166E+03  8.25234946E+02  1.88046958E+02  5.29645000E+01
  1.68975704E+01  5.79963534E+00  1.55396162E+01  3.59993359E+00  1.01376175E+00
  2.70005823E-01  8.00000000E-01  5.48467166E+03  8.25234946E+02  1.88046958E+02
  5.29645000E+01  1.68975704E+01  5.79963534E+00  1.55396162E+01  3.59993359E+00
  1.01376175E+00  2.70005823E-01  8.00000000E-01  5.48467166E+03  8.25234946E+02
  1.88046958E+02  5.29645000E+01  1.68975704E+01  5.79963534E+00  1.55396162E+01
  3.59993359E+00  1.01376175E+00  2.70005823E-01  8.00000000E-01  1.87311370E+01
  2.82539436E+00  6.40121692E-01  1.61277759E-01  1.10000000E+00  1.87311370E+01
  2.82539436E+00  6.40121692E-01  1.61277759E-01  1.10000000E+00  1.87311370E+01
  2.82539436E+00  6.40121692E-01  1.61277759E-01  1.10000000E+00  1.87311370E+01
  2.82539436E+00  6.40121692E-01  1.61277759E-01  1.10000000E+00  1.87311370E+01
  2.82539436E+00  6.40121692E-01  1.61277759E-01  1.10000000E+00  1.87311370E+01
  2.82539436E+00  6.40121692E-01  1.61277759E-01  1.10000000E+00  1.87311370E+01
  2.82539436E+00  6.40121692E-01  1.61277759E-01  1.10000000E+00  1.87311370E+01
  2.82539436E+00  6.40121692E-01  1.61277759E-01  1.10000000E+00
Contraction coefficients                   R   N=          84
  1.83107443E-03  1.39501722E-02  6.84450781E-02  2.32714336E-01  4.70192898E-01
  3.58520853E-01 -1.10777550E-01 -1.48026263E-01  1.13076702E+00  1.00000000E+00
  1.00000000E+00  1.83107443E-03  1.39501722E-02  6.84450781E-02  2.32714336E-01
  4.70192898E-01  3.58520853E-01 -1.10777550E-01 -1.48026263E-01  1.13076702E+00
  1.00000000E+00  1.00000000E+00  1.83107443E-03  1.39501722E-02  6.84450781E-02
  2.32714336E-01  4.70192898E-01  3.58520853E-01 -1.10777550E-01 -1.48026263E-01
  1.13076702E+00  1.00000000E+00  1.00000000E+00  1.83107443E-03  1.39501722E-02
  6.84450781E-02  2.32714336E-01  4.70192898E-01  3.58520853E-01 -1.10777550E-01
 -1.48026263E-01  1.13076702E+00  1.00000000E+00  1.00000000E+00  3.34946043E-02
  2.34726953E-01  8.13757326E-01  1.00000000E+00  1.00000000E+00  3.34946043E-02
  2.34726953E-01  8.13757326E-01  1.00000000E+00  1.00000000E+00  3.34946043E-02
  2.34726953E-01  8.13757326E-01  1.00000000E+00  1.00000000E+00  3.34946043E-02
  2.34726953E-01  8.13757326E-01  1.00000000E+00  1.00000000E+00  3.34946043E-02
  2.34726953E-01  8.13757326E-01  1.00000000E+00  1.00000000E+00  3.34946043E-02
  2.34726953E-01  8.13757326E-01  1.00000000E+00  1.00000000E+00  3.34946043E-02
  2.34726953E-01  8.13757326E-01  1.00000000E+00  1.00000000E+00  3.34946043E-02
  2.34726953E-01  8.13757326E-01  1.00000000E+00  1.00000000E+00
P(S=P) Contraction coefficients            R   N=          84
  0.00000000E+00  0.00000000E+00  0.00000000E+00  0.00000000E+00  0.00000000E+00
  0.00000000E+00  7.08742682E-02  3.39752839E-01  7.27158577E-01  1.00000000E+00
  0.00000000E+00  0.00000000E+00  0.00000000E+00  0.00000000E+00  0.00000000E+00
  0.00000000E+00  0.00000000E+00  7.08742682E-02  3.39752839E-01  7.27158577E-01
  1.00000000E+00  0.00000000E+00  0.00000000E+00  0.00000000E+00  0.00000000E+00
  0.00000000E+00  0.00000000E+00  0.00000000E+00  7.08742682E-02  3.39752839E-01
  7.27158577E-01  1.00000000E+00  0.00000000E+00  0.00000000E+00  0.00000000E+00
  0.00000000E+00  0.00000000E+00  0.00000000E+00  0.00000000E+00  7.08742682E-02
  3.39752839E-01  7.27158577E-01  1.00000000E+00  0.00000000E+00  0.00000000E+00
  0.00000000E+00  0.00000000E+00  0.00000000E+00  0.00000000E+00  0.00000000E+00
  0.00000000E+00  0.00000000E+00  0.00000000E+00  0.00000000E+00  0.00000000E+00
  0.00000000E+00  0.00000000E+00  0.00000000E+00  0.00000000E+00  0.00000000E+00
  0.00000000E+00  0.00000000E+00  0.00000000E+00  0.00000000E+00  0.00000000E+00
  0.00000000E+00  0.00000000E+00  0.00000000E+00  0.00000000E+00  0.00000000E+00
  0.00000000E+00  0.00000000E+00  0.00000000E+00  0.00000000E+00  0.00000000E+00
  0.00000000E+00  0.00000000E+00  0.00000000E+00  0.00000000E+00  0.00000000E+00
  0.00000000E+00  0.00000000E+00  0.00000000E+00  0.00000000E+00
Coordinates of each shell                  R   N=         120
  1.84053920E+01 -2.75148262E+01 -2.47254336E+01  1.84053920E+01 -2.75148262E+01
 -2.47254336E+01  1.84053920E+01 -2.75148262E+01 -2.47254336E+01  1.84053920E+01
 -2.75148262E+01 -2.47254336E+01  1.05536555E+01 -2.94649215E+01 -2.16748884E+01
  1.05536555E+01 -2.94649215E+01 -2.16748884E+01  1.05536555E+01 -2.94649215E+01
 -2.16748884E+01  1.05536555E+01 -2.94649215E+01 -2.16748884E+01  1.60474257E+01
 -2.67578000E+01 -2.96895325E+01  1.60474257E+01 -2.67578000E+01 -2.96895325E+01
  1.60474257E+01 -2.67578000E+01 -2.96895325E+01  1.60474257E+01 -2.67578000E+01
 -2.96895325E+01  1.46630370E+01 -3.11898692E+01 -2.50313519E+01  1.46630370E+01
 -3.11898692E+01 -2.50313519E+01  1.46630370E+01 -3.11898692E+01 -2.50313519E+01
  1.46630370E+01 -3.11898692E+01 -2.50313519E+01  1.78327464E+01 -2.63066431E+01
 -2.35071158E+01  1.78327464E+01 -2.63066431E+01 -2.35071158E+01  1.78327464E+01
 -2.63066431E+01 -2.35071158E+01  2.01306987E+01 -2.70664981E+01 -2.50324158E+01
  2.01306987E+01 -2.70664981E+01 -2.50324158E+01  2.01306987E+01 -2.70664981E+01
 -2.50324158E+01  8.84108934E+00 -2.90041213E+01 -2.20308448E+01  8.84108934E+00
 -2.90041213E+01 -2.20308448E+01  8.84108934E+00 -2.90041213E+01 -2.20308448E+01
  1.13441828E+01 -2.79179445E+01 -2.11710515E+01  1.13441828E+01 -2.79179445E+01
 -2.11710515E+01  1.13441828E+01 -2.79179445E+01 -2.11710515E+01  1.67126282E+01
 -2.84285107E+01 -2.98848829E+01  1.67126282E+01 -2.84285107E+01 -2.98848829E+01
  1.67126282E+01 -2.84285107E+01 -2.98848829E+01  1.68532352E+01 -2.61200080E+01
 -2.82009707E+01  1.68532352E+01 -2.61200080E+01 -2.82009707E+01  1.68532352E+01
 -2.61200080E+01 -2.82009707E+01  1.38099655E+01 -3.06346091E+01 -2.35360646E+01
  1.38099655E+01 -3.06346091E+01 -2.35360646E+01  1.38099655E+01 -3.06346091E+01
 -2.35360646E+01  1.61331437E+01 -3.01406725E+01 -2.51308649E+01  1.61331437E+01
 -3.01406725E+01 -2.51308649E+01  1.61331437E+01 -3.01406725E+01 -2.51308649E+01
Num ILSW                                   I              100
ILSW                                       I   N=         100
           0           0           0           0           2           0
           0           0           0           0           0          -1
           5           0           0           0           0           0
           0           0           0           0           0           0
           1           1           0           0           0           0
           0           0      100000           0          -1           0
           0           0           0           0           0           0
           0           0           0           1           0           0
           0 -2000000000           1           0           0           0
           0           0           4          52           0           0
           0           1           0           0           0           0
           0           0           0          12           0           1
           0           0           0           0           0           0
           0           0           0           0           0           0
           0           0           0           0           0           0
           0           0           0           0           0           0
           0           0           0           0
Num RLSW                                   I               52
RLSW                                       R   N=          52
  1.00000000E+00  1.00000000E+00  1.00000000E+00  1.00000000E+00  1.00000000E+00
  0.00000000E+00  0.00000000E+00  1.00000000E+00  0.00000000E+00  0.00000000E+00
  0.00000000E+00  0.00000000E+00  1.00000000E+00  0.00000000E+00  0.00000000E+00
  0.00000000E+00  0.00000000E+00  1.00000000E+00  0.00000000E+00  0.00000000E+00
  0.00000000E+00  0.00000000E+00  1.00000000E+00  0.00000000E+00  0.00000000E+00
  0.00000000E+00  0.00000000E+00  1.00000000E+00  0.00000000E+00  0.00000000E+00
  0.00000000E+00  0.00000000E+00  1.00000000E+00  0.00000000E+00  0.00000000E+00
  0.00000000E+00  0.00000000E+00  0.00000000E+00  1.00000000E+00  1.00000000E+00
  0.00000000E+00  1.00000000E+00  0.00000000E+00  0.00000000E+00  0.00000000E+00
  0.00000000E+00  0.00000000E+00  0.00000000E+00  0.00000000E+00  0.00000000E+00
  0.00000000E+00  0.00000000E+00
MxBond                                     I                2
NBond                                      I   N=          12
           2           2           2           2           1           1
           1           1           1           1           1           1
IBond                                      I   N=          24
           5           6           7           8           9          10
          11          12           1           0           1           0
           2           0           2           0           3           0
           3           0           4           0           4           0
RBond                                      R   N=          24
  1.00000000E+00  1.00000000E+00  1.00000000E+00  1.00000000E+00  1.00000000E+00
  1.00000000E+00  1.00000000E+00  1.00000000E+00  1.00000000E+00  0.00000000E+00
  1.00000000E+00  0.00000000E+00  1.00000000E+00  0.00000000E+00  1.00000000E+00
  0.00000000E+00  1.00000000E+00  0.00000000E+00  1.00000000E+00  0.00000000E+00
  1.00000000E+00  0.00000000E+00  1.00000000E+00  0.00000000E+00
Virial Ratio                               R      2.046574662208487E+00
SCF Energy                                 R     -3.178024225052748E+02
Total Energy                               R     -3.178024225052748E+02
RMS Density                                R      6.653947718852388E-09
Job Status                                 I                1
Nuclear derivative order                   I                0
External E-field                           R   N=          35
  0.00000000E+00  0.00000000E+00  0.00000000E+00  0.00000000E+00  0.00000000E+00
  0.00000000E+00  0.00000000E+00  0.00000000E+00  0.00000000E+00  0.00000000E+00
  0.00000000E+00  0.00000000E+00  0.00000000E+00  0.00000000E+00  0.00000000E+00
  0.00000000E+00  0.00000000E+00  0.00000000E+00  0.00000000E+00  0.00000000E+00
  0.00000000E+00  0.00000000E+00  0.00000000E+00  0.00000000E+00  0.00000000E+00
  0.00000000E+00  0.00000000E+00  0.00000000E+00  0.00000000E+00  0.00000000E+00
  0.00000000E+00  0.00000000E+00  0.00000000E+00  0.00000000E+00  0.00000000E+00
IOpCl                                      I                0
IROHF                                      I                0
Alpha Orbital Energies                     R   N=          96
 -2.05846889E+01 -2.05779635E+01 -2.05297720E+01 -2.04990927E+01 -1.36963398E+00
 -1.36126666E+00 -1.31357739E+00 -1.28716520E+00 -7.29905690E-01 -7.23826808E-01
 -6.78968764E-01 -6.70481064E-01 -6.06143202E-01 -5.85363929E-01 -5.55030021E-01
 -5.26067114E-01 -5.15726460E-01 -5.06829100E-01 -4.71744016E-01 -4.43173821E-01
  1.92424034E-01  2.25365574E-01  2.74675768E-01  2.99090520E-01  3.34670581E-01
  3.58701817E-01  3.77268111E-01  4.76402692E-01  9.60814324E-01  1.00439515E+00
  1.02742495E+00  1.04459608E+00  1.07981436E+00  1.09654093E+00  1.12080765E+00
  1.13356833E+00  1.13555794E+00  1.15297198E+00  1.19041283E+00  1.21315439E+00
  1.23579384E+00  1.26491714E+00  1.27593765E+00  1.32377815E+00  1.33700245E+00
  1.36825926E+00  1.39043347E+00  1.47545282E+00  1.58180650E+00  1.62850373E+00
  1.70762559E+00  1.77429185E+00  1.77934486E+00  1.80386420E+00  1.81803719E+00
  1.82673522E+00  1.83266267E+00  1.86117233E+00  1.88330278E+00  1.93001690E+00
  1.94859694E+00  1.96163999E+00  1.99891037E+00  2.04193499E+00  2.53856068E+00
  2.56752290E+00  2.56825481E+00  2.57391249E+00  2.61850111E+00  2.62799295E+00
  2.66570921E+00  2.74067508E+00  2.78851520E+00  2.81241733E+00  2.83495994E+00
  2.93042909E+00  2.96019142E+00  2.97199463E+00  2.97739707E+00  2.99032136E+00
  3.01205072E+00  3.03136124E+00  3.06516103E+00  3.06929209E+00  3.36795265E+00
  3.37977125E+00  3.42041325E+00  3.46459471E+00  3.74108130E+00  3.75325034E+00
  3.79310162E+00  3.84675178E+00  3.91317348E+00  3.94775986E+00  3.99177010E+00
  4.06433277E+00
Alpha MO coefficients                      R   N=        9216
  9.95699467E-01  2.22227211E-02  9.42476611E-04  1.44585818E-03  7.03815902E-04
 -6.17859295E-03  7.11134256E-05 -2.95960696E-04 -7.40894208E-05 -1.11957438E-04
 -2.99264816E-04  2.92590671E-04  2.27980213E-04 -1.92231643E-05 -1.55364856E-04
 -3.96446609E-05 -1.48650739E-05  8.33153130E-06  5.00332323E-06  8.45724738E-05
  1.11229640E-04 -1.05974705E-05 -1.39266977E-05 -3.24503924E-06 -9.35277965E-06
  9.15331221E-06 -4.38806215E-06  8.72134452E-06  4.11290938E-05  1.71632016E-04
 -8.69750135E-06  2.73394909E-05  7.23039905E-06 -6.10457540E-04 -1.13252463E-04
 -2.83951747E-04 -3.79710910E-04 -9.04301422E-05 -6.93808890E-05 -2.14251637E-05
 -3.89248995E-05 -3.88591003E-05  6.78379734E-05  2.78121828E-04  6.46232759E-05
  1.70237886E-05 -3.28341910E-05 -9.42946793E-04 -6.31131559E-04 -3.02653672E-04
  2.21733610E-04  7.71605733E-05 -3.21973270E-05  1.49511885E-05 -8.52997529E-06
 -1.10451582E-04 -4.96970595E-04  1.02783089E-03 -3.90015798E-04  7.94913857E-04
  7.81653599E-04 -6.15644140E-04  9.65363066E-04  1.15680949E-03  3.20400902E-04
 -2.13580972E-04  2.10575195E-05  4.27688129E-05  8.05162609E-06 -1.77196102E-06
  4.68739735E-06 -1.99915908E-05 -3.73747144E-05 -1.88156591E-06  1.60518682E-05
  5.22237110E-06 -2.61900344E-05 -2.77405643E-04  2.84636849E-05 -3.71033356E-05
 -3.83222631E-06  8.46812615E-05  9.35874797E-04 -4.16200920E-05 -1.14468631E-04
 -3.89719713E-05  2.48682692E-06 -4.39880009E-04 -3.92374689E-06  2.93464529E-05
  5.14646182E-05  1.36501616E-04  1.55405896E-03 -3.35633020E-05  5.10327109E-05
  4.18486820E-05  1.51535584E-04 -3.75399939E-05  4.98813644E-06  1.14356579E-05
  5.07251775E-06  1.32834795E-04 -4.15901716E-05 -4.37353728E-05 -2.37363724E-06
 -7.83344542E-06  1.16537176E-06  5.35859343E-06 -1.11231353E-06  9.24205365E-06
  9.95699217E-01  2.20624417E-02 -7.80483745E-04  1.75212803E-03  2.01035954E-04
 -5.95884316E-03  5.82985520E-05 -6.91701082E-04  2.37754562E-05 -3.24200072E-04
  2.54031944E-04  1.12319431E-04  1.24783196E-04  9.38612551E-05 -9.84657872E-07
 -2.30171347E-07  8.74047403E-07  2.32593398E-06 -3.74667135E-06 -1.10784928E-05
 -2.90526826E-06 -2.42730779E-06  1.28194123E-05  2.78132831E-06  1.54336190E-06
 -1.52923021E-06 -8.14945209E-07  2.64143039E-07  3.75647353E-05  1.64570693E-04
 -8.56424732E-06 -7.55679761E-06  3.33283047E-05 -6.30943104E-04  3.02036494E-04
 -5.98533533E-05 -4.04814803E-04 -3.79329740E-05  7.51753067E-05 -4.31059980E-05
 -1.77511796E-05  3.36239311E-05  2.22263786E-05 -8.84339633E-05 -2.88900194E-07
  1.32215298E-05  9.38331755E-06 -1.37702763E-05  2.94568155E-05  2.76759295E-06
  6.69162783E-06  2.45810153E-06 -6.18295544E-04  1.14679915E-03 -1.10480174E-03
  3.54807021E-04 -2.39540728E-04 -4.42907959E-04  1.10693613E-03  4.84587020E-04
  1.00377488E-03  3.00320255E-04 -5.91593595E-06  2.44076476E-05 -9.99046691E-07
  1.66322807E-06  1.20688976E-06 -8.66159027E-06  1.16809640E-05 -7.56951105E-07
  9.20680023E-07 -3.21052962E-07  5.15439096E-05  1.06947687E-03 -3.10685605E-05
 -2.68775010E-05 -1.08563341E-04  6.84448441E-05 -3.85205998E-04  2.08409831E-05
  1.02008729E-05  8.48438117E-06 -2.36966566E-05  1.40829717E-04 -2.85841125E-05
  4.06237560E-05 -7.26905363E-05 -2.49815888E-04  1.26257688E-04 -1.60482676E-04
  3.28843900E-04 -2.25334239E-05 -1.29396775E-05  3.28450523E-05  2.44465715E-06
  1.33098365E-05  1.03380027E-06 -1.39907332E-06 -1.24612415E-06  5.55769974E-07
  4.86853504E-07  8.19761089E-08  7.15439453E-06 -4.25658047E-06 -2.74006793E-06
  9.84560776E-08 -1.05145624E-06  2.94749686E-07  1.80551838E-07  1.94622926E-07
  9.95714438E-01  2.20908996E-02  1.43442935E-03 -9.48925176E-04  1.16026173E-03
 -6.41355757E-03 -7.61845474E-04  2.89636046E-04 -7.63342095E-04 -2.36773504E-05
  1.59400938E-04  2.53730999E-04 -2.42973816E-04 -1.28719139E-04  1.17835099E-05
  2.04957820E-05  2.68953247E-06  1.76937551E-06 -1.28810293E-05 -2.45981343E-05
 -5.29551099E-05 -2.18374715E-05  6.92790411E-05  1.03055516E-05 -5.91211105E-06
  1.31350059E-05  8.97474057E-08 -1.79962921E-05  8.15330166E-05 -1.34102422E-04
 -1.26523945E-05  3.40678009E-05 -2.64063362E-05  1.07019109E-04 -1.59145118E-04
 -2.95349162E-06  2.62965760E-05 -3.06223242E-05  2.54713458E-06  9.63012685E-07
  5.00869533E-07 -3.24221337E-08  4.05937157E-07 -2.30110546E-06  7.78754026E-06
 -9.03906931E-07 -5.17602822E-07 -2.42357319E-07 -5.38686636E-04  1.21517277E-03
  4.76340889E-04 -1.07438539E-03 -6.59431727E-05 -4.85361569E-04  1.87783998E-03
  5.05786818E-04  2.95663822E-04  8.85478183E-04 -2.34331367E-05 -3.99458002E-05
 -3.39573095E-06  8.45487201E-06  1.03496629E-05  2.61427223E-05  9.02473647E-06
 -1.12712257E-05 -1.00948341E-05  8.36273896E-06 -4.87956797E-05  2.40338467E-04
 -9.88961064E-05 -1.41220765E-04 -2.28349204E-05 -3.69629038E-04  5.77946977E-04
  7.68574758E-04  1.71502117E-04  4.27333616E-05 -2.43236415E-05  1.26481695E-05
  3.46214593E-05 -8.42114150E-05 -2.51646243E-05  1.12251101E-04  8.69281646E-05
 -4.75927956E-05 -3.81144670E-05 -7.19102239E-05 -5.52690115E-04  2.09931036E-04
  1.35183451E-04 -1.04062596E-05  6.41455453E-05 -3.27356930E-05  2.02361345E-05
 -4.32565804E-05 -1.05510482E-05  1.87191084E-05 -9.22479348E-06 -1.39014526E-05
  2.52119468E-05  1.57297971E-05  1.92829540E-05 -6.18232130E-06 -1.20324862E-04
 -2.72901014E-05 -1.19099299E-05  8.60186934E-06  3.95617120E-06 -6.88350444E-06
  9.95732320E-01  2.24600493E-02  6.22017953E-04  1.44364344E-03  1.32174053E-03
 -7.74540615E-03 -7.44694284E-04 -1.11459577E-03 -7.70895454E-04  4.95201239E-05
 -2.61747359E-04  9.45391288E-05  1.26416581E-04  9.49077833E-05 -3.57035324E-05
 -3.01695560E-04 -8.51589076E-05 -6.39791738E-06  5.17932824E-05 -1.30426496E-04
 -1.97295122E-04  3.55747440E-05 -5.48685720E-05 -3.45852884E-05 -1.81432815E-04
 -1.72226694E-04 -5.90301398E-05  6.49948426E-06 -3.48604718E-05  1.31795193E-04
 -2.18613683E-04  5.36646972E-05 -2.05149998E-05 -6.78367338E-06  3.53774614E-05
 -1.90946105E-04  8.81085917E-06 -1.32011346E-05 -1.13792984E-05  6.37407050E-05
  8.76877948E-06 -6.06445603E-06 -1.28795625E-05 -1.54090775E-06 -4.44313382E-04
  1.78933369E-03 -4.64814187E-04  3.96138499E-04  8.98028557E-04 -3.32604714E-04
  2.78147061E-03  7.74074904E-04  6.49142332E-04  3.84467246E-05 -2.11585252E-01
  4.67639557E-01  3.98188009E-02  5.93969642E-02  3.04709003E-02  4.44653994E-01
  9.91344665E-03  2.08437551E-02  7.06277944E-03 -1.40508264E-03 -6.62212110E-04
  2.40229251E-03 -8.63964652E-05  3.13978682E-03 -6.61499647E-03  1.47843403E-02
 -7.05594579E-04  2.10151201E-03  1.39614240E-04  1.34265303E-02 -8.49827340E-04
  6.86090056E-04  4.09258938E-04 -3.75588919E-05  2.49721232E-05 -4.39536013E-06
  6.36066952E-05 -9.10551160E-05 -1.52374255E-02  3.31958843E-02  4.94332619E-03
 -2.29942912E-03  5.48876553E-03  3.05551871E-02  2.27867161E-03 -6.51281747E-04
  2.94456831E-03  4.17641275E-04  5.84602949E-04 -1.15520476E-04  1.56896661E-04
 -1.40547115E-04 -1.53731466E-02  3.24728104E-02  4.35585823E-03  6.35094593E-03
  3.41591945E-03  3.33106968E-02  4.84088874E-03  3.91014988E-03  3.46947308E-04
 -4.57682356E-04  2.17560714E-04  2.05237505E-04 -6.74532170E-05  9.25585756E-04
  1.40278711E-01  6.25601117E-03  1.06102770E-02 -1.66357457E-02 -1.75669557E-02
  1.42182833E-01  9.84869404E-03 -2.50972549E-02 -4.44685104E-03  5.51399344E-03
  4.23389561E-03 -1.09059628E-04  7.24739500E-04 -1.33314859E-04  1.37709121E-04
  4.40332553E-03  6.80605919E-04 -3.92142929E-04 -7.97253772E-04 -2.79397246E-04
  1.01478816E-02  2.24468030E-03 -5.59745544E-04  1.88976264E-03  5.32427339E-04
  1.41415802E-02  1.62309303E-03 -5.90284469E-04 -7.74586631E-04 -1.40705405E-03
  9.62158340E-03  3.75000493E-03  1.18195701E-03 -4.98304562E-04 -1.69786514E-03
  1.69567879E-02 -3.80353106E-03 -1.28482505E-03 -9.30480210E-04  2.04553366E-04
  7.52485892E-03 -1.65183580E-02 -1.67315586E-03 -2.36378477E-03 -1.10412656E-03
 -1.62674355E-02 -2.50553324E-04 -9.83975537E-04 -4.83288695E-04  3.19630661E-05
  3.84173883E-05 -1.33906342E-04  3.28413714E-05 -8.22580420E-05 -2.12823130E-01
  4.69140695E-01 -3.22593859E-02  7.16608832E-02  9.80504493E-03  4.50522628E-01
 -7.36963284E-03  2.46171519E-02  1.30797953E-02 -1.63513796E-03  4.81614247E-04
  1.13938473E-03  2.04316145E-04 -8.72105468E-04  4.74069202E-04 -1.04584961E-03
 -1.63322228E-04  5.60126344E-05 -1.68583732E-04 -9.24421364E-04 -8.06405188E-05
  1.54354055E-05 -6.07127159E-05 -1.08085393E-05 -1.85700675E-05  1.82401509E-06
 -7.40463255E-06  5.77281091E-06 -9.53563649E-03  2.06550433E-02 -7.56542996E-04
  3.06651766E-03  3.90845682E-03  1.88042669E-02 -1.14867115E-03  1.19424163E-03
  1.85219404E-03  1.15303152E-04 -3.60825571E-04  3.02877793E-04  8.79011003E-05
 -1.78591145E-04 -5.04542216E-03  4.99456599E-04 -3.64254806E-04  5.21578216E-04
  5.67476415E-04 -5.17750261E-03 -5.87511025E-04  9.27862604E-04  1.67194501E-04
 -1.97404941E-04  1.42267759E-01  9.44389291E-03  2.51906808E-02 -4.85088065E-03
  5.61002693E-03  1.39288379E-01  3.43447718E-03 -1.27456826E-02 -2.21663368E-02
 -7.45789204E-03 -3.11665599E-04 -3.54131657E-05  1.54237240E-05 -5.95548870E-05
 -1.52098321E-05 -4.61376083E-04 -1.01275891E-04  2.02732780E-05  2.62995371E-05
  4.57518305E-05  1.08025940E-02  2.29172402E-03  5.24574447E-04 -1.86101343E-04
 -7.40274781E-04  5.36277007E-03  9.21073684E-04 -9.96677474E-04 -6.37767798E-04
  1.59851230E-04  1.74329768E-02 -3.95374761E-02 -5.54924940E-03 -4.98862255E-03
 -6.57974357E-03 -3.65652123E-02 -3.01537169E-03 -7.08136077E-04 -5.89504122E-03
  7.06874567E-04  5.25251110E-04 -8.12151399E-04  4.34018449E-05 -4.84685000E-04
  2.53569724E-04 -6.01350747E-04  7.43667272E-05 -1.05570110E-04 -4.02232352E-05
 -4.67263433E-04  1.76139412E-04 -7.49298261E-05 -6.82269000E-05  2.18394471E-06
 -1.62211022E-05  6.36311685E-06  1.04331236E-06  5.48954122E-06 -2.11644871E-01
  4.67724556E-01  5.66361232E-02 -3.79088335E-02  4.71527910E-02  4.43934606E-01
  2.59629556E-02 -1.22812019E-02  1.69381916E-02 -1.44546825E-04  3.11086941E-03