Atom number=12                                                          
SP        RHF                                                         6-31G(d,p)          
Number of atoms                            I               12
Info1-9                                    I   N=           9
         107         106           0           0           0         111
           1           1           2
Full Title                                 C   N=           2
Atom number=12          
Route                                      C   N=           4
#p hf/6-31g** 5d 7f pop=npa charge nosymm       
Charge                                     I                0
Multiplicity                               I                1
Number of electrons                        I               40
Number of alpha electrons                  I               20
Number of beta electrons                   I               20
Number of basis functions                  I               96
Number of independent functions            I               96
Number of point charges in /Mol/           I                0
Number of translation vectors              I                0
Atomic numbers                             I   N=          12
           8           8           8           8           1           1
           1           1           1           1           1           1
Nuclear charges                            R   N=          12
  8.00000000E+00  8.00000000E+00  8.00000000E+00  8.00000000E+00  1.00000000E+00
  1.00000000E+00  1.00000000E+00  1.00000000E+00  1.00000000E+00  1.00000000E+00
  1.00000000E+00  1.00000000E+00
Current cartesian coordinates              R   N=          36
  1.84053920E+01 -2.75148262E+01 -2.47254336E+01  1.59711829E+01 -2.00983315E+01
 -2.96421136E+01  1.60474257E+01 -2.67578000E+01 -2.96895325E+01  2.01732119E+01
 -2.25352958E+01 -2.98939423E+01  1.78327464E+01 -2.63066431E+01 -2.35071158E+01
  2.01306987E+01 -2.70664981E+01 -2.50324158E+01  1.53540909E+01 -1.96661077E+01
 -3.12865930E+01  1.75030005E+01 -2.10073446E+01 -2.99570119E+01  1.67126282E+01
 -2.84285107E+01 -2.98848829E+01  1.68532352E+01 -2.61200080E+01 -2.82009707E+01
  2.10617025E+01 -2.31675113E+01 -2.84507471E+01  2.03511466E+01 -2.38337078E+01
 -3.11406929E+01
Number of symbols in /Mol/                 I                0
Force Field                                I                0
Atom Types                                 C   N=          12
                                                            
                                                            
                        
Int Atom Types                             I   N=          12
           0           0           0           0           0           0
           0           0           0           0           0           0
MM charges                                 R   N=          12
  0.00000000E+00  0.00000000E+00  0.00000000E+00  0.00000000E+00  0.00000000E+00
  0.00000000E+00  0.00000000E+00  0.00000000E+00  0.00000000E+00  0.00000000E+00
  0.00000000E+00  0.00000000E+00
Integer atomic weights                     I   N=          12
          16          16          16          16           1           1
           1           1           1           1           1           1
Real atomic weights                        R   N=          12
  1.59949146E+01  1.59949146E+01  1.59949146E+01  1.59949146E+01  1.00782504E+00
  1.00782504E+00  1.00782504E+00  1.00782504E+00  1.00782504E+00  1.00782504E+00
  1.00782504E+00  1.00782504E+00
Atom fragment info                         I   N=          12
           0           0           0           0           0           0
           0           0           0           0           0           0
Atom residue num                           I   N=          12
           0           0           0           0           0           0
           0           0           0           0           0           0
Nuclear spins                              I   N=          12
           0           0           0           0           1           1
           1           1           1           1           1           1
Nuclear ZEff                               R   N=          12
 -5.60000000E+00 -5.60000000E+00 -5.60000000E+00 -5.60000000E+00 -1.00000000E+00
 -1.00000000E+00 -1.00000000E+00 -1.00000000E+00 -1.00000000E+00 -1.00000000E+00
 -1.00000000E+00 -1.00000000E+00
Nuclear ZNuc                               R   N=          12
  8.00000000E+00  8.00000000E+00  8.00000000E+00  8.00000000E+00  1.00000000E+00
  1.00000000E+00  1.00000000E+00  1.00000000E+00  1.00000000E+00  1.00000000E+00
  1.00000000E+00  1.00000000E+00
Nuclear QMom                               R   N=          12
  0.00000000E+00  0.00000000E+00  0.00000000E+00  0.00000000E+00  0.00000000E+00
  0.00000000E+00  0.00000000E+00  0.00000000E+00  0.00000000E+00  0.00000000E+00
  0.00000000E+00  0.00000000E+00
Nuclear GFac                               R   N=          12
  0.00000000E+00  0.00000000E+00  0.00000000E+00  0.00000000E+00  2.79284600E+00
  2.79284600E+00  2.79284600E+00  2.79284600E+00  2.79284600E+00  2.79284600E+00
  2.79284600E+00  2.79284600E+00
MicOpt                                     I   N=          12
          -1          -1          -1          -1          -1          -1
          -1          -1          -1          -1          -1          -1
Number of residues                         I                0
Number of secondary structures             I                0
Number of contracted shells                I               40
Number of primitive shells                 I               84
Pure/Cartesian d shells                    I                0
Pure/Cartesian f shells                    I                0
Highest angular momentum                   I                2
Largest degree of contraction              I                6
Shell types                                I   N=          40
           0          -1          -1          -2           0          -1
          -1          -2           0          -1          -1          -2
           0          -1          -1          -2           0           0
           1           0           0           1           0           0
           1           0           0           1           0           0
           1           0           0           1           0           0
           1           0           0           1
Number of primitives per shell             I   N=          40
           6           3           1           1           6           3
           1           1           6           3           1           1
           6           3           1           1           3           1
           1           3           1           1           3           1
           1           3           1           1           3           1
           1           3           1           1           3           1
           1           3           1           1
Shell to atom map                          I   N=          40
           1           1           1           1           2           2
           2           2           3           3           3           3
           4           4           4           4           5           5
           5           6           6           6           7           7
           7           8           8           8           9           9
           9          10          10          10          11          11
          11          12          12          12
Primitive exponents                        R   N=          84
  5.48467166E+03  8.25234946E+02  1.88046958E+02  5.29645000E+01  1.68975704E+01
  5.79963534E+00  1.55396162E+01  3.59993359E+00  1.01376175E+00  2.70005823E-01
  8.00000000E-01  5.48467166E+03  8.25234946E+02  1.88046958E+02  5.29645000E+01
  1.68975704E+01  5.79963534E+00  1.55396162E+01  3.59993359E+00  1.01376175E+00
  2.70005823E-01  8.00000000E-01  5.48467166E+03  8.25234946E+02  1.88046958E+02
  5.29645000E+01  1.68975704E+01  5.79963534E+00  1.55396162E+01  3.59993359E+00
  1.01376175E+00  2.70005823E-01  8.00000000E-01  5.48467166E+03  8.25234946E+02
  1.88046958E+02  5.29645000E+01  1.68975704E+01  5.79963534E+00  1.55396162E+01
  3.59993359E+00  1.01376175E+00  2.70005823E-01  8.00000000E-01  1.87311370E+01
  2.82539436E+00  6.40121692E-01  1.61277759E-01  1.10000000E+00  1.87311370E+01
  2.82539436E+00  6.40121692E-01  1.61277759E-01  1.10000000E+00  1.87311370E+01
  2.82539436E+00  6.40121692E-01  1.61277759E-01  1.10000000E+00  1.87311370E+01
  2.82539436E+00  6.40121692E-01  1.61277759E-01  1.10000000E+00  1.87311370E+01
  2.82539436E+00  6.40121692E-01  1.61277759E-01  1.10000000E+00  1.87311370E+01
  2.82539436E+00  6.40121692E-01  1.61277759E-01  1.10000000E+00  1.87311370E+01
  2.82539436E+00  6.40121692E-01  1.61277759E-01  1.10000000E+00  1.87311370E+01
  2.82539436E+00  6.40121692E-01  1.61277759E-01  1.10000000E+00
Contraction coefficients                   R   N=          84
  1.83107443E-03  1.39501722E-02  6.84450781E-02  2.32714336E-01  4.70192898E-01
  3.58520853E-01 -1.10777550E-01 -1.48026263E-01  1.13076702E+00  1.00000000E+00
  1.00000000E+00  1.83107443E-03  1.39501722E-02  6.84450781E-02  2.32714336E-01
  4.70192898E-01  3.58520853E-01 -1.10777550E-01 -1.48026263E-01  1.13076702E+00
  1.00000000E+00  1.00000000E+00  1.83107443E-03  1.39501722E-02  6.84450781E-02
  2.32714336E-01  4.70192898E-01  3.58520853E-01 -1.10777550E-01 -1.48026263E-01
  1.13076702E+00  1.00000000E+00  1.00000000E+00  1.83107443E-03  1.39501722E-02
  6.84450781E-02  2.32714336E-01  4.70192898E-01  3.58520853E-01 -1.10777550E-01
 -1.48026263E-01  1.13076702E+00  1.00000000E+00  1.00000000E+00  3.34946043E-02
  2.34726953E-01  8.13757326E-01  1.00000000E+00  1.00000000E+00  3.34946043E-02
  2.34726953E-01  8.13757326E-01  1.00000000E+00  1.00000000E+00  3.34946043E-02
  2.34726953E-01  8.13757326E-01  1.00000000E+00  1.00000000E+00  3.34946043E-02
  2.34726953E-01  8.13757326E-01  1.00000000E+00  1.00000000E+00  3.34946043E-02
  2.34726953E-01  8.13757326E-01  1.00000000E+00  1.00000000E+00  3.34946043E-02
  2.34726953E-01  8.13757326E-01  1.00000000E+00  1.00000000E+00  3.34946043E-02
  2.34726953E-01  8.13757326E-01  1.00000000E+00  1.00000000E+00  3.34946043E-02
  2.34726953E-01  8.13757326E-01  1.00000000E+00  1.00000000E+00
P(S=P) Contraction coefficients            R   N=          84
  0.00000000E+00  0.00000000E+00  0.00000000E+00  0.00000000E+00  0.00000000E+00
  0.00000000E+00  7.08742682E-02  3.39752839E-01  7.27158577E-01  1.00000000E+00
  0.00000000E+00  0.00000000E+00  0.00000000E+00  0.00000000E+00  0.00000000E+00
  0.00000000E+00  0.00000000E+00  7.08742682E-02  3.39752839E-01  7.27158577E-01
  1.00000000E+00  0.00000000E+00  0.00000000E+00  0.00000000E+00  0.00000000E+00
  0.00000000E+00  0.00000000E+00  0.00000000E+00  7.08742682E-02  3.39752839E-01
  7.27158577E-01  1.00000000E+00  0.00000000E+00  0.00000000E+00  0.00000000E+00
  0.00000000E+00  0.00000000E+00  0.00000000E+00  0.00000000E+00  7.08742682E-02
  3.39752839E-01  7.27158577E-01  1.00000000E+00  0.00000000E+00  0.00000000E+00
  0.00000000E+00  0.00000000E+00  0.00000000E+00  0.00000000E+00  0.00000000E+00
  0.00000000E+00  0.00000000E+00  0.00000000E+00  0.00000000E+00  0.00000000E+00
  0.00000000E+00  0.00000000E+00  0.00000000E+00  0.00000000E+00  0.00000000E+00
  0.00000000E+00  0.00000000E+00  0.00000000E+00  0.00000000E+00  0.00000000E+00
  0.00000000E+00  0.00000000E+00  0.00000000E+00  0.00000000E+00  0.00000000E+00
  0.00000000E+00  0.00000000E+00  0.00000000E+00  0.00000000E+00  0.00000000E+00
  0.00000000E+00  0.00000000E+00  0.00000000E+00  0.00000000E+00  0.00000000E+00
  0.00000000E+00  0.00000000E+00  0.00000000E+00  0.00000000E+00
Coordinates of each shell                  R   N=         120
  1.84053920E+01 -2.75148262E+01 -2.47254336E+01  1.84053920E+01 -2.75148262E+01
 -2.47254336E+01  1.84053920E+01 -2.75148262E+01 -2.47254336E+01  1.84053920E+01
 -2.75148262E+01 -2.47254336E+01  1.59711829E+01 -2.00983315E+01 -2.96421136E+01
  1.59711829E+01 -2.00983315E+01 -2.96421136E+01  1.59711829E+01 -2.00983315E+01
 -2.96421136E+01  1.59711829E+01 -2.00983315E+01 -2.96421136E+01  1.60474257E+01
 -2.67578000E+01 -2.96895325E+01  1.60474257E+01 -2.67578000E+01 -2.96895325E+01
  1.60474257E+01 -2.67578000E+01 -2.96895325E+01  1.60474257E+01 -2.67578000E+01
 -2.96895325E+01  2.01732119E+01 -2.25352958E+01 -2.98939423E+01  2.01732119E+01
 -2.25352958E+01 -2.98939423E+01  2.01732119E+01 -2.25352958E+01 -2.98939423E+01
  2.01732119E+01 -2.25352958E+01 -2.98939423E+01  1.78327464E+01 -2.63066431E+01
 -2.35071158E+01  1.78327464E+01 -2.63066431E+01 -2.35071158E+01  1.78327464E+01
 -2.63066431E+01 -2.35071158E+01  2.01306987E+01 -2.70664981E+01 -2.50324158E+01
  2.01306987E+01 -2.70664981E+01 -2.50324158E+01  2.01306987E+01 -2.70664981E+01
 -2.50324158E+01  1.53540909E+01 -1.96661077E+01 -3.12865930E+01  1.53540909E+01
 -1.96661077E+01 -3.12865930E+01  1.53540909E+01 -1.96661077E+01 -3.12865930E+01
  1.75030005E+01 -2.10073446E+01 -2.99570119E+01  1.75030005E+01 -2.10073446E+01
 -2.99570119E+01  1.75030005E+01 -2.10073446E+01 -2.99570119E+01  1.67126282E+01
 -2.84285107E+01 -2.98848829E+01  1.67126282E+01 -2.84285107E+01 -2.98848829E+01
  1.67126282E+01 -2.84285107E+01 -2.98848829E+01  1.68532352E+01 -2.61200080E+01
 -2.82009707E+01  1.68532352E+01 -2.61200080E+01 -2.82009707E+01  1.68532352E+01
 -2.61200080E+01 -2.82009707E+01  2.10617025E+01 -2.31675113E+01 -2.84507471E+01
  2.10617025E+01 -2.31675113E+01 -2.84507471E+01  2.10617025E+01 -2.31675113E+01
 -2.84507471E+01  2.03511466E+01 -2.38337078E+01 -3.11406929E+01  2.03511466E+01
 -2.38337078E+01 -3.11406929E+01  2.03511466E+01 -2.38337078E+01 -3.11406929E+01
Num ILSW                                   I              100
ILSW                                       I   N=         100
           0           0           0           0           2           0
           0           0           0           0           0          -1
           5           0           0           0           0           0
           0           0           0           0           0           0
           1           1           0           0           0           0
           0           0      100000           0          -1           0
           0           0           0           0           0           0
           0           0           0           1           0           0
           0 -2000000000           1           0           0           0
           0           0           4          52           0           0
           0           1           0           0           0           0
           0           0           0          12           0           1
           0           0           0           0           0           0
           0           0           0           0           0           0
           0           0           0           0           0           0
           0           0           0           0           0           0
           0           0           0           0
Num RLSW                                   I               52
RLSW                                       R   N=          52
  1.00000000E+00  1.00000000E+00  1.00000000E+00  1.00000000E+00  1.00000000E+00
  0.00000000E+00  0.00000000E+00  1.00000000E+00  0.00000000E+00  0.00000000E+00
  0.00000000E+00  0.00000000E+00  1.00000000E+00  0.00000000E+00  0.00000000E+00
  0.00000000E+00  0.00000000E+00  1.00000000E+00  0.00000000E+00  0.00000000E+00
  0.00000000E+00  0.00000000E+00  1.00000000E+00  0.00000000E+00  0.00000000E+00
  0.00000000E+00  0.00000000E+00  1.00000000E+00  0.00000000E+00  0.00000000E+00
  0.00000000E+00  0.00000000E+00  1.00000000E+00  0.00000000E+00  0.00000000E+00
  0.00000000E+00  0.00000000E+00  0.00000000E+00  1.00000000E+00  1.00000000E+00
  0.00000000E+00  1.00000000E+00  0.00000000E+00  0.00000000E+00  0.00000000E+00
  0.00000000E+00  0.00000000E+00  0.00000000E+00  0.00000000E+00  0.00000000E+00
  0.00000000E+00  0.00000000E+00
MxBond                                     I                2
NBond                                      I   N=          12
           2           2           2           2           1           1
           1           1           1           1           1           1
IBond                                      I   N=          24
           5           6           7           8           9          10
          11          12           1           0           1           0
           2           0           2           0           3           0
           3           0           4           0           4           0
RBond                                      R   N=          24
  1.00000000E+00  1.00000000E+00  1.00000000E+00  1.00000000E+00  1.00000000E+00
  1.00000000E+00  1.00000000E+00  1.00000000E+00  1.00000000E+00  0.00000000E+00
  1.00000000E+00  0.00000000E+00  1.00000000E+00  0.00000000E+00  1.00000000E+00
  0.00000000E+00  1.00000000E+00  0.00000000E+00  1.00000000E+00  0.00000000E+00
  1.00000000E+00  0.00000000E+00  1.00000000E+00  0.00000000E+00
Virial Ratio                               R      2.046423575136827E+00
SCF Energy                                 R     -3.177920377930981E+02
Total Energy                               R     -3.177920377930981E+02
RMS Density                                R      8.748140301938852E-09
Job Status                                 I                1
Nuclear derivative order                   I                0
External E-field                           R   N=          35
  0.00000000E+00  0.00000000E+00  0.00000000E+00  0.00000000E+00  0.00000000E+00
  0.00000000E+00  0.00000000E+00  0.00000000E+00  0.00000000E+00  0.00000000E+00
  0.00000000E+00  0.00000000E+00  0.00000000E+00  0.00000000E+00  0.00000000E+00
  0.00000000E+00  0.00000000E+00  0.00000000E+00  0.00000000E+00  0.00000000E+00
  0.00000000E+00  0.00000000E+00  0.00000000E+00  0.00000000E+00  0.00000000E+00
  0.00000000E+00  0.00000000E+00  0.00000000E+00  0.00000000E+00  0.00000000E+00
  0.00000000E+00  0.00000000E+00  0.00000000E+00  0.00000000E+00  0.00000000E+00
IOpCl                                      I                0
IROHF                                      I                0
Alpha Orbital Energies                     R   N=          96
 -2.05891398E+01 -2.05808061E+01 -2.05385079E+01 -2.05224927E+01 -1.37797238E+00
 -1.36308524E+00 -1.32688077E+00 -1.30609926E+00 -7.35500826E-01 -7.23836437E-01
 -7.18162630E-01 -6.72125426E-01 -6.08608785E-01 -6.03212018E-01 -5.56547741E-01
 -5.47151461E-01 -5.25378695E-01 -5.08391393E-01 -4.85605257E-01 -4.61712153E-01
  1.65094805E-01  2.32526331E-01  2.58101726E-01  2.72092428E-01  3.03862111E-01
  3.43335842E-01  3.91241559E-01  4.75865104E-01  9.43869605E-01  9.72125445E-01
  9.85853816E-01  1.03352663E+00  1.05673354E+00  1.06819375E+00  1.09095545E+00
  1.10295845E+00  1.13165338E+00  1.16000866E+00  1.18366807E+00  1.19272612E+00
  1.22376511E+00  1.25887278E+00  1.27958042E+00  1.29992284E+00  1.32364824E+00
  1.36198483E+00  1.37635527E+00  1.39420421E+00  1.60085756E+00  1.60942813E+00
  1.69775780E+00  1.76599617E+00  1.77931468E+00  1.78680807E+00  1.80414718E+00
  1.83347064E+00  1.84006473E+00  1.85393216E+00  1.88126992E+00  1.89770385E+00
  1.94875079E+00  1.95105802E+00  1.97862940E+00  2.01162550E+00  2.52137804E+00
  2.56211364E+00  2.56769629E+00  2.56882390E+00  2.62976063E+00  2.63255052E+00
  2.63830498E+00  2.73345378E+00  2.78022455E+00  2.79271789E+00  2.84847525E+00
  2.91670372E+00  2.94881466E+00  2.96326848E+00  2.99123521E+00  2.99460579E+00
  3.02206582E+00  3.04438267E+00  3.05510551E+00  3.10123341E+00  3.35810159E+00
  3.36362371E+00  3.42628190E+00  3.43137296E+00  3.72999088E+00  3.75506497E+00
  3.80941730E+00  3.83005819E+00  3.88652362E+00  3.92129332E+00  4.00892573E+00
  4.07085635E+00
Alpha MO coefficients                      R   N=        9216
 -1.45986542E-05 -1.17021389E-05 -9.32262205E-06  1.74715211E-05 -1.97858011E-05
  1.31059432E-04  1.22816685E-04 -3.22782185E-05  5.00596365E-05 -1.25018333E-05
 -7.02857048E-06  7.47028806E-06  1.98334805E-05  1.28043966E-05  1.24764687E-04
  4.08846973E-04  7.85174580E-05 -4.77635077E-05 -7.84157493E-07 -1.46769345E-03
 -7.16149593E-04  4.36740377E-04  3.52905785E-05  4.32357864E-05  3.10548011E-06
 -2.28121462E-06 -4.04417436E-05  8.72019445E-05  9.49884864E-06  6.86234577E-05
 -9.33436878E-06  1.66673890E-05 -8.34214400E-06 -2.13393108E-04 -3.86138513E-05
 -1.60535357E-04 -8.77393111E-05 -1.68633987E-05 -1.50598615E-05 -1.02611303E-05
 -5.02485442E-06 -2.51198401E-05  9.95699232E-01  2.23284774E-02  7.19461997E-04
 -1.65409599E-03  1.89203349E-04 -6.47611154E-03  4.26565364E-04  2.50368306E-04
 -7.07591883E-06  3.50505078E-04  2.47134303E-04  1.37522457E-04 -1.89600759E-04
 -8.93363952E-05  1.52259950E-05 -6.20567780E-06 -6.96360766E-06  9.19451985E-06
 -8.24454530E-06  1.78451905E-05 -2.55117189E-04  4.06250503E-05  1.15444292E-05
 -8.84641805E-06  1.29517967E-04 -4.26238945E-04 -2.23385334E-06  1.01943470E-06
 -1.19890690E-05  2.71063040E-04  2.20733874E-03  1.18349743E-04 -8.73280939E-05
  8.53064286E-05 -7.74518480E-06 -1.20536283E-04  8.12366831E-06 -1.78014594E-05
 -2.15853087E-06 -2.88597850E-06  2.85368826E-04 -3.05999024E-05 -2.38135755E-05
 -4.62855892E-05 -6.33757566E-04  1.02662060E-03  5.49562549E-04 -4.35102261E-04
  9.74001593E-04 -5.15009921E-04  1.00267161E-03  6.55781362E-05 -8.55884481E-04
 -8.18367253E-04  9.95705163E-01  2.20977612E-02  1.00209762E-03  1.54691226E-03
  7.22955187E-04 -6.11989074E-03 -3.98356961E-04 -7.97225729E-04 -1.10625308E-04
 -1.16547908E-04 -2.81907400E-04  2.95736195E-04  1.76888491E-04  2.03184303E-06
 -7.74065674E-06 -1.67065725E-05 -5.60450922E-06 -8.68934774E-06  2.94006321E-06
  9.83004647E-05  5.48154020E-05  1.84136963E-06 -2.53575904E-05  3.33252980E-06
 -2.98471640E-07 -2.86539413E-07  9.61020770E-06 -6.86192229E-06  5.33004314E-05
  2.10234280E-04 -7.27934410E-06  3.51794868E-05 -6.56745510E-06 -8.49223463E-04
 -1.67933973E-04 -2.76034836E-04 -3.84823332E-04 -8.12211629E-05 -7.56924933E-05
 -3.71944751E-05 -3.70088138E-05 -3.18545753E-05  9.94651716E-06 -1.78395295E-05
 -2.81448210E-05 -3.04854705E-05  1.32270285E-05  1.74490073E-04  1.03701570E-04
  8.67080467E-05  4.19942523E-05  9.96100076E-06  1.55935650E-05 -2.98297913E-06
  1.55705493E-05 -2.07570302E-05 -4.69672759E-04  1.13311537E-03 -3.24749781E-04
  8.22755145E-04  7.56324595E-04 -4.65967016E-04  1.23353264E-03  1.07983987E-03
  3.49862162E-04 -1.85331474E-04 -1.96503739E-05  1.82850680E-05 -5.18076615E-06
 -2.39849433E-06 -3.50395872E-06  1.75144461E-05 -1.49652767E-04  1.57926936E-05
 -1.75886774E-05 -3.09040829E-06 -4.03399120E-05 -1.13722309E-04  1.63862846E-05
 -1.23219416E-05  6.72510057E-06  3.61655158E-05  1.15756551E-03 -5.26627931E-05
 -1.21895360E-04 -7.33011944E-05  5.31750125E-05 -3.09450497E-04  1.90721257E-05
 -1.86515567E-05  3.04052072E-05  3.71671401E-05 -6.14788349E-06 -9.80247122E-06
 -8.63597818E-06  9.83427034E-06  6.17877464E-06 -3.33989487E-06  4.54934109E-06
 -5.89018603E-06  8.83691259E-06 -2.50632350E-05 -5.25310069E-05  1.66707045E-05
 -1.99238202E-05  6.13891160E-06  2.59205282E-06 -1.98225604E-06 -7.40714509E-06
 -5.94567750E-06  9.95726670E-01  2.25340798E-02  8.18825766E-04 -3.82645101E-04
 -1.77686687E-03 -7.88712202E-03 -1.41649392E-03  7.98923815E-04  8.72608077E-04
  1.87208269E-04  1.88146236E-04 -1.32458482E-04  8.27781757E-05 -1.79730797E-04
  2.70657934E-05  8.78323397E-06 -2.30851117E-06  3.16610263E-05 -1.15546188E-05
  8.04845101E-05  3.63729854E-05 -1.60913093E-04  3.19565843E-05 -1.02345871E-05
 -7.64205012E-06  5.52302628E-07  1.66760839E-06 -3.03157387E-05 -8.40978569E-05
  4.07299190E-04 -1.60405567E-04  1.17418261E-04 -3.44370375E-05 -9.63235946E-04
  1.11409469E-03 -7.47304833E-04  2.48862515E-04  1.10221583E-04  1.32936546E-05
 -3.92821818E-05 -1.00348783E-04  1.14823135E-04 -4.35553446E-06 -1.68286138E-05
  1.91946609E-06 -6.79088528E-07  6.21808917E-06 -8.00909963E-06  9.79032362E-05
 -1.49067880E-05 -4.30377749E-06  3.97380959E-06 -3.95853835E-04  7.16923738E-04
 -3.35202875E-04  2.44915462E-04 -1.13716063E-03 -1.98234552E-04  4.05080376E-03
  8.48242921E-04 -4.91245063E-04 -1.65998642E-04 -7.75042797E-05 -3.15462326E-05
  1.03062346E-05 -2.05133110E-05 -6.26179172E-06  4.93389915E-05 -1.45897623E-04
 -3.35798758E-07  9.84007748E-06  2.70983499E-07 -1.33756850E-04 -3.71740274E-04
 -9.28747935E-06  1.57689287E-05  8.42371250E-05  7.10056747E-05 -2.79502802E-04
 -8.21295513E-05  2.66697935E-05 -6.46993058E-05 -3.12389690E-05  1.60158982E-04
 -3.33824329E-05  3.88614316E-05 -7.84450957E-05 -2.97195683E-04  1.25957493E-04
 -1.61138659E-04  3.58346092E-04 -2.30663533E-05 -1.37857671E-05  3.68935489E-05
 -2.50057336E-07  1.33160399E-05 -2.88732002E-05  1.64420548E-05 -2.00530784E-06
 -1.15622933E-05  6.75105492E-06 -1.54345215E-05 -1.85892561E-05  5.09882861E-05
 -3.51602609E-05  1.65613036E-05  7.22758268E-06 -2.85669152E-06  2.81864634E-06
  7.75304292E-06  9.95716084E-01  2.21152007E-02  1.42110421E-03 -9.53068494E-04
  1.16055924E-03 -6.50698999E-03 -7.82842537E-04  2.56531122E-04 -8.16437551E-04
 -3.39238774E-05  1.50910935E-04  2.48509651E-04 -2.45918123E-04 -1.33232734E-04
 -9.00369267E-07  6.34704799E-05 -1.24925340E-05 -1.18279877E-05  1.11448097E-05
 -1.67391189E-04  5.78386015E-05  1.26502769E-04  3.70726811E-05 -1.75761058E-06
  6.65560320E-06  2.79714456E-06  1.33394823E-05 -1.34552137E-05  8.56941493E-05
 -1.55490638E-04 -1.62128872E-05  3.60476471E-05 -2.64566927E-05  1.03678066E-04
 -1.17969457E-04 -1.06610518E-05  2.56484915E-05 -3.34341451E-05 -2.15340058E-05
 -1.28743896E-05 -3.51558058E-06 -2.90181344E-06 -9.29163734E-06  3.09539043E-05
 -1.76765909E-05 -3.94875241E-06  1.64685542E-06  4.94360443E-06 -5.27310681E-04
  1.16761400E-03  4.79743614E-04 -1.07884929E-03 -6.43266347E-05 -4.80534304E-04
  2.01545954E-03  4.94121103E-04  2.84058146E-04  8.62494865E-04  8.04734307E-05
 -1.88408902E-04  8.37643659E-06 -5.72377850E-06  1.00423514E-05 -6.26366294E-06
  2.13386364E-04 -5.48361978E-06  2.56445206E-05  3.50892669E-05 -6.07333501E-03
  1.38346127E-02  1.20841937E-03  1.82318043E-03  6.10069680E-04  1.08946564E-02
 -5.33318767E-04  8.13671301E-04  2.54226034E-04  1.67453437E-05  1.85831273E-07
  5.86476300E-05 -1.32609838E-04  3.64397450E-05 -4.42178863E-02  9.50315943E-02
  1.34073417E-02 -7.27855711E-03 -1.41105886E-02  9.68567993E-02  9.50212913E-03
 -4.61991129E-03 -4.19276029E-03 -3.28627748E-04 -5.82164011E-04  4.63332967E-04
  1.08006928E-03 -1.36586258E-03 -6.34548757E-03  1.37062337E-02  2.49860334E-03
 -9.07798121E-05  1.52192103E-03  1.24634208E-02  1.59440943E-03  1.18924741E-03
 -2.54241764E-04 -9.90528372E-05  7.59044593E-05 -1.42336292E-06  8.98152874E-05
  2.47341621E-04 -2.07628316E-01  4.58827950E-01  2.96756012E-02 -6.56006113E-02
  7.24533235E-03  4.37067139E-01  1.25636530E-03 -2.08160167E-02  1.75817771E-03
 -8.83938390E-04  1.46078736E-03  3.07208463E-04 -6.16289713E-04 -5.10282450E-03
  3.99484208E-03 -9.53526094E-05  3.11979107E-04 -4.87604411E-04 -4.89228458E-04
  4.05768098E-03  3.06389388E-03 -1.02239402E-03 -1.99404272E-04  1.77320221E-04
  2.74978921E-02  5.34457052E-03  2.23218081E-03 -1.58662277E-03  4.65103046E-03
  4.14178299E-02 -8.52253327E-03 -3.37984373E-03  2.25464160E-03  2.62656889E-04
  3.95705068E-03  7.31889368E-04 -2.93264337E-04  7.62470091E-04  1.76952685E-04
  5.07731605E-03  2.28484320E-03 -1.23221122E-04 -1.14459670E-04 -8.15626562E-04
  1.38353975E-01  8.85649216E-03 -1.20723928E-02  6.54198880E-03 -2.13069448E-02
  1.37936690E-01  7.60564333E-03 -9.16676685E-04  1.70593230E-02  1.90796734E-02
 -2.12274955E-01  4.69299599E-01  4.07736853E-02  6.06802606E-02  3.11673418E-02
  4.45887499E-01  1.15042350E-02  2.28986450E-02  7.94335055E-03 -1.31818952E-03
 -7.37817709E-04  2.39471217E-03  3.93383128E-05  2.90596921E-03  1.77936942E-03
 -3.89957304E-03 -4.98703584E-04  2.48515150E-04  5.82618735E-04 -3.69010370E-03
 -2.71060068E-04  3.05813824E-05  2.00828324E-04 -1.65842001E-06  1.54913655E-05
 -1.02496569E-05 -4.78735032E-05  4.36699709E-05 -1.44795982E-02  3.14155003E-02
  4.68909442E-03 -2.19263341E-03  5.32268110E-03  2.97091432E-02  2.28637331E-03
 -5.10591760E-04  2.97513818E-03  4.28474498E-04  5.95103070E-04 -7.31901993E-05
  1.58156032E-04 -1.38642259E-04  6.70486369E-03 -1.43652128E-02 -9.20904729E-04
  1.95987364E-03 -9.30759705E-06 -1.65874348E-02 -1.33275925E-03  6.63303633E-04
 -1.14819637E-03 -9.98662095E-05 -2.25538166E-04  1.00087797E-04 -3.80400642E-05
  2.79920243E-04  1.41291939E-01  6.56308637E-03  1.05806716E-02 -1.67175446E-02
 -1.75990751E-02  1.43025650E-01  8.72214622E-03 -2.51178630E-02 -4.49094693E-03
  5.56894881E-03 -1.14525445E-03 -1.10111579E-04 -8.48625716E-05  6.69085903E-05
 -1.83308841E-04 -1.62640901E-03 -8.66367341E-05  1.20390457E-04 -7.18306025E-05
 -5.74913350E-06  9.68086273E-03  1.79252951E-03 -5.16367650E-04  1.77216498E-03
  4.96756367E-04  1.37035193E-02  6.10669665E-04 -5.37500085E-04 -7.29404163E-04
 -1.22632349E-03 -4.37207528E-03  4.12455493E-03  1.31240859E-04 -7.58536720E-05
  3.26444302E-04 -4.46504888E-03 -5.80695357E-04  8.18737311E-05 -5.68751007E-04
 -6.09224487E-04 -3.63841372E-04  8.18640566E-04 -1.16850059E-05  1.21316789E-04
  1.18140330E-05  1.11157020E-03  5.79607401E-04 -1.56340605E-04  3.28106763E-04
 -4.65296465E-05 -2.10037764E-05  2.39647802E-05  5.48257507E-05  4.23533665E-05
 -2.07905460E-01  4.56580879E-01  3.31624222E-02 -1.57314376E-02 -6.94395524E-02
  4.43169216E-01  1.59637014E-02 -5.33738419E-03 -2.26435885E-02  1.97429854E-03
 -5.46921489E-04  7.59769665E-04  2.74244112E-03 -2.22028843E-03 -5.85165495E-04
  1.47649644E-03 -2.83816427E-05 -9.00729179E-05  1.56208817E-04 -1.40947608E-05
 -6.93963346E-04  1.16516449E-03 -4.21546894E-04  5.39125443E-05  5.56925098E-06