Atom number=12                                                          
SP        RHF                                                         6-31G(d,p)          
Number of atoms                            I               12
Info1-9                                    I   N=           9
         107         106           0           0           0         111
           1           1           2
Full Title                                 C   N=           2
Atom number=12          
Route                                      C   N=           4
#p hf/6-31g** 5d 7f pop=npa charge nosymm       
Charge                                     I                0
Multiplicity                               I                1
Number of electrons                        I               40
Number of alpha electrons                  I               20
Number of beta electrons                   I               20
Number of basis functions                  I               96
Number of independent functions            I               96
Number of point charges in /Mol/           I                0
Number of translation vectors              I                0
Atomic numbers                             I   N=          12
           8           8           8           8           1           1
           1           1           1           1           1           1
Nuclear charges                            R   N=          12
  8.00000000E+00  8.00000000E+00  8.00000000E+00  8.00000000E+00  1.00000000E+00
  1.00000000E+00  1.00000000E+00  1.00000000E+00  1.00000000E+00  1.00000000E+00
  1.00000000E+00  1.00000000E+00
Current cartesian coordinates              R   N=          36
  1.58591958E+01 -2.23232232E+01 -2.11658453E+01  1.31641969E+01 -1.74757998E+01
 -1.94156226E+01  1.79028344E+01 -1.51124951E+01 -2.06321073E+01  1.61361371E+01
 -1.18317680E+01 -2.44688390E+01  1.54490326E+01 -2.36930366E+01 -2.00580047E+01
  1.74840371E+01 -2.17584956E+01 -2.06064713E+01  1.31811270E+01 -1.86043839E+01
 -2.08291075E+01  1.45213642E+01 -1.63243462E+01 -1.97383746E+01  1.88925747E+01
 -1.66213261E+01 -2.05065293E+01  1.81855715E+01 -1.42529872E+01 -1.90658267E+01
  1.67808285E+01 -1.29429912E+01 -2.31954641E+01  1.75304658E+01 -1.15707137E+01
 -2.55911701E+01
Number of symbols in /Mol/                 I                0
Force Field                                I                0
Atom Types                                 C   N=          12
                                                            
                                                            
                        
Int Atom Types                             I   N=          12
           0           0           0           0           0           0
           0           0           0           0           0           0
MM charges                                 R   N=          12
  0.00000000E+00  0.00000000E+00  0.00000000E+00  0.00000000E+00  0.00000000E+00
  0.00000000E+00  0.00000000E+00  0.00000000E+00  0.00000000E+00  0.00000000E+00
  0.00000000E+00  0.00000000E+00
Integer atomic weights                     I   N=          12
          16          16          16          16           1           1
           1           1           1           1           1           1
Real atomic weights                        R   N=          12
  1.59949146E+01  1.59949146E+01  1.59949146E+01  1.59949146E+01  1.00782504E+00
  1.00782504E+00  1.00782504E+00  1.00782504E+00  1.00782504E+00  1.00782504E+00
  1.00782504E+00  1.00782504E+00
Atom fragment info                         I   N=          12
           0           0           0           0           0           0
           0           0           0           0           0           0
Atom residue num                           I   N=          12
           0           0           0           0           0           0
           0           0           0           0           0           0
Nuclear spins                              I   N=          12
           0           0           0           0           1           1
           1           1           1           1           1           1
Nuclear ZEff                               R   N=          12
 -5.60000000E+00 -5.60000000E+00 -5.60000000E+00 -5.60000000E+00 -1.00000000E+00
 -1.00000000E+00 -1.00000000E+00 -1.00000000E+00 -1.00000000E+00 -1.00000000E+00
 -1.00000000E+00 -1.00000000E+00
Nuclear ZNuc                               R   N=          12
  8.00000000E+00  8.00000000E+00  8.00000000E+00  8.00000000E+00  1.00000000E+00
  1.00000000E+00  1.00000000E+00  1.00000000E+00  1.00000000E+00  1.00000000E+00
  1.00000000E+00  1.00000000E+00
Nuclear QMom                               R   N=          12
  0.00000000E+00  0.00000000E+00  0.00000000E+00  0.00000000E+00  0.00000000E+00
  0.00000000E+00  0.00000000E+00  0.00000000E+00  0.00000000E+00  0.00000000E+00
  0.00000000E+00  0.00000000E+00
Nuclear GFac                               R   N=          12
  0.00000000E+00  0.00000000E+00  0.00000000E+00  0.00000000E+00  2.79284600E+00
  2.79284600E+00  2.79284600E+00  2.79284600E+00  2.79284600E+00  2.79284600E+00
  2.79284600E+00  2.79284600E+00
MicOpt                                     I   N=          12
          -1          -1          -1          -1          -1          -1
          -1          -1          -1          -1          -1          -1
Number of residues                         I                0
Number of secondary structures             I                0
Number of contracted shells                I               40
Number of primitive shells                 I               84
Pure/Cartesian d shells                    I                0
Pure/Cartesian f shells                    I                0
Highest angular momentum                   I                2
Largest degree of contraction              I                6
Shell types                                I   N=          40
           0          -1          -1          -2           0          -1
          -1          -2           0          -1          -1          -2
           0          -1          -1          -2           0           0
           1           0           0           1           0           0
           1           0           0           1           0           0
           1           0           0           1           0           0
           1           0           0           1
Number of primitives per shell             I   N=          40
           6           3           1           1           6           3
           1           1           6           3           1           1
           6           3           1           1           3           1
           1           3           1           1           3           1
           1           3           1           1           3           1
           1           3           1           1           3           1
           1           3           1           1
Shell to atom map                          I   N=          40
           1           1           1           1           2           2
           2           2           3           3           3           3
           4           4           4           4           5           5
           5           6           6           6           7           7
           7           8           8           8           9           9
           9          10          10          10          11          11
          11          12          12          12
Primitive exponents                        R   N=          84
  5.48467166E+03  8.25234946E+02  1.88046958E+02  5.29645000E+01  1.68975704E+01
  5.79963534E+00  1.55396162E+01  3.59993359E+00  1.01376175E+00  2.70005823E-01
  8.00000000E-01  5.48467166E+03  8.25234946E+02  1.88046958E+02  5.29645000E+01
  1.68975704E+01  5.79963534E+00  1.55396162E+01  3.59993359E+00  1.01376175E+00
  2.70005823E-01  8.00000000E-01  5.48467166E+03  8.25234946E+02  1.88046958E+02
  5.29645000E+01  1.68975704E+01  5.79963534E+00  1.55396162E+01  3.59993359E+00
  1.01376175E+00  2.70005823E-01  8.00000000E-01  5.48467166E+03  8.25234946E+02
  1.88046958E+02  5.29645000E+01  1.68975704E+01  5.79963534E+00  1.55396162E+01
  3.59993359E+00  1.01376175E+00  2.70005823E-01  8.00000000E-01  1.87311370E+01
  2.82539436E+00  6.40121692E-01  1.61277759E-01  1.10000000E+00  1.87311370E+01
  2.82539436E+00  6.40121692E-01  1.61277759E-01  1.10000000E+00  1.87311370E+01
  2.82539436E+00  6.40121692E-01  1.61277759E-01  1.10000000E+00  1.87311370E+01
  2.82539436E+00  6.40121692E-01  1.61277759E-01  1.10000000E+00  1.87311370E+01
  2.82539436E+00  6.40121692E-01  1.61277759E-01  1.10000000E+00  1.87311370E+01
  2.82539436E+00  6.40121692E-01  1.61277759E-01  1.10000000E+00  1.87311370E+01
  2.82539436E+00  6.40121692E-01  1.61277759E-01  1.10000000E+00  1.87311370E+01
  2.82539436E+00  6.40121692E-01  1.61277759E-01  1.10000000E+00
Contraction coefficients                   R   N=          84
  1.83107443E-03  1.39501722E-02  6.84450781E-02  2.32714336E-01  4.70192898E-01
  3.58520853E-01 -1.10777550E-01 -1.48026263E-01  1.13076702E+00  1.00000000E+00
  1.00000000E+00  1.83107443E-03  1.39501722E-02  6.84450781E-02  2.32714336E-01
  4.70192898E-01  3.58520853E-01 -1.10777550E-01 -1.48026263E-01  1.13076702E+00
  1.00000000E+00  1.00000000E+00  1.83107443E-03  1.39501722E-02  6.84450781E-02
  2.32714336E-01  4.70192898E-01  3.58520853E-01 -1.10777550E-01 -1.48026263E-01
  1.13076702E+00  1.00000000E+00  1.00000000E+00  1.83107443E-03  1.39501722E-02
  6.84450781E-02  2.32714336E-01  4.70192898E-01  3.58520853E-01 -1.10777550E-01
 -1.48026263E-01  1.13076702E+00  1.00000000E+00  1.00000000E+00  3.34946043E-02
  2.34726953E-01  8.13757326E-01  1.00000000E+00  1.00000000E+00  3.34946043E-02
  2.34726953E-01  8.13757326E-01  1.00000000E+00  1.00000000E+00  3.34946043E-02
  2.34726953E-01  8.13757326E-01  1.00000000E+00  1.00000000E+00  3.34946043E-02
  2.34726953E-01  8.13757326E-01  1.00000000E+00  1.00000000E+00  3.34946043E-02
  2.34726953E-01  8.13757326E-01  1.00000000E+00  1.00000000E+00  3.34946043E-02
  2.34726953E-01  8.13757326E-01  1.00000000E+00  1.00000000E+00  3.34946043E-02
  2.34726953E-01  8.13757326E-01  1.00000000E+00  1.00000000E+00  3.34946043E-02
  2.34726953E-01  8.13757326E-01  1.00000000E+00  1.00000000E+00
P(S=P) Contraction coefficients            R   N=          84
  0.00000000E+00  0.00000000E+00  0.00000000E+00  0.00000000E+00  0.00000000E+00
  0.00000000E+00  7.08742682E-02  3.39752839E-01  7.27158577E-01  1.00000000E+00
  0.00000000E+00  0.00000000E+00  0.00000000E+00  0.00000000E+00  0.00000000E+00
  0.00000000E+00  0.00000000E+00  7.08742682E-02  3.39752839E-01  7.27158577E-01
  1.00000000E+00  0.00000000E+00  0.00000000E+00  0.00000000E+00  0.00000000E+00
  0.00000000E+00  0.00000000E+00  0.00000000E+00  7.08742682E-02  3.39752839E-01
  7.27158577E-01  1.00000000E+00  0.00000000E+00  0.00000000E+00  0.00000000E+00
  0.00000000E+00  0.00000000E+00  0.00000000E+00  0.00000000E+00  7.08742682E-02
  3.39752839E-01  7.27158577E-01  1.00000000E+00  0.00000000E+00  0.00000000E+00
  0.00000000E+00  0.00000000E+00  0.00000000E+00  0.00000000E+00  0.00000000E+00
  0.00000000E+00  0.00000000E+00  0.00000000E+00  0.00000000E+00  0.00000000E+00
  0.00000000E+00  0.00000000E+00  0.00000000E+00  0.00000000E+00  0.00000000E+00
  0.00000000E+00  0.00000000E+00  0.00000000E+00  0.00000000E+00  0.00000000E+00
  0.00000000E+00  0.00000000E+00  0.00000000E+00  0.00000000E+00  0.00000000E+00
  0.00000000E+00  0.00000000E+00  0.00000000E+00  0.00000000E+00  0.00000000E+00
  0.00000000E+00  0.00000000E+00  0.00000000E+00  0.00000000E+00  0.00000000E+00
  0.00000000E+00  0.00000000E+00  0.00000000E+00  0.00000000E+00
Coordinates of each shell                  R   N=         120
  1.58591958E+01 -2.23232232E+01 -2.11658453E+01  1.58591958E+01 -2.23232232E+01
 -2.11658453E+01  1.58591958E+01 -2.23232232E+01 -2.11658453E+01  1.58591958E+01
 -2.23232232E+01 -2.11658453E+01  1.31641969E+01 -1.74757998E+01 -1.94156226E+01
  1.31641969E+01 -1.74757998E+01 -1.94156226E+01  1.31641969E+01 -1.74757998E+01
 -1.94156226E+01  1.31641969E+01 -1.74757998E+01 -1.94156226E+01  1.79028344E+01
 -1.51124951E+01 -2.06321073E+01  1.79028344E+01 -1.51124951E+01 -2.06321073E+01
  1.79028344E+01 -1.51124951E+01 -2.06321073E+01  1.79028344E+01 -1.51124951E+01
 -2.06321073E+01  1.61361371E+01 -1.18317680E+01 -2.44688390E+01  1.61361371E+01
 -1.18317680E+01 -2.44688390E+01  1.61361371E+01 -1.18317680E+01 -2.44688390E+01
  1.61361371E+01 -1.18317680E+01 -2.44688390E+01  1.54490326E+01 -2.36930366E+01
 -2.00580047E+01  1.54490326E+01 -2.36930366E+01 -2.00580047E+01  1.54490326E+01
 -2.36930366E+01 -2.00580047E+01  1.74840371E+01 -2.17584956E+01 -2.06064713E+01
  1.74840371E+01 -2.17584956E+01 -2.06064713E+01  1.74840371E+01 -2.17584956E+01
 -2.06064713E+01  1.31811270E+01 -1.86043839E+01 -2.08291075E+01  1.31811270E+01
 -1.86043839E+01 -2.08291075E+01  1.31811270E+01 -1.86043839E+01 -2.08291075E+01
  1.45213642E+01 -1.63243462E+01 -1.97383746E+01  1.45213642E+01 -1.63243462E+01
 -1.97383746E+01  1.45213642E+01 -1.63243462E+01 -1.97383746E+01  1.88925747E+01
 -1.66213261E+01 -2.05065293E+01  1.88925747E+01 -1.66213261E+01 -2.05065293E+01
  1.88925747E+01 -1.66213261E+01 -2.05065293E+01  1.81855715E+01 -1.42529872E+01
 -1.90658267E+01  1.81855715E+01 -1.42529872E+01 -1.90658267E+01  1.81855715E+01
 -1.42529872E+01 -1.90658267E+01  1.67808285E+01 -1.29429912E+01 -2.31954641E+01
  1.67808285E+01 -1.29429912E+01 -2.31954641E+01  1.67808285E+01 -1.29429912E+01
 -2.31954641E+01  1.75304658E+01 -1.15707137E+01 -2.55911701E+01  1.75304658E+01
 -1.15707137E+01 -2.55911701E+01  1.75304658E+01 -1.15707137E+01 -2.55911701E+01
Num ILSW                                   I              100
ILSW                                       I   N=         100
           0           0           0           0           2           0
           0           0           0           0           0          -1
           5           0           0           0           0           0
           0           0           0           0           0           0
           1           1           0           0           0           0
           0           0      100000           0          -1           0
           0           0           0           0           0           0
           0           0           0           1           0           0
           0 -2000000000           1           0           0           0
           0           0           4          52           0           0
           0           1           0           0           0           0
           0           0           0          12           0           1
           0           0           0           0           0           0
           0           0           0           0           0           0
           0           0           0           0           0           0
           0           0           0           0           0           0
           0           0           0           0
Num RLSW                                   I               52
RLSW                                       R   N=          52
  1.00000000E+00  1.00000000E+00  1.00000000E+00  1.00000000E+00  1.00000000E+00
  0.00000000E+00  0.00000000E+00  1.00000000E+00  0.00000000E+00  0.00000000E+00
  0.00000000E+00  0.00000000E+00  1.00000000E+00  0.00000000E+00  0.00000000E+00
  0.00000000E+00  0.00000000E+00  1.00000000E+00  0.00000000E+00  0.00000000E+00
  0.00000000E+00  0.00000000E+00  1.00000000E+00  0.00000000E+00  0.00000000E+00
  0.00000000E+00  0.00000000E+00  1.00000000E+00  0.00000000E+00  0.00000000E+00
  0.00000000E+00  0.00000000E+00  1.00000000E+00  0.00000000E+00  0.00000000E+00
  0.00000000E+00  0.00000000E+00  0.00000000E+00  1.00000000E+00  1.00000000E+00
  0.00000000E+00  1.00000000E+00  0.00000000E+00  0.00000000E+00  0.00000000E+00
  0.00000000E+00  0.00000000E+00  0.00000000E+00  0.00000000E+00  0.00000000E+00
  0.00000000E+00  0.00000000E+00
MxBond                                     I                2
NBond                                      I   N=          12
           2           2           2           2           1           1
           1           1           1           1           1           1
IBond                                      I   N=          24
           5           6           7           8           9          10
          11          12           1           0           1           0
           2           0           2           0           3           0
           3           0           4           0           4           0
RBond                                      R   N=          24
  1.00000000E+00  1.00000000E+00  1.00000000E+00  1.00000000E+00  1.00000000E+00
  1.00000000E+00  1.00000000E+00  1.00000000E+00  1.00000000E+00  0.00000000E+00
  1.00000000E+00  0.00000000E+00  1.00000000E+00  0.00000000E+00  1.00000000E+00
  0.00000000E+00  1.00000000E+00  0.00000000E+00  1.00000000E+00  0.00000000E+00
  1.00000000E+00  0.00000000E+00  1.00000000E+00  0.00000000E+00
Virial Ratio                               R      2.046420246510575E+00
SCF Energy                                 R     -3.177317356900875E+02
Total Energy                               R     -3.177317356900875E+02
RMS Density                                R      8.870387917782829E-09
Job Status                                 I                1
Nuclear derivative order                   I                0
External E-field                           R   N=          35
  0.00000000E+00  0.00000000E+00  0.00000000E+00  0.00000000E+00  0.00000000E+00
  0.00000000E+00  0.00000000E+00  0.00000000E+00  0.00000000E+00  0.00000000E+00
  0.00000000E+00  0.00000000E+00  0.00000000E+00  0.00000000E+00  0.00000000E+00
  0.00000000E+00  0.00000000E+00  0.00000000E+00  0.00000000E+00  0.00000000E+00
  0.00000000E+00  0.00000000E+00  0.00000000E+00  0.00000000E+00  0.00000000E+00
  0.00000000E+00  0.00000000E+00  0.00000000E+00  0.00000000E+00  0.00000000E+00
  0.00000000E+00  0.00000000E+00  0.00000000E+00  0.00000000E+00  0.00000000E+00
IOpCl                                      I                0
IROHF                                      I                0
Alpha Orbital Energies                     R   N=          96
 -2.06114393E+01 -2.05442724E+01 -2.05314772E+01 -2.05021256E+01 -1.39646701E+00
 -1.32720169E+00 -1.31571811E+00 -1.28790759E+00 -7.54922361E-01 -6.86516809E-01
 -6.86052364E-01 -6.72792171E-01 -6.11385613E-01 -5.76931365E-01 -5.62751588E-01
 -5.34653822E-01 -5.12806356E-01 -4.94385651E-01 -4.71432893E-01 -4.45153275E-01
  1.67144737E-01  2.44492195E-01  2.85404722E-01  2.94097581E-01  3.26169447E-01
  3.97685446E-01  4.13931575E-01  4.66904611E-01  9.49544429E-01  1.01033150E+00
  1.04881842E+00  1.06001832E+00  1.06390808E+00  1.11417012E+00  1.11644698E+00
  1.13242411E+00  1.14104434E+00  1.17875669E+00  1.19369349E+00  1.21420317E+00
  1.22515338E+00  1.25467435E+00  1.27768276E+00  1.30295837E+00  1.33044701E+00
  1.34324909E+00  1.38726345E+00  1.42318974E+00  1.57429332E+00  1.65667951E+00
  1.71353912E+00  1.75596381E+00  1.77320408E+00  1.82205373E+00  1.82814598E+00
  1.83947565E+00  1.84481090E+00  1.85648913E+00  1.86293305E+00  1.91967742E+00
  1.95462942E+00  1.97238470E+00  1.97744261E+00  2.05806698E+00  2.52032410E+00
  2.53326905E+00  2.60710115E+00  2.61130145E+00  2.61606029E+00  2.63692258E+00
  2.66059631E+00  2.73862433E+00  2.77700417E+00  2.83745420E+00  2.85223215E+00
  2.90732677E+00  2.94117807E+00  2.97470516E+00  3.00107266E+00  3.00890435E+00
  3.03327650E+00  3.03426781E+00  3.05473960E+00  3.07812824E+00  3.34559335E+00
  3.40822885E+00  3.41651852E+00  3.43785559E+00  3.72593509E+00  3.78647949E+00
  3.80808472E+00  3.83206740E+00  3.90639226E+00  3.95978995E+00  4.00705801E+00
  4.03789361E+00
Alpha MO coefficients                      R   N=        9216
 -2.01431716E-05 -4.51155199E-05  8.32533322E-07  3.68752216E-06  4.52844791E-06
  1.90611440E-04  7.45197529E-05  2.25981150E-05  2.09151466E-05 -7.54483321E-06
  7.25014010E-06 -4.28993258E-06  1.08022465E-05  6.49501208E-06  6.80011853E-05
  2.71565482E-04  2.38730953E-05  6.30520877E-05  8.66479096E-06 -9.02687618E-04
 -4.03577878E-04 -4.61798104E-04 -1.13444173E-05  5.15123249E-05  3.18470561E-05
  4.20234238E-05 -5.18567196E-05 -8.28687265E-05  9.95704550E-01  2.22731102E-02
  9.89972872E-04 -5.40619391E-04  1.53917878E-03 -6.29326139E-03  1.04932028E-04
  3.33100997E-05 -3.77892890E-04  2.34097757E-05  1.25622180E-04  2.99629774E-04
 -2.40166311E-04 -3.12903775E-04  6.53880298E-05  2.89598520E-04  2.27313469E-06
 -4.34078563E-05  5.98859891E-05 -9.56313014E-04 -1.03315162E-04  3.81277254E-04
 -4.95862291E-04 -2.53406695E-05 -5.23974555E-05  7.82515537E-05  2.63382395E-05
  4.13125295E-05 -2.85672264E-05  4.85775329E-05 -1.13323533E-06 -6.43261429E-07
  2.59806453E-06  1.74889238E-05 -2.55423733E-04  3.91004770E-05  5.07365533E-06
  1.41778735E-05  4.61726966E-06 -2.61082003E-04  1.15926824E-05 -7.64089081E-06
 -3.78779226E-05  1.38633646E-04  1.29069560E-03  6.73405098E-05 -6.34574580E-05
 -1.68980498E-05 -6.19781946E-04  1.03878445E-03  6.36358799E-04 -1.01353251E-03
  1.05105187E-04 -4.45827983E-04  9.10934345E-04  1.62427653E-04  5.77502520E-04
  1.05923418E-03  1.51223175E-04  1.35161091E-03 -5.47880669E-06 -1.61505586E-05
  2.86425932E-05  3.97890541E-05 -2.80851525E-04  2.78065364E-05 -6.99406892E-06
 -5.32343926E-06  9.95701394E-01  2.20311821E-02  1.05232508E-03 -6.71658881E-04
  1.48101633E-03 -6.00450830E-03 -4.54555667E-04  2.14642251E-04 -6.88586949E-04
 -1.17222035E-04  7.31011519E-05 -2.45854728E-04  5.86846916E-05  3.35667579E-04
  9.18976742E-06  8.71780266E-05 -2.66234813E-05  1.57049586E-05 -4.29081644E-06
 -3.99612220E-04  9.55671014E-05  1.82591106E-04  2.07324487E-04 -2.96298004E-05
  7.39448447E-07 -5.23493795E-05  2.84493092E-05  1.29976209E-05  1.23956184E-05
 -4.76528692E-05 -4.41229906E-06 -6.00656079E-07 -9.97342371E-07  2.11050243E-04
  6.02772946E-05 -9.83993462E-05  2.17702490E-05 -9.28489778E-06  1.22694110E-06
  1.57567864E-06 -5.16678532E-06 -1.97300657E-05  4.37193348E-06  7.14384341E-06
  2.84787674E-07 -4.12209353E-07  7.13688691E-07 -2.86068606E-05 -5.22629326E-06
  8.52463156E-06 -1.03825984E-05 -8.79081891E-07 -4.06854534E-07  1.98814736E-06
  2.22814403E-07  6.39217571E-07 -5.12888844E-04  1.19310754E-03 -2.17797059E-04
 -8.54190549E-04  7.39093147E-04 -5.08910818E-04  1.29395727E-03  1.00944990E-03
  3.25623979E-04  3.95657001E-04 -2.12162942E-05  6.54487817E-04  9.78767127E-06
  5.54991978E-05  9.95685779E-05  3.70584682E-06 -1.66428338E-04  6.98159103E-06
  2.10484435E-05 -1.26051910E-05 -9.30689794E-07 -2.73903426E-04  3.20110704E-05
 -3.34061129E-05  8.60981734E-07 -3.08584653E-05  5.65692701E-05 -4.32498406E-06
  2.91409409E-06  3.27150227E-07  3.04832149E-06  4.04579965E-05 -1.85003002E-06
  5.67445323E-07 -5.38546496E-08  2.92655858E-06 -5.52485966E-06 -2.46408673E-07
 -6.11371947E-08  3.19915883E-07 -1.01776814E-06  4.77170706E-05 -2.12968584E-05
  2.44878238E-05 -1.66896661E-05 -3.88523253E-05  1.06301038E-04 -1.46656251E-04
  7.49237426E-05  1.82286744E-05  8.52189700E-06 -1.70512341E-05  8.78125919E-06
  2.74783042E-05  9.95717171E-01  2.22845151E-02  1.22534705E-03  5.33615563E-05
 -1.48026204E-03 -7.05952867E-03 -1.01230165E-03 -4.50771999E-04  7.94491974E-04
  2.74848285E-05 -2.90438240E-05  2.81988505E-04 -1.17630360E-04  2.03557337E-04
 -4.61949500E-05  2.27013763E-04 -1.43092037E-04 -4.80417889E-05  3.01607339E-05
 -4.01538027E-04  6.42340433E-04  2.01222773E-04 -1.82862726E-04  1.95074279E-05
  6.50717355E-05 -1.41821206E-05 -6.93487100E-05 -7.80390873E-05 -4.84961815E-05
 -6.04389421E-05 -3.53538371E-06 -5.22593846E-06 -1.43709407E-06  2.79406939E-04
  7.77212103E-05 -8.29090255E-05  1.06574630E-04  6.68943362E-06  1.15455225E-05
 -2.62970162E-05  9.69472948E-07 -1.68998338E-05 -3.58305662E-05 -5.91607819E-05
 -2.18953091E-05 -1.14643155E-05  7.36248068E-06 -2.15214595E-05 -3.31547032E-05
  8.88274213E-06  2.02161783E-05 -7.82451797E-06 -4.80715844E-04  1.17674382E-03
  8.04548813E-05 -6.54802301E-04 -9.13215535E-04 -3.93338070E-04  2.59205254E-03
  7.65283421E-04  5.60096316E-04 -2.35249443E-04  6.91299562E-06 -1.19458009E-04
 -3.33994799E-05 -5.65729295E-05  2.28663589E-05  1.39748753E-04 -2.40047783E-04
 -5.64144141E-05 -7.45759815E-06  2.71420315E-05  9.59693729E-06 -3.66264639E-04
  1.79845286E-05 -4.61486247E-05  5.64272957E-05 -3.78061249E-05  5.12453390E-05
 -1.04482487E-06  3.09836736E-06 -8.56044283E-06 -2.99104312E-06  8.98277602E-06
  9.35164144E-07 -2.42660838E-06 -9.69076316E-07 -4.55514940E-05 -2.17036846E-05
  1.07372891E-06 -6.84538779E-06  1.25065536E-06 -1.84501909E-06  1.94241490E-06
 -2.55709192E-06 -2.26234902E-06  3.83279723E-05 -5.51922205E-05  1.59144575E-06
  5.96111211E-07 -9.00328122E-06  2.50182165E-04  1.08311337E-04  9.79556882E-05
  5.26997694E-06 -1.93231190E-05 -8.33085876E-06 -7.93128675E-06  8.57279464E-06
  2.95153341E-05 -4.65317778E-05  2.52016461E-04 -4.63975986E-05  1.24621879E-04
 -1.55084604E-04 -3.70754451E-04  3.37858661E-04 -7.05904674E-04  7.80729826E-04
 -5.73704208E-05 -3.00189217E-05  9.18447041E-05  3.13117867E-05 -6.36116246E-06
  9.95726808E-01  2.23397350E-02  1.92937290E-03 -7.86938012E-04  1.66842659E-04
 -7.27270420E-03 -1.07252612E-03  9.04811339E-04 -7.59641330E-04  1.02377984E-04
 -2.51114166E-04 -2.18783774E-04  1.29932811E-04  2.39876150E-05  8.39187700E-06
 -9.10556371E-06  1.19094742E-06  4.82600485E-07 -1.33576312E-06 -4.46989468E-06
  6.38924280E-05 -9.29003056E-06 -2.06217923E-06 -3.33591479E-06  5.11992293E-06
  2.98668200E-05 -3.71002057E-06  9.47901190E-07  1.32979459E-06 -2.35872316E-06
 -3.29185316E-04  4.54035854E-05  4.42203342E-05 -1.33615096E-05 -1.72104166E-04
 -2.81397911E-04  3.88324229E-05 -4.60924469E-05 -7.53642334E-05 -1.33182064E-05
 -2.10099680E-04 -2.63465844E-05  1.08679372E-04 -1.90840691E-05 -3.36288738E-04
  3.12060478E-03  3.90893973E-04 -5.96556012E-04  6.63705874E-04 -4.58269557E-04
  8.76955958E-04  9.86721867E-04  1.15842945E-04 -6.94499738E-04 -9.19578632E-04
  2.33940131E-03  2.18230159E-04  6.72951035E-05  2.77439259E-04  3.98843705E-04
 -7.91732248E-04  1.35225589E-04 -1.75577075E-04  2.94663891E-05 -5.19930253E-05
  3.90941954E-05 -7.69356031E-05 -8.01333310E-05 -1.37762521E-02  2.95412842E-02
  5.87802836E-03  1.89604549E-03 -3.97381115E-03  2.83036803E-02  3.22495944E-03
  1.26805754E-03 -9.63196882E-04 -1.56812292E-04 -3.68146727E-04 -8.37949813E-05
  4.48453154E-04  2.85148253E-04 -2.11869031E-01  4.68575798E-01  4.34323029E-02
 -2.27356140E-02  6.32699736E-02  4.44271397E-01  1.16593082E-02 -7.56852924E-03
  2.53697353E-02  1.61015793E-03  2.53167728E-03 -1.13022802E-03 -4.72714954E-04
 -1.93956797E-03 -9.40232363E-03  1.93355288E-02  3.84304033E-03 -3.02450334E-03
  2.52525736E-03  2.14398173E-02  1.90631028E-03 -2.91633809E-03  3.44895598E-03
  1.27835719E-04  4.00289444E-04 -5.72738507E-04 -6.74446015E-05 -3.84926305E-04
  7.67098515E-04 -3.40977437E-04  6.75314764E-05  1.05223135E-04 -8.52700704E-05
  5.27010774E-04  2.64953015E-03 -3.68099730E-04 -1.24007252E-04 -1.15087251E-04
  8.29400198E-03  1.07365434E-03  1.51594417E-04  1.16235720E-03  1.27550766E-03
  1.51753016E-02  9.81741601E-04 -1.50247461E-03 -1.23466681E-03  3.21733461E-04
  1.40020818E-01  5.36768764E-03 -1.34598137E-02  2.27199379E-02  5.91288207E-04
  1.44218425E-01  1.13160840E-02 -2.52144654E-03 -1.46663512E-02 -2.16973847E-02
  1.22267843E-02 -3.47939613E-03 -1.53854664E-04  5.29881313E-04 -6.95002048E-04
  5.26949075E-03  2.12455217E-03 -8.72498691E-04 -2.11408739E-04  7.85817402E-04
 -2.08476481E-01  4.58994664E-01  4.29579861E-02 -2.73273468E-02  5.85858082E-02
  4.42437899E-01  1.64388415E-02 -6.81085314E-03  1.95009745E-02  2.68732021E-04
  2.23246403E-03 -2.37261727E-03  1.46279885E-04 -8.30590647E-05 -4.38708813E-02
  9.62959162E-02  1.08480383E-02 -1.24370863E-03 -1.29922542E-02  9.21821242E-02
  4.83936347E-03 -1.00031962E-03 -3.01767371E-03  1.43444530E-05 -6.23790686E-04
  4.24818474E-04  1.43198448E-04  7.10265810E-05  4.46243108E-03 -9.66817482E-03
 -2.02300043E-03 -1.25783128E-04 -1.28594010E-03 -1.13680551E-02 -2.43875842E-03
  5.22389030E-04 -3.73852783E-04 -2.93975121E-05 -2.13658337E-04 -3.93136495E-05
  1.56121582E-04  3.49309138E-04  4.99879691E-04 -1.06498205E-03 -1.96451957E-04
  1.07765114E-04 -6.54031006E-05 -1.13172149E-03 -1.27299240E-04  9.31222753E-05
 -1.02833046E-04 -2.68886365E-06 -1.47009602E-05  2.45663583E-05 -4.23680099E-06
  1.95745538E-05  1.37782613E-01  7.62630857E-03  7.33008527E-03  2.01072252E-02
 -1.47654129E-02  1.36826367E-01  4.43264531E-03 -2.36236695E-02 -9.80823773E-03
 -6.71245336E-03  3.09357952E-02  4.07827080E-03  6.55166332E-04  3.09559819E-03
  4.02224312E-03  2.89041455E-02  8.59582095E-04 -3.96919686E-03 -3.61949530E-03
  6.70704551E-04 -3.14176828E-03  3.72602554E-03  3.32151990E-05 -1.69035524E-04
 -4.82827991E-05 -3.20775153E-03 -4.98092545E-04  8.07802402E-05  2.83079716E-04
  4.37758512E-04 -4.92402518E-04  1.19099742E-04  7.13399239E-06 -2.90854690E-06
  2.36810604E-07 -3.06812724E-04 -7.38294613E-05  4.65578738E-05  9.46719202E-06
 -3.77182128E-05  4.50685599E-02 -1.00035989E-01 -1.04249302E-02  7.64467112E-03
 -1.25396327E-02 -9.54746893E-02 -5.80123190E-03  4.91586642E-03 -4.14276361E-03
 -2.56823224E-04 -6.33902248E-04  8.79809116E-04 -2.40484142E-04 -3.73190709E-04
 -2.08114917E-01  4.57605071E-01  4.99973284E-02  1.10698566E-03 -5.87676949E-02
  4.44064561E-01  1.93086240E-02  9.80739173E-04 -1.58563165E-02  3.67063944E-04
 -2.72382316E-03  1.12405437E-03  1.15682725E-03  1.72496465E-03  1.53869733E-02
 -3.53121727E-02 -8.80989213E-03 -1.66168446E-04 -4.26718186E-03 -3.18226909E-02
 -7.23071903E-03 -2.54382774E-03 -6.45842079E-04 -5.23885525E-04 -8.46553240E-04