Atom number=12                                                          
SP        RHF                                                         6-31G(d,p)          
Number of atoms                            I               12
Info1-9                                    I   N=           9
         107         106           0           0           0         111
           1           1           2
Full Title                                 C   N=           2
Atom number=12          
Route                                      C   N=           4
#p hf/6-31g** 5d 7f pop=npa charge nosymm       
Charge                                     I                0
Multiplicity                               I                1
Number of electrons                        I               40
Number of alpha electrons                  I               20
Number of beta electrons                   I               20
Number of basis functions                  I               96
Number of independent functions            I               96
Number of point charges in /Mol/           I                0
Number of translation vectors              I                0
Atomic numbers                             I   N=          12
           8           8           8           8           1           1
           1           1           1           1           1           1
Nuclear charges                            R   N=          12
  8.00000000E+00  8.00000000E+00  8.00000000E+00  8.00000000E+00  1.00000000E+00
  1.00000000E+00  1.00000000E+00  1.00000000E+00  1.00000000E+00  1.00000000E+00
  1.00000000E+00  1.00000000E+00
Current cartesian coordinates              R   N=          36
  1.37010511E+01 -1.86319947E+01 -2.47619431E+01  1.90577217E+01 -1.81470343E+01
 -2.58786843E+01  1.59711829E+01 -2.00983315E+01 -2.96421136E+01  2.01732119E+01
 -2.25352958E+01 -2.98939423E+01  1.34560972E+01 -1.93157846E+01 -2.64185526E+01
  1.38733941E+01 -2.00816358E+01 -2.36938794E+01  1.85910557E+01 -1.86665521E+01
 -2.75472898E+01  1.75122961E+01 -1.81949823E+01 -2.49399156E+01  1.53540909E+01
 -1.96661077E+01 -3.12865930E+01  1.75030005E+01 -2.10073446E+01 -2.99570119E+01
  2.10617025E+01 -2.31675113E+01 -2.84507471E+01  2.03511466E+01 -2.38337078E+01
 -3.11406929E+01
Number of symbols in /Mol/                 I                0
Force Field                                I                0
Atom Types                                 C   N=          12
                                                            
                                                            
                        
Int Atom Types                             I   N=          12
           0           0           0           0           0           0
           0           0           0           0           0           0
MM charges                                 R   N=          12
  0.00000000E+00  0.00000000E+00  0.00000000E+00  0.00000000E+00  0.00000000E+00
  0.00000000E+00  0.00000000E+00  0.00000000E+00  0.00000000E+00  0.00000000E+00
  0.00000000E+00  0.00000000E+00
Integer atomic weights                     I   N=          12
          16          16          16          16           1           1
           1           1           1           1           1           1
Real atomic weights                        R   N=          12
  1.59949146E+01  1.59949146E+01  1.59949146E+01  1.59949146E+01  1.00782504E+00
  1.00782504E+00  1.00782504E+00  1.00782504E+00  1.00782504E+00  1.00782504E+00
  1.00782504E+00  1.00782504E+00
Atom fragment info                         I   N=          12
           0           0           0           0           0           0
           0           0           0           0           0           0
Atom residue num                           I   N=          12
           0           0           0           0           0           0
           0           0           0           0           0           0
Nuclear spins                              I   N=          12
           0           0           0           0           1           1
           1           1           1           1           1           1
Nuclear ZEff                               R   N=          12
 -5.60000000E+00 -5.60000000E+00 -5.60000000E+00 -5.60000000E+00 -1.00000000E+00
 -1.00000000E+00 -1.00000000E+00 -1.00000000E+00 -1.00000000E+00 -1.00000000E+00
 -1.00000000E+00 -1.00000000E+00
Nuclear ZNuc                               R   N=          12
  8.00000000E+00  8.00000000E+00  8.00000000E+00  8.00000000E+00  1.00000000E+00
  1.00000000E+00  1.00000000E+00  1.00000000E+00  1.00000000E+00  1.00000000E+00
  1.00000000E+00  1.00000000E+00
Nuclear QMom                               R   N=          12
  0.00000000E+00  0.00000000E+00  0.00000000E+00  0.00000000E+00  0.00000000E+00
  0.00000000E+00  0.00000000E+00  0.00000000E+00  0.00000000E+00  0.00000000E+00
  0.00000000E+00  0.00000000E+00
Nuclear GFac                               R   N=          12
  0.00000000E+00  0.00000000E+00  0.00000000E+00  0.00000000E+00  2.79284600E+00
  2.79284600E+00  2.79284600E+00  2.79284600E+00  2.79284600E+00  2.79284600E+00
  2.79284600E+00  2.79284600E+00
MicOpt                                     I   N=          12
          -1          -1          -1          -1          -1          -1
          -1          -1          -1          -1          -1          -1
Number of residues                         I                0
Number of secondary structures             I                0
Number of contracted shells                I               40
Number of primitive shells                 I               84
Pure/Cartesian d shells                    I                0
Pure/Cartesian f shells                    I                0
Highest angular momentum                   I                2
Largest degree of contraction              I                6
Shell types                                I   N=          40
           0          -1          -1          -2           0          -1
          -1          -2           0          -1          -1          -2
           0          -1          -1          -2           0           0
           1           0           0           1           0           0
           1           0           0           1           0           0
           1           0           0           1           0           0
           1           0           0           1
Number of primitives per shell             I   N=          40
           6           3           1           1           6           3
           1           1           6           3           1           1
           6           3           1           1           3           1
           1           3           1           1           3           1
           1           3           1           1           3           1
           1           3           1           1           3           1
           1           3           1           1
Shell to atom map                          I   N=          40
           1           1           1           1           2           2
           2           2           3           3           3           3
           4           4           4           4           5           5
           5           6           6           6           7           7
           7           8           8           8           9           9
           9          10          10          10          11          11
          11          12          12          12
Primitive exponents                        R   N=          84
  5.48467166E+03  8.25234946E+02  1.88046958E+02  5.29645000E+01  1.68975704E+01
  5.79963534E+00  1.55396162E+01  3.59993359E+00  1.01376175E+00  2.70005823E-01
  8.00000000E-01  5.48467166E+03  8.25234946E+02  1.88046958E+02  5.29645000E+01
  1.68975704E+01  5.79963534E+00  1.55396162E+01  3.59993359E+00  1.01376175E+00
  2.70005823E-01  8.00000000E-01  5.48467166E+03  8.25234946E+02  1.88046958E+02
  5.29645000E+01  1.68975704E+01  5.79963534E+00  1.55396162E+01  3.59993359E+00
  1.01376175E+00  2.70005823E-01  8.00000000E-01  5.48467166E+03  8.25234946E+02
  1.88046958E+02  5.29645000E+01  1.68975704E+01  5.79963534E+00  1.55396162E+01
  3.59993359E+00  1.01376175E+00  2.70005823E-01  8.00000000E-01  1.87311370E+01
  2.82539436E+00  6.40121692E-01  1.61277759E-01  1.10000000E+00  1.87311370E+01
  2.82539436E+00  6.40121692E-01  1.61277759E-01  1.10000000E+00  1.87311370E+01
  2.82539436E+00  6.40121692E-01  1.61277759E-01  1.10000000E+00  1.87311370E+01
  2.82539436E+00  6.40121692E-01  1.61277759E-01  1.10000000E+00  1.87311370E+01
  2.82539436E+00  6.40121692E-01  1.61277759E-01  1.10000000E+00  1.87311370E+01
  2.82539436E+00  6.40121692E-01  1.61277759E-01  1.10000000E+00  1.87311370E+01
  2.82539436E+00  6.40121692E-01  1.61277759E-01  1.10000000E+00  1.87311370E+01
  2.82539436E+00  6.40121692E-01  1.61277759E-01  1.10000000E+00
Contraction coefficients                   R   N=          84
  1.83107443E-03  1.39501722E-02  6.84450781E-02  2.32714336E-01  4.70192898E-01
  3.58520853E-01 -1.10777550E-01 -1.48026263E-01  1.13076702E+00  1.00000000E+00
  1.00000000E+00  1.83107443E-03  1.39501722E-02  6.84450781E-02  2.32714336E-01
  4.70192898E-01  3.58520853E-01 -1.10777550E-01 -1.48026263E-01  1.13076702E+00
  1.00000000E+00  1.00000000E+00  1.83107443E-03  1.39501722E-02  6.84450781E-02
  2.32714336E-01  4.70192898E-01  3.58520853E-01 -1.10777550E-01 -1.48026263E-01
  1.13076702E+00  1.00000000E+00  1.00000000E+00  1.83107443E-03  1.39501722E-02
  6.84450781E-02  2.32714336E-01  4.70192898E-01  3.58520853E-01 -1.10777550E-01
 -1.48026263E-01  1.13076702E+00  1.00000000E+00  1.00000000E+00  3.34946043E-02
  2.34726953E-01  8.13757326E-01  1.00000000E+00  1.00000000E+00  3.34946043E-02
  2.34726953E-01  8.13757326E-01  1.00000000E+00  1.00000000E+00  3.34946043E-02
  2.34726953E-01  8.13757326E-01  1.00000000E+00  1.00000000E+00  3.34946043E-02
  2.34726953E-01  8.13757326E-01  1.00000000E+00  1.00000000E+00  3.34946043E-02
  2.34726953E-01  8.13757326E-01  1.00000000E+00  1.00000000E+00  3.34946043E-02
  2.34726953E-01  8.13757326E-01  1.00000000E+00  1.00000000E+00  3.34946043E-02
  2.34726953E-01  8.13757326E-01  1.00000000E+00  1.00000000E+00  3.34946043E-02
  2.34726953E-01  8.13757326E-01  1.00000000E+00  1.00000000E+00
P(S=P) Contraction coefficients            R   N=          84
  0.00000000E+00  0.00000000E+00  0.00000000E+00  0.00000000E+00  0.00000000E+00
  0.00000000E+00  7.08742682E-02  3.39752839E-01  7.27158577E-01  1.00000000E+00
  0.00000000E+00  0.00000000E+00  0.00000000E+00  0.00000000E+00  0.00000000E+00
  0.00000000E+00  0.00000000E+00  7.08742682E-02  3.39752839E-01  7.27158577E-01
  1.00000000E+00  0.00000000E+00  0.00000000E+00  0.00000000E+00  0.00000000E+00
  0.00000000E+00  0.00000000E+00  0.00000000E+00  7.08742682E-02  3.39752839E-01
  7.27158577E-01  1.00000000E+00  0.00000000E+00  0.00000000E+00  0.00000000E+00
  0.00000000E+00  0.00000000E+00  0.00000000E+00  0.00000000E+00  7.08742682E-02
  3.39752839E-01  7.27158577E-01  1.00000000E+00  0.00000000E+00  0.00000000E+00
  0.00000000E+00  0.00000000E+00  0.00000000E+00  0.00000000E+00  0.00000000E+00
  0.00000000E+00  0.00000000E+00  0.00000000E+00  0.00000000E+00  0.00000000E+00
  0.00000000E+00  0.00000000E+00  0.00000000E+00  0.00000000E+00  0.00000000E+00
  0.00000000E+00  0.00000000E+00  0.00000000E+00  0.00000000E+00  0.00000000E+00
  0.00000000E+00  0.00000000E+00  0.00000000E+00  0.00000000E+00  0.00000000E+00
  0.00000000E+00  0.00000000E+00  0.00000000E+00  0.00000000E+00  0.00000000E+00
  0.00000000E+00  0.00000000E+00  0.00000000E+00  0.00000000E+00  0.00000000E+00
  0.00000000E+00  0.00000000E+00  0.00000000E+00  0.00000000E+00
Coordinates of each shell                  R   N=         120
  1.37010511E+01 -1.86319947E+01 -2.47619431E+01  1.37010511E+01 -1.86319947E+01
 -2.47619431E+01  1.37010511E+01 -1.86319947E+01 -2.47619431E+01  1.37010511E+01
 -1.86319947E+01 -2.47619431E+01  1.90577217E+01 -1.81470343E+01 -2.58786843E+01
  1.90577217E+01 -1.81470343E+01 -2.58786843E+01  1.90577217E+01 -1.81470343E+01
 -2.58786843E+01  1.90577217E+01 -1.81470343E+01 -2.58786843E+01  1.59711829E+01
 -2.00983315E+01 -2.96421136E+01  1.59711829E+01 -2.00983315E+01 -2.96421136E+01
  1.59711829E+01 -2.00983315E+01 -2.96421136E+01  1.59711829E+01 -2.00983315E+01
 -2.96421136E+01  2.01732119E+01 -2.25352958E+01 -2.98939423E+01  2.01732119E+01
 -2.25352958E+01 -2.98939423E+01  2.01732119E+01 -2.25352958E+01 -2.98939423E+01
  2.01732119E+01 -2.25352958E+01 -2.98939423E+01  1.34560972E+01 -1.93157846E+01
 -2.64185526E+01  1.34560972E+01 -1.93157846E+01 -2.64185526E+01  1.34560972E+01
 -1.93157846E+01 -2.64185526E+01  1.38733941E+01 -2.00816358E+01 -2.36938794E+01
  1.38733941E+01 -2.00816358E+01 -2.36938794E+01  1.38733941E+01 -2.00816358E+01
 -2.36938794E+01  1.85910557E+01 -1.86665521E+01 -2.75472898E+01  1.85910557E+01
 -1.86665521E+01 -2.75472898E+01  1.85910557E+01 -1.86665521E+01 -2.75472898E+01
  1.75122961E+01 -1.81949823E+01 -2.49399156E+01  1.75122961E+01 -1.81949823E+01
 -2.49399156E+01  1.75122961E+01 -1.81949823E+01 -2.49399156E+01  1.53540909E+01
 -1.96661077E+01 -3.12865930E+01  1.53540909E+01 -1.96661077E+01 -3.12865930E+01
  1.53540909E+01 -1.96661077E+01 -3.12865930E+01  1.75030005E+01 -2.10073446E+01
 -2.99570119E+01  1.75030005E+01 -2.10073446E+01 -2.99570119E+01  1.75030005E+01
 -2.10073446E+01 -2.99570119E+01  2.10617025E+01 -2.31675113E+01 -2.84507471E+01
  2.10617025E+01 -2.31675113E+01 -2.84507471E+01  2.10617025E+01 -2.31675113E+01
 -2.84507471E+01  2.03511466E+01 -2.38337078E+01 -3.11406929E+01  2.03511466E+01
 -2.38337078E+01 -3.11406929E+01  2.03511466E+01 -2.38337078E+01 -3.11406929E+01
Num ILSW                                   I              100
ILSW                                       I   N=         100
           0           0           0           0           2           0
           0           0           0           0           0          -1
           5           0           0           0           0           0
           0           0           0           0           0           0
           1           1           0           0           0           0
           0           0      100000           0          -1           0
           0           0           0           0           0           0
           0           0           0           1           0           0
           0 -2000000000           1           0           0           0
           0           0           4          52           0           0
           0           1           0           0           0           0
           0           0           0          12           0           1
           0           0           0           0           0           0
           0           0           0           0           0           0
           0           0           0           0           0           0
           0           0           0           0           0           0
           0           0           0           0
Num RLSW                                   I               52
RLSW                                       R   N=          52
  1.00000000E+00  1.00000000E+00  1.00000000E+00  1.00000000E+00  1.00000000E+00
  0.00000000E+00  0.00000000E+00  1.00000000E+00  0.00000000E+00  0.00000000E+00
  0.00000000E+00  0.00000000E+00  1.00000000E+00  0.00000000E+00  0.00000000E+00
  0.00000000E+00  0.00000000E+00  1.00000000E+00  0.00000000E+00  0.00000000E+00
  0.00000000E+00  0.00000000E+00  1.00000000E+00  0.00000000E+00  0.00000000E+00
  0.00000000E+00  0.00000000E+00  1.00000000E+00  0.00000000E+00  0.00000000E+00
  0.00000000E+00  0.00000000E+00  1.00000000E+00  0.00000000E+00  0.00000000E+00
  0.00000000E+00  0.00000000E+00  0.00000000E+00  1.00000000E+00  1.00000000E+00
  0.00000000E+00  1.00000000E+00  0.00000000E+00  0.00000000E+00  0.00000000E+00
  0.00000000E+00  0.00000000E+00  0.00000000E+00  0.00000000E+00  0.00000000E+00
  0.00000000E+00  0.00000000E+00
MxBond                                     I                2
NBond                                      I   N=          12
           2           2           2           2           1           1
           1           1           1           1           1           1
IBond                                      I   N=          24
           5           6           7           8           9          10
          11          12           1           0           1           0
           2           0           2           0           3           0
           3           0           4           0           4           0
RBond                                      R   N=          24
  1.00000000E+00  1.00000000E+00  1.00000000E+00  1.00000000E+00  1.00000000E+00
  1.00000000E+00  1.00000000E+00  1.00000000E+00  1.00000000E+00  0.00000000E+00
  1.00000000E+00  0.00000000E+00  1.00000000E+00  0.00000000E+00  1.00000000E+00
  0.00000000E+00  1.00000000E+00  0.00000000E+00  1.00000000E+00  0.00000000E+00
  1.00000000E+00  0.00000000E+00  1.00000000E+00  0.00000000E+00
Virial Ratio                               R      2.045972321919856E+00
SCF Energy                                 R     -3.176960824473047E+02
Total Energy                               R     -3.176960824473047E+02
RMS Density                                R      6.379148956684801E-09
Job Status                                 I                1
Nuclear derivative order                   I                0
External E-field                           R   N=          35
  0.00000000E+00  0.00000000E+00  0.00000000E+00  0.00000000E+00  0.00000000E+00
  0.00000000E+00  0.00000000E+00  0.00000000E+00  0.00000000E+00  0.00000000E+00
  0.00000000E+00  0.00000000E+00  0.00000000E+00  0.00000000E+00  0.00000000E+00
  0.00000000E+00  0.00000000E+00  0.00000000E+00  0.00000000E+00  0.00000000E+00
  0.00000000E+00  0.00000000E+00  0.00000000E+00  0.00000000E+00  0.00000000E+00
  0.00000000E+00  0.00000000E+00  0.00000000E+00  0.00000000E+00  0.00000000E+00
  0.00000000E+00  0.00000000E+00  0.00000000E+00  0.00000000E+00  0.00000000E+00
IOpCl                                      I                0
IROHF                                      I                0
Alpha Orbital Energies                     R   N=          96
 -2.05941981E+01 -2.05413171E+01 -2.05294570E+01 -2.05038770E+01 -1.38307717E+00
 -1.33358681E+00 -1.31434424E+00 -1.28940009E+00 -7.40433713E-01 -7.26561124E-01
 -6.80783339E-01 -6.55680261E-01 -6.13846180E-01 -5.67061946E-01 -5.51714048E-01
 -5.34088195E-01 -5.24995974E-01 -4.80938417E-01 -4.64638441E-01 -4.50849912E-01
  1.89943390E-01  2.42622309E-01  2.85109738E-01  2.94037586E-01  3.66151904E-01
  3.96899993E-01  4.53000268E-01  4.99506957E-01  9.49790780E-01  9.88219388E-01
  1.04006109E+00  1.04803119E+00  1.06455927E+00  1.09267727E+00  1.11330517E+00
  1.14294587E+00  1.14587592E+00  1.16917603E+00  1.19665013E+00  1.22295700E+00
  1.25140659E+00  1.28915644E+00  1.32617303E+00  1.34823461E+00  1.36400944E+00
  1.39483965E+00  1.41650034E+00  1.50760795E+00  1.60740377E+00  1.68158999E+00
  1.73821378E+00  1.77013465E+00  1.79521927E+00  1.80429664E+00  1.81511428E+00
  1.85857414E+00  1.86361706E+00  1.89041059E+00  1.91180544E+00  1.93873807E+00
  1.96612558E+00  2.00190406E+00  2.00929203E+00  2.06908641E+00  2.51830971E+00
  2.55989227E+00  2.60513498E+00  2.61626659E+00  2.63932459E+00  2.68251337E+00
  2.69134743E+00  2.73792644E+00  2.78362371E+00  2.85130413E+00  2.87555872E+00
  2.91102980E+00  2.94607868E+00  2.98382634E+00  3.02235259E+00  3.04467705E+00
  3.05026566E+00  3.05370655E+00  3.07820135E+00  3.15264841E+00  3.35514262E+00
  3.41442743E+00  3.42214609E+00  3.50853778E+00  3.73543127E+00  3.79077706E+00
  3.84239697E+00  3.86144556E+00  3.90472216E+00  3.98508241E+00  4.05519039E+00
  4.13791917E+00
Alpha MO coefficients                      R   N=        9216
 -1.43792117E-05 -3.23092643E-05  5.41601142E-06 -2.02547010E-06  1.04483897E-06
  1.29900080E-04 -1.40955563E-05 -1.46960421E-05 -5.61566231E-05  9.45722100E-06
  1.91014385E-06  4.56178929E-06 -1.29747446E-06  1.43988014E-06  4.74996386E-06
  3.31104464E-05  3.05022267E-06 -7.69261387E-06  5.85959037E-06 -9.37617798E-05
  1.56608565E-05  6.30676953E-05  7.86824388E-05 -1.71127450E-05 -1.76927438E-05
 -2.20461639E-05  3.83693545E-06 -9.08418736E-06  1.19990939E-04  4.18593142E-04
  8.37116091E-05 -5.91426719E-05 -2.07094406E-05 -1.59616054E-03 -7.78664233E-04
  4.91219168E-04  1.41255075E-04  3.45162291E-05  4.92950998E-08  1.89970311E-06
 -4.14957974E-05  9.90547771E-05  9.95699382E-01  2.23238641E-02  7.09983337E-04
 -1.66198173E-03  1.83818174E-04 -6.45667265E-03  4.89060670E-04  2.05618998E-04
  3.91071097E-05  3.58284511E-04  2.53539565E-04  1.26718419E-04 -1.90150086E-04
 -8.77829297E-05 -3.69688217E-06 -1.74550064E-04 -1.69041263E-05 -9.08927506E-06
 -8.21381303E-06 -7.40025648E-06  2.22720294E-05  2.36187017E-06 -1.12366349E-06
  3.55453716E-08 -1.38059850E-05  4.43110296E-06 -9.55582401E-07  3.21402003E-05
  6.53058410E-05  2.14666236E-05 -4.55420402E-05 -9.07889170E-06 -6.88414184E-06
 -3.56302248E-06  1.70289775E-04 -4.19389106E-04  9.02132836E-06 -9.24855555E-06
 -3.42359771E-06  2.71480639E-04  2.41269874E-03  1.01530938E-04 -8.28201042E-05
  7.63848982E-05 -6.60459454E-04  9.71417599E-04  5.55869232E-04 -4.38411292E-04
  9.87785960E-04 -5.06626996E-04  9.82010339E-04  6.03132261E-05 -8.55334343E-04
 -8.25277219E-04  6.82897074E-07  8.66121265E-05 -2.57571391E-05  5.87426982E-06
  4.76122341E-07 -3.82553700E-04  8.77523790E-05  5.35502500E-05  2.55794482E-04
 -4.99481237E-05  1.83979573E-06 -4.15545831E-05  8.61925913E-06 -3.83101362E-06
  3.96804120E-05  1.64780085E-04  2.81831116E-05 -1.14536101E-05 -3.46602016E-05
 -5.23136321E-04 -2.23595708E-05  1.21062101E-04  3.64966521E-04 -2.74231219E-05
 -8.80733755E-05 -3.54190255E-05  2.06820388E-05 -2.37969668E-05  9.95720197E-01
  2.25954863E-02  7.99831954E-04 -3.50110725E-04 -1.73390801E-03 -7.77698189E-03
 -1.30889820E-03  6.12519236E-04  5.96067082E-04  1.97813204E-04  1.84045216E-04
 -1.48821234E-04  8.07132663E-05 -2.18883744E-04 -7.78097800E-05  3.90507513E-04
 -1.52148760E-04  1.18828881E-04 -2.21436303E-05 -8.78387481E-04  1.01868676E-03
 -7.42493169E-04  1.40535713E-04  1.01742711E-04  4.27692392E-06 -2.48097696E-05
 -9.35560961E-05  1.11290077E-04  9.34708456E-06  5.79081036E-04  4.65000600E-05
  3.48538233E-05  7.12647474E-05  1.07928413E-05 -1.16965854E-04 -9.42625277E-06
 -1.32320713E-05  4.55721590E-06  4.81804352E-05  6.88330656E-04 -1.47169265E-04
 -1.04541872E-06  3.64343691E-05 -5.51658948E-05 -1.35988409E-04 -3.08655567E-05
 -9.38139230E-06  2.72258912E-06 -4.52697897E-04  6.85577049E-04 -3.56240167E-04
  2.72843388E-04 -1.15073130E-03 -1.96800922E-04  3.58182484E-03  8.83147645E-04
 -5.12508362E-04 -1.58795267E-04 -9.22376889E-05 -3.30047774E-04 -1.40039701E-05
  2.34408019E-05  7.36758861E-05  3.83429661E-05 -3.15784204E-04 -7.22291517E-05
  1.24857216E-05 -6.81143651E-05  9.95707046E-01  2.21957812E-02  2.95481737E-05
 -1.90174382E-03 -4.87900140E-04 -6.41693074E-03 -2.68867914E-04  8.51374348E-04
  4.45459694E-04  3.13214935E-04  1.16265865E-04 -1.29138020E-04 -2.80908265E-04
 -2.65853009E-05  1.49919341E-04  2.47889401E-04 -6.19457156E-06  6.04046493E-06
  5.11555805E-05 -8.80198554E-04  4.13392761E-04 -2.49788215E-05 -4.37013345E-04
  6.69763572E-05  8.91078022E-05  2.31681788E-05 -8.83619054E-05 -8.35026778E-06
  6.22640135E-06  4.49268315E-05 -6.17153191E-05 -1.27900885E-06  4.35964002E-05
  4.55929891E-05  4.03268310E-04 -1.14663926E-04 -2.24264412E-04 -4.92903184E-05
  2.13554517E-06  1.02937557E-05  9.24714392E-06 -2.91503169E-05  1.06716982E-05
 -3.03608042E-05  8.61046011E-06 -8.11315612E-06 -1.44300611E-07  8.69829818E-05
 -5.88886292E-05  4.81630239E-05  7.03057010E-06 -1.26023432E-06  6.32534044E-07
  2.62459225E-06  1.13494763E-06 -3.67294502E-06 -4.58061268E-04  1.62450659E-03
 -8.33078244E-05 -4.58784878E-04 -9.75130908E-04 -4.23385207E-04  9.74442156E-04
  1.34808491E-04 -9.84470655E-04  6.45505561E-04 -3.83213774E-05 -2.15889982E-04
 -2.29267481E-05 -1.55171943E-05 -2.61346190E-05  1.02584714E-04  1.24523706E-03
  4.27652025E-06 -1.43256038E-05 -1.15523699E-04  3.65121960E-05 -3.38185571E-05
 -4.43641228E-05  6.88211327E-06  2.71105655E-05 -1.21489247E-04 -2.92392444E-04
  3.85499991E-05 -3.55427672E-05  8.74083701E-06  3.24297423E-06 -3.44364574E-06
  4.87970529E-06 -4.10879217E-06 -1.41177782E-06 -7.45753047E-06  3.16576249E-05
  4.41400469E-06 -1.12644015E-06  3.03034072E-06 -1.28576584E-04  1.94747149E-04
  1.12055442E-04  3.47987079E-05  3.27404133E-06 -3.41953439E-04 -5.03060695E-04
 -1.19743033E-04 -2.98398126E-05  4.70677297E-05  9.95640232E-06  3.47831765E-05
 -7.00677036E-05  5.90969029E-06  9.95723735E-01  2.24411759E-02 -1.69086463E-03
 -5.21375446E-04 -6.12224266E-04 -7.66403926E-03  1.18717576E-03  3.66205616E-04
  6.12892223E-04  2.04203671E-04 -1.59323748E-04  1.13416116E-04  1.66964589E-04
  3.23238720E-05 -2.36752676E-05  1.52912108E-04  6.58043307E-05  7.86618140E-05
  4.59319856E-05 -2.37624158E-04 -3.06233555E-04 -3.57721383E-04 -3.04130759E-04
  2.40220303E-05 -5.15737115E-05 -4.00056503E-05 -3.88751609E-05 -5.08717562E-05
 -2.20549698E-06  1.63268467E-05  1.76173930E-05  4.43526086E-05  2.77233334E-05
  4.01388620E-05 -1.46620475E-04 -1.76516984E-04 -2.67876674E-04 -1.87123482E-05
 -1.80901451E-05  2.12171232E-05  1.07329792E-05  4.91970297E-06 -2.78841573E-07
 -8.12372655E-05  4.16035999E-05 -4.59912632E-06 -3.14751993E-05  1.34673190E-04
 -2.35718845E-04  4.31342297E-05  4.41964258E-06  1.54042023E-05 -4.25416015E-04
  2.55275876E-03 -3.69142276E-04 -3.14053592E-04 -8.53717979E-04 -4.43009611E-04
  1.98307306E-03 -9.34134387E-04 -5.55478493E-05  4.31680567E-04 -2.47176904E-05
  7.69480986E-07  4.03940203E-05  3.71810997E-05 -1.74241025E-06  1.69693910E-04
 -6.41343837E-04  1.28026048E-05 -3.20289092E-06 -2.45017793E-05  7.83433303E-05
  7.97623777E-05 -9.73493253E-06  3.93754111E-05 -1.63447992E-05 -1.20570944E-04
 -7.51608500E-05  1.94920031E-05 -2.04525207E-05 -1.65116145E-05 -2.15760186E-03
  4.76544535E-03  1.93629301E-04 -8.02611881E-04 -5.78656674E-04  4.03948855E-03
  2.68287759E-04 -2.18235168E-04 -1.33531064E-04  3.43040834E-05 -4.23494830E-05
  5.44728030E-05  8.96226383E-06 -2.13848937E-05 -6.68959216E-03  1.42124545E-02
 -2.33702953E-03 -1.55504347E-03 -2.33447633E-03  1.38561767E-02 -4.19095913E-04
 -1.61767088E-03 -1.53017196E-03  2.34377756E-04  3.16554782E-04  3.42145172E-04
 -3.63518594E-05  9.59597795E-05 -4.51352952E-02  9.69676687E-02  1.37525309E-02
 -7.03642390E-03 -1.40279676E-02  9.96478275E-02  9.89034011E-03 -4.93293620E-03
 -4.88502231E-03 -2.89715801E-04 -5.45269034E-04  4.64577005E-04  1.13191409E-03
 -1.40989915E-03 -2.07451519E-01  4.58355898E-01  2.97204118E-02 -6.55121888E-02
  7.36388575E-03  4.36559561E-01  5.73347855E-04 -2.07996394E-02  1.72302952E-03
 -9.84934685E-04  1.41838684E-03  2.80535479E-04 -7.08867730E-04 -5.06174119E-03
  2.02739109E-03  9.04419407E-04  1.31749568E-04  7.05071375E-05  1.64641340E-04
  1.32540033E-03  1.10248000E-04 -3.14475501E-05  2.18269546E-04 -1.83582026E-04
  7.19138778E-03  1.66934548E-03  2.98068347E-04 -3.91850964E-04  2.10034519E-04
  4.11320114E-03  3.97173460E-04  7.12025953E-04  3.31013630E-05 -4.95777672E-04
  2.77236835E-02  5.29107666E-03  2.24468755E-03 -1.54608065E-03  4.68321796E-03
  4.21100513E-02 -1.04306690E-02 -3.37303034E-03  2.35090649E-03  3.26780738E-04
  1.38383963E-01  9.50777167E-03 -1.21063040E-02  6.51066476E-03 -2.13554582E-02
  1.37723813E-01  8.13170238E-03 -9.17650191E-04  1.70079200E-02  1.91294065E-02
 -4.06092203E-02  8.87428737E-02  9.83789842E-04 -1.48670942E-02 -5.83431964E-03
  8.59769758E-02  1.96438608E-03 -5.25041053E-03 -2.58603007E-03  5.02797861E-04
 -9.38116515E-05  4.57817916E-04 -2.69963436E-04 -1.61658691E-04 -3.60705182E-02
  7.84247035E-02 -1.40383330E-02 -5.14684135E-03 -7.69598683E-03  7.52114907E-02
 -5.34900339E-03 -2.64483756E-03 -2.44331806E-03  1.73453914E-04  6.68410181E-04
  4.44506619E-04  6.90554901E-04  4.73913445E-04 -1.99728491E-01  4.38543249E-01
  3.25386232E-02 -1.38131264E-02 -6.47484562E-02  4.26295078E-01  1.56174013E-02
 -4.28668284E-03 -2.10940747E-02  1.91945329E-03 -4.54840757E-04  8.18080132E-04
  2.81243575E-03 -2.06689496E-03  4.82831786E-02 -1.08291948E-01 -1.80451642E-02
  2.32326362E-02 -1.62237803E-03 -9.90963705E-02 -9.49942669E-03  1.16309813E-02
 -5.29505150E-04 -7.67030060E-05 -4.14154943E-04  5.38693331E-05  7.28261772E-04
  8.44704983E-04  2.98833332E-02  1.75859205E-03  8.33823187E-04  1.35230768E-03
  4.12056115E-03  2.61195609E-02  2.09652668E-03 -6.30432433E-04  3.95953342E-03
 -3.26469724E-03  3.11733525E-02  3.63846686E-03  7.82100066E-04  8.00946757E-04
  3.87408028E-03  2.45890438E-02  4.08983578E-04  3.52353194E-03 -1.05123586E-04
 -2.65941047E-03  1.35428465E-01  1.41326127E-02  9.74655026E-03 -6.79509603E-03
  2.13615929E-02  1.28105680E-01 -4.74475182E-03 -2.08932943E-02  1.28648421E-02
  2.09036919E-03 -3.63767201E-02 -1.40098726E-03  3.05878170E-03 -1.66785806E-03
  5.38301867E-03 -3.61540493E-02 -4.70939777E-04  1.87163444E-04 -4.25773542E-03
 -4.74159393E-03 -2.04919103E-01  4.51598260E-01 -1.28445712E-04 -7.45797571E-02
 -1.88383409E-02  4.34028926E-01  2.35156585E-03 -2.67279788E-02 -2.96948793E-03
  1.12416704E-03  7.30937018E-04  4.26818954E-04 -2.27609163E-03 -4.47457219E-04
 -3.24881235E-02  7.08567904E-02 -1.34888251E-02 -3.23349545E-03 -1.55775308E-03
  6.82764912E-02 -4.76159245E-03 -1.67397632E-03 -6.79240491E-04 -2.02620365E-04
 -3.51049046E-05  1.43725375E-04  8.27550093E-04  2.37527266E-04  4.74971946E-02
 -1.05224297E-01 -8.85994204E-03  4.64218358E-03  1.94883365E-02 -1.00963497E-01
 -6.17112922E-03  2.97286815E-03  9.64280060E-03 -6.33792737E-05 -1.65273976E-04