#INFO: **** input file is /home/liwei01/wsr/dftpart/test_2body/w32/gfea_c8.py ****
from dftpart import gfea3
from pyscf import lib

par = 8
with lib.with_omp_threads(par):
    fr0 = gfea3.GFEA()
    fr0.inputstyle = 'frg'
    fr0.method = ['hf', '6-31gss','charge']
    fr0.gjfname = 'w32'
    fr0.output = 'w32'
    fr0.verbose = 9
    fr0.showinter = True
    #fr0.do_deriv = True
    fr0.kernel()

#INFO: ******************** input file end ********************


System: uname_result(system='Linux', node='master', release='3.10.0-693.el7.x86_64', version='#1 SMP Tue Aug 22 21:09:27 UTC 2017', machine='x86_64', processor='x86_64')  Threads 8
Python 3.7.6 (default, Jan  8 2020, 19:59:22) 
[GCC 7.3.0]
numpy 1.18.1  scipy 1.4.1
Date: Tue Jun 16 20:57:11 2020
PySCF version 1.6.1
PySCF path  /home/liwei01/zcheng/pyscf/pyscf
GIT HEAD      ref: refs/heads/master
GIT master branch  3adc7fd25839fe674469a52b764c3661e32d7318

[CONFIG] DEBUG = False
[CONFIG] MAX_MEMORY = 4000
[CONFIG] TMPDIR = .
[CONFIG] UNIT = angstrom
[CONFIG] VERBOSE = 3
[CONFIG] conf_file = None
[INPUT] verbose = 9
[INPUT] max_memory = 4000 
[INPUT] num. atoms = 21
[INPUT] num. electrons = 70
[INPUT] charge = 0
[INPUT] spin (= nelec alpha-beta = 2S) = 0
[INPUT] symmetry False subgroup None
[INPUT] Mole.unit = angstrom
[INPUT]  1 O      8.392325000000 -11.812941000000 -11.200483000000 AA   15.859195798340 -22.323223215646 -21.165845332847 Bohr
[INPUT]  2 O     10.706017000000 -10.848862000000 -10.091512000000 AA   20.231440014938 -20.501377943201 -19.070193862762 Bohr
[INPUT]  3 O      6.966193000000  -9.247795000000 -10.274305000000 AA   13.164196900862 -17.475799806122 -19.415622570249 Bohr
[INPUT]  4 O     10.084912000000  -9.602997000000 -13.694410000000 AA   19.057721670340 -18.147034305020 -25.878684337505 Bohr
[INPUT]  5 O      9.473772000000  -7.997188000000 -10.918041000000 AA   17.902834446573 -15.112495086658 -20.632107306772 Bohr
[INPUT]  6 O     10.552310000000  -9.060178000000  -7.765728000000 AA   19.940975881509 -17.121255059810 -14.675099077866 Bohr
[INPUT]  7 O      8.538876000000  -6.261102000000 -12.948352000000 AA   16.136137051622 -11.831768017967 -24.468839044464 Bohr
[INPUT]  8 H      8.175276000000 -12.537815000000 -10.614239000000 AA   15.449032632730 -23.693036550464 -20.058004730677 Bohr
[INPUT]  9 H      9.252154000000 -11.514100000000 -10.904475000000 AA   17.484037122299 -21.758495570855 -20.606471282167 Bohr
[INPUT] 10 H     11.521407000000 -11.320280000000  -9.920812000000 AA   21.772303799647 -21.392228853391 -18.747617613299 Bohr
[INPUT] 11 H     10.567797000000 -10.316883000000  -9.307849000000 AA   19.970242070000 -19.496083329181 -17.589285418807 Bohr
[INPUT] 12 H      6.975152000000  -9.845016000000 -11.022289000000 AA   13.181126957212 -18.604383931961 -20.829107475806 Bohr
[INPUT] 13 H      7.684375000000  -8.638472000000 -10.445098000000 AA   14.521364188455 -16.324346214724 -19.738374564242 Bohr
[INPUT] 14 H      9.837963000000  -9.877914000000 -14.577398000000 AA   18.591055693604 -18.666552142007 -27.547289828782 Bohr
[INPUT] 15 H      9.267108000000  -9.628370000000 -13.197635000000 AA   17.512296086766 -18.194982325979 -24.939915641974 Bohr
[INPUT] 16 H      9.997520000000  -8.795627000000 -10.851588000000 AA   18.892574724862 -16.621326123830 -20.506529336617 Bohr
[INPUT] 17 H      9.623390000000  -7.542356000000 -10.089201000000 AA   18.185571489878 -14.252987173970 -19.065826705688 Bohr
[INPUT] 18 H     10.029560000000  -9.452633000000  -7.066484000000 AA   18.953121549893 -17.862887526026 -13.353719423621 Bohr
[INPUT] 19 H     10.057649000000  -8.283933000000  -8.028378000000 AA   19.006202067006 -15.654364604247 -15.171435644483 Bohr
[INPUT] 20 H      8.880032000000  -6.849136000000 -12.274511000000 AA   16.780828457374 -12.942991229899 -23.195464102961 Bohr
[INPUT] 21 H      9.276723000000  -6.122958000000 -13.542264000000 AA   17.530465803454 -11.570713692215 -25.591170066557 Bohr
[INPUT] ---------------- BASIS SET ---------------- 
[INPUT] l, kappa, [nprim/nctr], expnt,             c_1 c_2 ...
[INPUT] H
[INPUT] 0    0    [3    /1   ]  18.731137         0.0334946
                                2.8253937         0.23472695
                                0.6401217         0.81375733
[INPUT] 0    0    [1    /1   ]  0.1612778            1
[INPUT] 1    0    [1    /1   ]  1.1                  1
[INPUT] O
[INPUT] 0    0    [6    /1   ]  5484.6717         0.0018311
                                825.23495         0.0139501
                                188.04696         0.0684451
                                52.9645           0.2327143
                                16.89757          0.470193
                                5.7996353         0.3585209
[INPUT] 0    0    [3    /1   ]  15.539616         -0.1107775
                                3.5999336         -0.1480263
                                1.0137618         1.130767
[INPUT] 0    0    [1    /1   ]  0.2700058            1
[INPUT] 1    0    [3    /1   ]  15.539616         0.0708743
                                3.5999336         0.3397528
                                1.0137618         0.7271586
[INPUT] 1    0    [1    /1   ]  0.2700058            1
[INPUT] 2    0    [1    /1   ]  0.8                  1

nuclear repulsion = 355.755033720572
number of shells = 84
number of NR pGTOs = 287
number of NR cGTOs = 168
basis = 6-31gss
ecp = {}
bas 0, expnt(s) = [5484.6717     825.23495    188.04696     52.9645      16.89757
    5.7996353]
bas 1, expnt(s) = [15.539616   3.5999336  1.0137618]
bas 2, expnt(s) = [0.2700058]
bas 3, expnt(s) = [15.539616   3.5999336  1.0137618]
bas 4, expnt(s) = [0.2700058]
bas 5, expnt(s) = [0.8]
bas 6, expnt(s) = [5484.6717     825.23495    188.04696     52.9645      16.89757
    5.7996353]
bas 7, expnt(s) = [15.539616   3.5999336  1.0137618]
bas 8, expnt(s) = [0.2700058]
bas 9, expnt(s) = [15.539616   3.5999336  1.0137618]
bas 10, expnt(s) = [0.2700058]
bas 11, expnt(s) = [0.8]
bas 12, expnt(s) = [5484.6717     825.23495    188.04696     52.9645      16.89757
    5.7996353]
bas 13, expnt(s) = [15.539616   3.5999336  1.0137618]
bas 14, expnt(s) = [0.2700058]
bas 15, expnt(s) = [15.539616   3.5999336  1.0137618]
bas 16, expnt(s) = [0.2700058]
bas 17, expnt(s) = [0.8]
bas 18, expnt(s) = [5484.6717     825.23495    188.04696     52.9645      16.89757
    5.7996353]
bas 19, expnt(s) = [15.539616   3.5999336  1.0137618]
bas 20, expnt(s) = [0.2700058]
bas 21, expnt(s) = [15.539616   3.5999336  1.0137618]
bas 22, expnt(s) = [0.2700058]
bas 23, expnt(s) = [0.8]
bas 24, expnt(s) = [5484.6717     825.23495    188.04696     52.9645      16.89757
    5.7996353]
bas 25, expnt(s) = [15.539616   3.5999336  1.0137618]
bas 26, expnt(s) = [0.2700058]
bas 27, expnt(s) = [15.539616   3.5999336  1.0137618]
bas 28, expnt(s) = [0.2700058]
bas 29, expnt(s) = [0.8]
bas 30, expnt(s) = [5484.6717     825.23495    188.04696     52.9645      16.89757
    5.7996353]
bas 31, expnt(s) = [15.539616   3.5999336  1.0137618]
bas 32, expnt(s) = [0.2700058]
bas 33, expnt(s) = [15.539616   3.5999336  1.0137618]
bas 34, expnt(s) = [0.2700058]
bas 35, expnt(s) = [0.8]
bas 36, expnt(s) = [5484.6717     825.23495    188.04696     52.9645      16.89757
    5.7996353]
bas 37, expnt(s) = [15.539616   3.5999336  1.0137618]
bas 38, expnt(s) = [0.2700058]
bas 39, expnt(s) = [15.539616   3.5999336  1.0137618]
bas 40, expnt(s) = [0.2700058]
bas 41, expnt(s) = [0.8]
bas 42, expnt(s) = [18.731137   2.8253937  0.6401217]
bas 43, expnt(s) = [0.1612778]
bas 44, expnt(s) = [1.1]
bas 45, expnt(s) = [18.731137   2.8253937  0.6401217]
bas 46, expnt(s) = [0.1612778]
bas 47, expnt(s) = [1.1]
bas 48, expnt(s) = [18.731137   2.8253937  0.6401217]
bas 49, expnt(s) = [0.1612778]
bas 50, expnt(s) = [1.1]
bas 51, expnt(s) = [18.731137   2.8253937  0.6401217]
bas 52, expnt(s) = [0.1612778]
bas 53, expnt(s) = [1.1]
bas 54, expnt(s) = [18.731137   2.8253937  0.6401217]
bas 55, expnt(s) = [0.1612778]
bas 56, expnt(s) = [1.1]
bas 57, expnt(s) = [18.731137   2.8253937  0.6401217]
bas 58, expnt(s) = [0.1612778]
bas 59, expnt(s) = [1.1]
bas 60, expnt(s) = [18.731137   2.8253937  0.6401217]
bas 61, expnt(s) = [0.1612778]
bas 62, expnt(s) = [1.1]
bas 63, expnt(s) = [18.731137   2.8253937  0.6401217]
bas 64, expnt(s) = [0.1612778]
bas 65, expnt(s) = [1.1]
bas 66, expnt(s) = [18.731137   2.8253937  0.6401217]
bas 67, expnt(s) = [0.1612778]
bas 68, expnt(s) = [1.1]
bas 69, expnt(s) = [18.731137   2.8253937  0.6401217]
bas 70, expnt(s) = [0.1612778]
bas 71, expnt(s) = [1.1]
bas 72, expnt(s) = [18.731137   2.8253937  0.6401217]
bas 73, expnt(s) = [0.1612778]
bas 74, expnt(s) = [1.1]
bas 75, expnt(s) = [18.731137   2.8253937  0.6401217]
bas 76, expnt(s) = [0.1612778]
bas 77, expnt(s) = [1.1]
bas 78, expnt(s) = [18.731137   2.8253937  0.6401217]
bas 79, expnt(s) = [0.1612778]
bas 80, expnt(s) = [1.1]
bas 81, expnt(s) = [18.731137   2.8253937  0.6401217]
bas 82, expnt(s) = [0.1612778]
bas 83, expnt(s) = [1.1]
CPU time:       617.41
arg.atm = [[  8  20   1  23   0   0]
 [  8  24   1  27   0   0]
 [  8  28   1  31   0   0]
 [  8  32   1  35   0   0]
 [  8  36   1  39   0   0]
 [  8  40   1  43   0   0]
 [  8  44   1  47   0   0]
 [  1  48   1  51   0   0]
 [  1  52   1  55   0   0]
 [  1  56   1  59   0   0]
 [  1  60   1  63   0   0]
 [  1  64   1  67   0   0]
 [  1  68   1  71   0   0]
 [  1  72   1  75   0   0]
 [  1  76   1  79   0   0]
 [  1  80   1  83   0   0]
 [  1  84   1  87   0   0]
 [  1  88   1  91   0   0]
 [  1  92   1  95   0   0]
 [  1  96   1  99   0   0]
 [  1 100   1 103   0   0]]
arg.bas = [[  0   0   6   1   0 114 120   0]
 [  0   0   3   1   0 126 129   0]
 [  0   0   1   1   0 132 133   0]
 [  0   1   3   1   0 134 137   0]
 [  0   1   1   1   0 140 141   0]
 [  0   2   1   1   0 142 143   0]
 [  1   0   6   1   0 114 120   0]
 [  1   0   3   1   0 126 129   0]
 [  1   0   1   1   0 132 133   0]
 [  1   1   3   1   0 134 137   0]
 [  1   1   1   1   0 140 141   0]
 [  1   2   1   1   0 142 143   0]
 [  2   0   6   1   0 114 120   0]
 [  2   0   3   1   0 126 129   0]
 [  2   0   1   1   0 132 133   0]
 [  2   1   3   1   0 134 137   0]
 [  2   1   1   1   0 140 141   0]
 [  2   2   1   1   0 142 143   0]
 [  3   0   6   1   0 114 120   0]
 [  3   0   3   1   0 126 129   0]
 [  3   0   1   1   0 132 133   0]
 [  3   1   3   1   0 134 137   0]
 [  3   1   1   1   0 140 141   0]
 [  3   2   1   1   0 142 143   0]
 [  4   0   6   1   0 114 120   0]
 [  4   0   3   1   0 126 129   0]
 [  4   0   1   1   0 132 133   0]
 [  4   1   3   1   0 134 137   0]
 [  4   1   1   1   0 140 141   0]
 [  4   2   1   1   0 142 143   0]
 [  5   0   6   1   0 114 120   0]
 [  5   0   3   1   0 126 129   0]
 [  5   0   1   1   0 132 133   0]
 [  5   1   3   1   0 134 137   0]
 [  5   1   1   1   0 140 141   0]
 [  5   2   1   1   0 142 143   0]
 [  6   0   6   1   0 114 120   0]
 [  6   0   3   1   0 126 129   0]
 [  6   0   1   1   0 132 133   0]
 [  6   1   3   1   0 134 137   0]
 [  6   1   1   1   0 140 141   0]
 [  6   2   1   1   0 142 143   0]
 [  7   0   3   1   0 104 107   0]
 [  7   0   1   1   0 110 111   0]
 [  7   1   1   1   0 112 113   0]
 [  8   0   3   1   0 104 107   0]
 [  8   0   1   1   0 110 111   0]
 [  8   1   1   1   0 112 113   0]
 [  9   0   3   1   0 104 107   0]
 [  9   0   1   1   0 110 111   0]
 [  9   1   1   1   0 112 113   0]
 [ 10   0   3   1   0 104 107   0]
 [ 10   0   1   1   0 110 111   0]
 [ 10   1   1   1   0 112 113   0]
 [ 11   0   3   1   0 104 107   0]
 [ 11   0   1   1   0 110 111   0]
 [ 11   1   1   1   0 112 113   0]
 [ 12   0   3   1   0 104 107   0]
 [ 12   0   1   1   0 110 111   0]
 [ 12   1   1   1   0 112 113   0]
 [ 13   0   3   1   0 104 107   0]
 [ 13   0   1   1   0 110 111   0]
 [ 13   1   1   1   0 112 113   0]
 [ 14   0   3   1   0 104 107   0]
 [ 14   0   1   1   0 110 111   0]
 [ 14   1   1   1   0 112 113   0]
 [ 15   0   3   1   0 104 107   0]
 [ 15   0   1   1   0 110 111   0]
 [ 15   1   1   1   0 112 113   0]
 [ 16   0   3   1   0 104 107   0]
 [ 16   0   1   1   0 110 111   0]
 [ 16   1   1   1   0 112 113   0]
 [ 17   0   3   1   0 104 107   0]
 [ 17   0   1   1   0 110 111   0]
 [ 17   1   1   1   0 112 113   0]
 [ 18   0   3   1   0 104 107   0]
 [ 18   0   1   1   0 110 111   0]
 [ 18   1   1   1   0 112 113   0]
 [ 19   0   3   1   0 104 107   0]
 [ 19   0   1   1   0 110 111   0]
 [ 19   1   1   1   0 112 113   0]
 [ 20   0   3   1   0 104 107   0]
 [ 20   0   1   1   0 110 111   0]
 [ 20   1   1   1   0 112 113   0]]
arg.env = [ 1.37036000e+02  0.00000000e+00  0.00000000e+00  0.00000000e+00
  0.00000000e+00  0.00000000e+00  0.00000000e+00  0.00000000e+00
  0.00000000e+00  0.00000000e+00  0.00000000e+00  0.00000000e+00
  0.00000000e+00  0.00000000e+00  0.00000000e+00  0.00000000e+00
  0.00000000e+00  0.00000000e+00  0.00000000e+00  0.00000000e+00
  1.58591958e+01 -2.23232232e+01 -2.11658453e+01  0.00000000e+00
  2.02314400e+01 -2.05013779e+01 -1.90701939e+01  0.00000000e+00
  1.31641969e+01 -1.74757998e+01 -1.94156226e+01  0.00000000e+00
  1.90577217e+01 -1.81470343e+01 -2.58786843e+01  0.00000000e+00
  1.79028344e+01 -1.51124951e+01 -2.06321073e+01  0.00000000e+00
  1.99409759e+01 -1.71212551e+01 -1.46750991e+01  0.00000000e+00
  1.61361371e+01 -1.18317680e+01 -2.44688390e+01  0.00000000e+00
  1.54490326e+01 -2.36930366e+01 -2.00580047e+01  0.00000000e+00
  1.74840371e+01 -2.17584956e+01 -2.06064713e+01  0.00000000e+00
  2.17723038e+01 -2.13922289e+01 -1.87476176e+01  0.00000000e+00
  1.99702421e+01 -1.94960833e+01 -1.75892854e+01  0.00000000e+00
  1.31811270e+01 -1.86043839e+01 -2.08291075e+01  0.00000000e+00
  1.45213642e+01 -1.63243462e+01 -1.97383746e+01  0.00000000e+00
  1.85910557e+01 -1.86665521e+01 -2.75472898e+01  0.00000000e+00
  1.75122961e+01 -1.81949823e+01 -2.49399156e+01  0.00000000e+00
  1.88925747e+01 -1.66213261e+01 -2.05065293e+01  0.00000000e+00
  1.81855715e+01 -1.42529872e+01 -1.90658267e+01  0.00000000e+00
  1.89531215e+01 -1.78628875e+01 -1.33537194e+01  0.00000000e+00
  1.90062021e+01 -1.56543646e+01 -1.51714356e+01  0.00000000e+00
  1.67808285e+01 -1.29429912e+01 -2.31954641e+01  0.00000000e+00
  1.75304658e+01 -1.15707137e+01 -2.55911701e+01  0.00000000e+00
  1.87311370e+01  2.82539370e+00  6.40121700e-01  7.61926220e-01
  1.29237100e+00  1.47131900e+00  1.61277800e-01  6.42977783e-01
  1.10000000e+00  3.28643653e+00  5.48467170e+03  8.25234950e+02
  1.88046960e+02  5.29645000e+01  1.68975700e+01  5.79963530e+00
  2.94842455e+00  5.42657124e+00  8.78126489e+00  1.15432129e+01
  9.90055015e+00  3.38516599e+00  1.55396160e+01  3.59993360e+00
  1.01376180e+00 -2.19051792e+00 -9.77405528e-01  2.88629094e+00
  2.70005800e-01  9.46334873e-01  1.55396160e+01  3.59993360e+00
  1.01376180e+00  6.37930734e+00  4.91490975e+00  2.15791055e+00
  2.70005800e-01  5.67807022e-01  8.00000000e-01  1.76578110e+00]
ecpbas  = []


******** <class 'pyscf.qmmm.itrf.mm_charge.<locals>.QMMM'> ********
method = QMMM-RHF
initial guess = minao
damping factor = 0
level shift factor = 0
DIIS = <class 'pyscf.scf.diis.CDIIS'>
DIIS start cycle = 1
DIIS space = 8
SCF tol = 1e-09
SCF gradient tol = None
max. SCF cycles = 50
direct_scf = True
direct_scf_tol = 1e-13
chkfile to save SCF result = /home/liwei01/wsr/dftpart/test_2body/w32/tmpdhq_u6u2
max_memory 4000 MB (current use 302 MB)
** Add background charges for <class 'pyscf.scf.hf.RHF'> **
Charge      Location
-1.009926    [ 16.42785407 -26.58707085 -18.04142885]
0.499922    [ 15.53371882 -25.95112132 -16.60336995]
0.507893    [ 16.16245338 -28.37548309 -17.98600129]
-1.024266    [ 13.70105109 -18.63199472 -24.76194313]
0.515186    [ 13.45609723 -19.31578456 -26.41855264]
0.515422    [ 13.87339411 -20.08163576 -23.69387937]
-1.050024    [ 10.52651529 -24.11298283 -20.2839555 ]
0.521386    [  8.7734466  -24.2410798  -19.85703047]
0.506414    [ 11.30765248 -23.44237383 -18.79666545]
-1.052762    [ 13.11969196 -22.35429031 -15.81898054]
0.521035    [ 14.16458201 -22.84877684 -14.42771692]
0.525545    [ 13.80909996 -20.77345693 -16.36451423]
-1.002885    [ 18.40539199 -27.51482622 -24.72543362]
0.521542    [ 17.83274639 -26.30664305 -23.50711585]
0.49877    [ 20.13069872 -27.06649815 -25.03241585]
-1.032188    [ 15.97118286 -20.09833149 -29.6421136 ]
0.47982    [ 15.3540909  -19.66610766 -31.28659296]
0.534069    [ 17.50300052 -21.00734455 -29.95701189]
-0.992133    [  7.63287216 -21.21078113 -24.19682809]
0.480184    [  8.55071592 -22.76668147 -24.10379498]
0.504586    [  8.37549106 -20.32880248 -25.59058803]
-1.012936    [ 10.55365553 -29.46492154 -21.67488842]
0.504954    [  8.84108934 -29.00412127 -22.03084479]
0.525721    [ 11.34418277 -27.91794449 -21.17105153]
-0.985176    [ 16.63195772 -23.48150439 -12.27810621]
0.500614    [ 17.11266814 -22.20236011 -11.09293235]
0.508291    [ 16.89319913 -25.03868407 -11.39557387]
-0.982261    [ 16.04742575 -26.75780005 -29.6895325 ]
0.479882    [ 16.71262824 -28.42851069 -29.88488293]
0.495008    [ 16.8532352  -26.12000803 -28.20097066]
-0.983713    [ 20.17321188 -22.53529584 -29.89394228]
0.505479    [ 21.06170253 -23.16751127 -28.4507471 ]
0.512532    [ 20.35114661 -23.83370776 -31.14069287]
-1.011239    [ 14.66303696 -31.18986921 -25.03135193]
0.492592    [ 13.80996545 -30.6346091  -23.53606456]
0.497341    [ 16.13314373 -30.14067248 -25.13086491]
-0.999332    [ 25.43111026 -22.24828235 -18.47023794]
0.512801    [ 26.28398524 -20.77981964 -19.09325419]
0.507583    [ 26.7410892  -23.47726762 -18.25698991]
-1.016163    [ 10.56617686 -29.35403808 -16.44102735]
0.483053    [ 11.92280935 -30.36927076 -15.8079521 ]
0.523726    [ 10.34862781 -29.90290525 -18.15080431]
-0.976012    [ 10.09067452 -21.18806662 -29.24260093]
0.486289    [ 11.11173701 -19.76402949 -29.69146191]
0.496485    [ 10.37375928 -22.38512875 -30.56881072]
-0.977833    [ 24.5589393  -27.80514674 -21.18389789]
0.50587    [ 23.21796885 -28.65180829 -20.31390388]
0.463809    [ 25.76766104 -27.42438582 -19.8931866 ]
-0.989717    [  8.77070649 -15.37911655 -23.94499373]
0.487556    [  8.68859978 -13.74216775 -23.17975481]
0.496916    [ 10.53805395 -15.75730555 -24.01835668]
-0.992057    [ 16.93410036 -32.15697813 -17.52810554]
0.50918    [ 16.39069828 -32.53931319 -15.84570882]
0.510293    [ 15.6895513  -32.92540692 -18.59231236]
-0.998393    [ 24.35861321 -18.31258187 -25.98586582]
0.466984    [ 25.48944989 -18.60606579 -24.60492389]
0.51604    [ 22.70911474 -18.4111103  -25.25008395]
-1.010464    [  9.27281806 -14.9477601  -17.25327322]
0.476424    [  7.6789399  -15.16789619 -18.07972415]
0.517552    [ 10.24747455 -16.38576609 -17.75736144]
-0.991473    [  5.5836248  -24.00414405 -18.66237963]
0.501887    [  5.79022289 -25.52045085 -17.69798247]
0.510487    [  5.17491673 -22.73885336 -17.43603619]
-1.029267    [  7.95719829 -25.19119252 -14.2761212 ]
0.497876    [  9.38018663 -24.0850659  -14.1227926 ]
0.519667    [  8.66153702 -26.76190075 -14.83174226]
-1.019724    [ 21.67798379 -29.0173418  -14.20699124]
0.475311    [ 20.53074618 -29.01816194 -15.60548117]
0.514632    [ 22.50198564 -27.40961194 -14.29731259]
-0.9959    [ 24.21450458 -24.60133719 -13.9203349 ]
0.499354    [ 23.58737251 -23.46499007 -12.66043371]
0.511038    [ 23.91476757 -23.75039163 -15.48812918]
-1.001922    [ 21.40011279 -32.14724982 -20.33868764]
0.487648    [ 22.14106118 -33.75675602 -19.97480576]
0.509505    [ 19.73399418 -32.24696878 -19.64152988]
Set gradient conv threshold to 3.16228e-05
Nelec from initial guess = 69.92545001906149
cond(S) = 169.11178986604236
E1 = -1433.954495894178  E_coul = 546.5952075871213
init E= -531.167817402914
    CPU time for initialize scf      5.85 sec, wall time      0.74 sec
  HOMO = -0.464965757562858  LUMO = 0.0237992715555038
  mo_energy =
[-20.84044897 -20.83498901 -20.82124618 -20.81909034 -20.80383359
 -20.79611205 -20.79561078  -1.69144865  -1.66400554  -1.65404605
  -1.63361751  -1.61648708  -1.60405626  -1.60130282  -0.79655469
  -0.7951326   -0.78246053  -0.77877739  -0.76478941  -0.75432601
  -0.72847031  -0.64987763  -0.636115    -0.62386581  -0.61341703
  -0.58732142  -0.58535496  -0.56265646  -0.51898112  -0.51551181
  -0.49907816  -0.49010498  -0.48438566  -0.47239804  -0.46496576
   0.02379927   0.09688381   0.12208328   0.15618235   0.16015584
   0.19202132   0.20449319   0.2291008    0.26695977   0.28037374
   0.2975497    0.3071881    0.32020215   0.3389066    0.85229219
   0.9016175    0.90932984   0.91494551   0.9270444    0.9416471
   0.95688842   0.96848625   0.97747913   0.98117351   0.99509729
   0.99560401   1.0098558    1.02454577   1.03092924   1.04581988
   1.05041957   1.06205928   1.07203967   1.09236616   1.112841
   1.12757165   1.13312574   1.1422763    1.15288912   1.17263141
   1.18188338   1.2050559    1.22270271   1.24423544   1.25158278
   1.25871456   1.28812008   1.31579439   1.36473114   1.44608349
   1.5226857    1.5549271    1.59167565   1.60074316   1.65755783
   1.6597495    1.68956564   1.69791659   1.70313979   1.70969141
   1.71718514   1.71865376   1.72707661   1.73139779   1.73186455
   1.74137975   1.74436204   1.75684928   1.78135743   1.80062838
   1.82006503   1.82858987   1.82918046   1.84775312   1.89654782
   1.92744103   1.96492991   2.43988462   2.46786892   2.49101041
   2.50931679   2.51686246   2.53089496   2.53674764   2.55297509
   2.55921835   2.5660684    2.57492354   2.58694108   2.60168644
   2.61199925   2.68588739   2.70938172   2.72410708   2.74508486
   2.78649223   2.80373335   2.81128692   2.86199838   2.87899115
   2.88927237   2.90499968   2.91637311   2.92621576   2.92881633
   2.93205375   2.93963133   2.94050395   2.95627303   2.97189984
   2.97899887   3.01151341   3.2872998    3.30734522   3.32405744
   3.32650724   3.33466677   3.34227125   3.3533002    3.66836831
   3.69044972   3.71188391   3.72397176   3.74287884   3.75021569
   3.757637     3.81525616   3.85841627   3.87382886   3.88846306
   3.90741651   3.91676613   3.94217097]
E1 = -1451.0385854141255  E_coul = 562.8102984370179
cycle= 1 E= -532.036816072965  delta_E= -0.869  |g|= 1.12  |ddm|= 3.12
    CPU time for cycle= 1      0.91 sec, wall time      0.11 sec
diis-norm(errvec)=1.98836
diis-c [-3.95355861  1.        ]
  HOMO = -0.357629875264323  LUMO = 0.0977150959752442
  mo_energy =
[-20.46443184 -20.46302225 -20.42247869 -20.28952028 -20.27260716
 -20.271952   -20.25037987  -1.394721    -1.36847404  -1.34737315
  -1.2497396   -1.23621109  -1.2290994   -1.21203379  -0.77419693
  -0.74379569  -0.72438842  -0.65072354  -0.63357824  -0.62251893
  -0.61494615  -0.60885089  -0.56607168  -0.56117289  -0.53060551
  -0.51844721  -0.50464092  -0.46615702  -0.46102167  -0.4570823
  -0.4285867   -0.40794564  -0.38186004  -0.37943078  -0.35762988
   0.0977151    0.17833101   0.20525962   0.25569848   0.28717017
   0.303131     0.31795596   0.33710195   0.34428826   0.38469261
   0.40947403   0.43506369   0.47900386   0.50305281   0.91461827
   0.93683354   0.968068     1.01033093   1.02540064   1.05425279
   1.06229683   1.07514657   1.07689829   1.11095064   1.12066298
   1.1270687    1.13924688   1.17303858   1.17968111   1.18713882
   1.20025625   1.23854926   1.24362686   1.25911127   1.27482752
   1.27730051   1.28725465   1.30183323   1.31831271   1.32470889
   1.3353308    1.34511951   1.37980543   1.39873939   1.41074274
   1.43757126   1.45149825   1.47317229   1.50690383   1.5639807
   1.64642325   1.70898399   1.71801883   1.73058087   1.7462806
   1.76222479   1.77963822   1.79217968   1.7992493    1.83772223
   1.84392808   1.85053811   1.86923031   1.87807087   1.88732978
   1.89505718   1.89994829   1.90777324   1.92687922   1.9853541
   1.99099669   2.00504433   2.0099205    2.02766478   2.03030174
   2.07963038   2.11156575   2.45622861   2.49642385   2.50301524
   2.53211408   2.56412955   2.61014034   2.61967749   2.62251107
   2.6350291    2.63696602   2.67744136   2.70126173   2.73174226
   2.74524384   2.77969963   2.79020673   2.81944065   2.8760114
   2.88298152   2.90855479   2.90928527   2.91953059   2.92737202
   2.9488373    2.95619256   3.00444997   3.00893044   3.02119337
   3.04283717   3.046471     3.04787646   3.05105248   3.08060337
   3.09209836   3.10144311   3.29040964   3.34233503   3.36007688
   3.43985031   3.44116692   3.44289119   3.46092097   3.67709774
   3.75756895   3.7719624    3.81514263   3.84592855   3.85345789
   3.8595165    3.87470788   3.95720098   3.99639129   4.02190505
   4.0551628    4.07688119   4.09720866]
E1 = -1440.7730115089573  E_coul = 552.3589343250326
cycle= 2 E= -532.222606279782  delta_E= -0.186  |g|= 0.536  |ddm|= 0.887
    CPU time for cycle= 2      0.90 sec, wall time      0.11 sec
diis-norm(errvec)=0.895981
diis-c [-0.1963418   0.28660846  0.71339154]
  HOMO = -0.453322492534088  LUMO = 0.100249581379979
  mo_energy =
[-20.68665602 -20.63540972 -20.63028506 -20.56602919 -20.56034618
 -20.55401259 -20.53497806  -1.45118792  -1.41078137  -1.40344233
  -1.33365096  -1.32452772  -1.31456174  -1.2999992   -0.81367422
  -0.77725687  -0.76320025  -0.71281304  -0.6950256   -0.68467921
  -0.67742921  -0.67506867  -0.63119174  -0.62179756  -0.59686712
  -0.5840818   -0.57227757  -0.55209569  -0.54324577  -0.54093444
  -0.52090246  -0.49748498  -0.47614757  -0.4726743   -0.45332249
   0.10024958   0.17728463   0.19710155   0.24516617   0.27457828
   0.29391839   0.30665606   0.32622126   0.33271938   0.3707984
   0.39144399   0.41135974   0.44843247   0.47248226   0.90961491
   0.9211551    0.95716812   0.99629776   1.00684693   1.02337528
   1.04617025   1.05339796   1.06194918   1.07875931   1.08222505
   1.09473831   1.10037828   1.12259109   1.12637166   1.13778204
   1.1499325    1.18975912   1.19344219   1.19877241   1.20610464
   1.21984317   1.22401989   1.23510345   1.25086119   1.27670165
   1.28299762   1.29555887   1.32421243   1.34714495   1.35647055
   1.3787084    1.3869517    1.41904421   1.45587804   1.5229909
   1.60621674   1.66541202   1.6715075    1.70498384   1.707782
   1.72907574   1.75151456   1.75690254   1.76248543   1.79635882
   1.80703245   1.81550012   1.82401469   1.83475863   1.83888841
   1.84798207   1.85310844   1.85485907   1.878272     1.93039496
   1.94144288   1.94826572   1.96108937   1.96868062   1.97362363
   2.02651885   2.06264828   2.47154486   2.47734878   2.50741204
   2.5267589    2.55190524   2.60185601   2.60562952   2.61580628
   2.62129451   2.62290749   2.62806412   2.65427325   2.6971165
   2.70872771   2.72992032   2.76424993   2.79421865   2.8419816
   2.86661936   2.87317026   2.89716129   2.90261719   2.91379809
   2.9305489    2.93411465   2.96846483   2.97497944   2.99981841
   3.0144184    3.02112173   3.02253421   3.02827534   3.04859425
   3.06597872   3.07147494   3.28337851   3.33745666   3.34992251
   3.41097637   3.41380808   3.41521356   3.42945006   3.6647069
   3.74486111   3.7624539    3.77929515   3.8092163    3.81963026
   3.82441776   3.84176624   3.92623327   3.96883421   3.96933467
   3.99780185   4.02170883   4.04083427]
E1 = -1445.3114970734232  E_coul = 556.847365764861
cycle= 3 E= -532.27266040442  delta_E= -0.0501  |g|= 0.0786  |ddm|= 0.347
    CPU time for cycle= 3      0.90 sec, wall time      0.11 sec
diis-norm(errvec)=0.144455
diis-c [-0.00980187 -0.02765707  0.06052133  0.96713574]
  HOMO = -0.443511117001724  LUMO = 0.10872985611037
  mo_energy =
[-20.64979337 -20.6114614  -20.6038978  -20.53422387 -20.52820944
 -20.51729584 -20.5009252   -1.43399019  -1.3980698   -1.39081248
  -1.3214667   -1.31263925  -1.30017905  -1.2874131   -0.7976764
  -0.76515255  -0.75118513  -0.70248774  -0.68469081  -0.6740334
  -0.66438803  -0.66254608  -0.62108081  -0.61199827  -0.58404154
  -0.57521764  -0.56277942  -0.5417585   -0.53404769  -0.53206957
  -0.51221183  -0.48806091  -0.46670831  -0.4613052   -0.44351112
   0.10872986   0.18510028   0.20376895   0.25096621   0.27969022
   0.3001277    0.31242257   0.33209595   0.34045638   0.37873043
   0.39781576   0.41724567   0.454695     0.47914576   0.92078119
   0.92944503   0.96643746   1.00573507   1.01698746   1.02961423
   1.05398852   1.06259627   1.0723372    1.08872222   1.09154736
   1.10442638   1.10993849   1.13113853   1.13517053   1.14658507
   1.15892141   1.19713136   1.20318644   1.2093841    1.21473562
   1.22925169   1.2323306    1.24319092   1.25887092   1.28599646
   1.29274221   1.30503007   1.33384427   1.35611743   1.36564945
   1.38777413   1.39584566   1.42863642   1.46478626   1.53394866
   1.61698007   1.67601229   1.68297402   1.7168451    1.72048486
   1.74123663   1.7628993    1.76748906   1.7733372    1.80624565
   1.81724197   1.8257562    1.83373777   1.84479136   1.84918044
   1.85728506   1.86308929   1.86514037   1.88768934   1.93892908
   1.95034352   1.95898381   1.97085934   1.97775608   1.98266134
   2.03493846   2.07091373   2.48522739   2.49139775   2.51942713
   2.53857078   2.56283889   2.6119827    2.61489949   2.6242899
   2.63166336   2.63378105   2.6368791    2.66331874   2.70722021
   2.72398839   2.73985259   2.77619955   2.80597833   2.85247747
   2.87884088   2.8861196    2.90762357   2.9129795    2.92660506
   2.94126205   2.94521197   2.97812819   2.98459969   3.00892997
   3.02407784   3.02911344   3.03200785   3.03808352   3.05616656
   3.07356744   3.08014622   3.29682228   3.34849742   3.3603776
   3.41873343   3.42232891   3.42450963   3.43766744   3.6820188
   3.75874012   3.77666809   3.79212389   3.82184779   3.83254076
   3.8371717    3.85659809   3.93787317   3.98061166   3.98080407
   4.00801392   4.03222912   4.05090483]
E1 = -1444.8120817230545  E_coul = 556.3465399443992
cycle= 4 E= -532.274070874513  delta_E= -0.00141  |g|= 0.0128  |ddm|= 0.0511
    CPU time for cycle= 4      0.91 sec, wall time      0.11 sec
diis-norm(errvec)=0.0265128
diis-c [-2.12369554e-04 -8.51547466e-03 -3.72362627e-02 -1.55591258e-01
  1.20134300e+00]
  HOMO = -0.445094472137597  LUMO = 0.108965659713376
  mo_energy =
[-20.65363516 -20.61076249 -20.60324387 -20.53525925 -20.52926136
 -20.52064211 -20.50310464  -1.435117    -1.39764153  -1.3905213
  -1.32211954  -1.31340636  -1.3014579   -1.28848664  -0.79784891
  -0.76425643  -0.75031711  -0.70250847  -0.68483153  -0.67408639
  -0.66504345  -0.6629895   -0.6210606   -0.61184967  -0.5856154
  -0.5755164   -0.56291655  -0.5426213   -0.5344874   -0.53261169
  -0.51303241  -0.48911237  -0.46787669  -0.46295631  -0.44509447
   0.10896566   0.18550619   0.20414788   0.25105278   0.27955967
   0.30024703   0.31216617   0.3321243    0.34095027   0.37914889
   0.39800223   0.41749416   0.45495077   0.47939152   0.92096475
   0.92976186   0.96674428   1.00556143   1.01684715   1.02940999
   1.0538192    1.06261952   1.07250634   1.08832962   1.09147984
   1.10395572   1.1095897    1.13091434   1.13456157   1.14651099
   1.15861109   1.19646261   1.20265031   1.20908777   1.21424893
   1.22880598   1.2317646    1.24274948   1.25812894   1.28579004
   1.29279813   1.30512845   1.3336826    1.35632174   1.36555037
   1.38765284   1.39561841   1.42848038   1.46484528   1.53365211
   1.61688211   1.67534123   1.68297575   1.71669728   1.7202998
   1.74118737   1.76299024   1.76777544   1.77348428   1.80635896
   1.8174936    1.82586148   1.83350149   1.84453786   1.84875689
   1.85714715   1.86271452   1.8647448    1.88766961   1.93870928
   1.9500916    1.95838833   1.97057593   1.97723309   1.9824147
   2.03499723   2.07091994   2.48573997   2.49135654   2.52025303
   2.5392559    2.56348259   2.61213562   2.61515859   2.62424563
   2.63164027   2.63334896   2.63690618   2.66315279   2.70706724
   2.72408002   2.73953592   2.77692286   2.80668511   2.85255706
   2.87876192   2.88641976   2.90808909   2.91330982   2.92712137
   2.94168582   2.9459654    2.97835983   2.98493236   3.00879444
   3.02398359   3.0290251    3.03189382   3.0379648    3.05617427
   3.07370147   3.08017048   3.29725292   3.34956437   3.36116023
   3.41866245   3.42236446   3.42451773   3.43771411   3.68212787
   3.75942773   3.77744279   3.79199263   3.82174735   3.83249803
   3.83694136   3.85669459   3.93869685   3.98070926   3.98180455
   4.00800819   4.03233346   4.05099755]
E1 = -1444.8306657854814  E_coul = 556.3650506156333
cycle= 5 E= -532.274144265706  delta_E= -7.34e-05  |g|= 0.00287  |ddm|= 0.0166
    CPU time for cycle= 5      0.92 sec, wall time      0.11 sec
diis-norm(errvec)=0.00526723
diis-c [-2.03603041e-05  1.05727010e-03  1.53302634e-03 -1.88727717e-02
 -4.55857151e-02  1.06186819e+00]
  HOMO = -0.445222187585694  LUMO = 0.10907006066069
  mo_energy =
[-20.65137133 -20.61187628 -20.60459822 -20.53585148 -20.52999573
 -20.51949904 -20.50282965  -1.43435781  -1.39808944  -1.39100436
  -1.32240911  -1.31374876  -1.30118859  -1.28850458  -0.7970767
  -0.76449344  -0.75052625  -0.70274256  -0.68504329  -0.6741684
  -0.66446528  -0.66269908  -0.62131786  -0.61208754  -0.58522894
  -0.57596626  -0.5633616   -0.54246389  -0.53502719  -0.5330796
  -0.51318573  -0.48951612  -0.46830749  -0.46280877  -0.44522219
   0.10907006   0.18563533   0.20406748   0.25097756   0.27946227
   0.30019654   0.31213697   0.33196133   0.34095459   0.37912857
   0.39794241   0.4173498    0.45473346   0.47920445   0.92120272
   0.92956814   0.96657599   1.00547277   1.01694565   1.02917569
   1.05367025   1.06250895   1.07242601   1.08846767   1.09143153
   1.10387484   1.10946134   1.13060712   1.13433293   1.14622878
   1.15848953   1.19627794   1.20271777   1.20927105   1.21425657
   1.22880022   1.23180157   1.24257314   1.25805999   1.28551503
   1.29266117   1.30473605   1.33360481   1.35614692   1.36528451
   1.38753149   1.39542262   1.4284222    1.46457988   1.53368812
   1.61681074   1.67537809   1.68296049   1.71656958   1.72061268
   1.74131078   1.76290769   1.76754595   1.77334939   1.80615999
   1.81721176   1.82564344   1.83325757   1.84430355   1.84866194
   1.85699003   1.86260264   1.86476975   1.88742998   1.93840536
   1.94989827   1.95850946   1.97059728   1.97717433   1.98223578
   2.03467663   2.0706546    2.48589109   2.49174734   2.52013363
   2.53910279   2.56326172   2.61188673   2.61488668   2.62403529
   2.63157271   2.63340302   2.6367677    2.6628493    2.70681919
   2.72450462   2.73944597   2.77666711   2.80641266   2.85230045
   2.8788161    2.88668865   2.90789725   2.91313602   2.92723016
   2.94155294   2.94577382   2.97813626   2.98473288   3.0086171
   3.02398465   3.02877384   3.03186823   3.03794263   3.05598514
   3.0734161    3.07996634   3.29757088   3.34935273   3.36095405
   3.4184201    3.42216801   3.4244827    3.43758941   3.68255951
   3.75917572   3.77723878   3.79186008   3.82162416   3.83241872
   3.83686128   3.85705017   3.93838194   3.98066933   3.98146988
   4.00777834   4.03216624   4.05079098]
E1 = -1444.8278685441371  E_coul = 556.3622503401897
cycle= 6 E= -532.274147299805  delta_E= -3.03e-06  |g|= 0.00129  |ddm|= 0.00358
    CPU time for cycle= 6      0.91 sec, wall time      0.11 sec
diis-norm(errvec)=0.0023074
diis-c [-1.37486313e-06  1.25505768e-03  4.82621310e-03  1.01369585e-02
 -1.39964269e-01  2.70788135e-01  8.52957904e-01]
  HOMO = -0.445309265547377  LUMO = 0.109057921475271
  mo_energy =
[-20.65215741 -20.61130913 -20.60394085 -20.53555768 -20.52966912
 -20.5198776  -20.50289035  -1.43461213  -1.39792346  -1.39082262
  -1.32232851  -1.31366532  -1.30132689  -1.28854386  -0.79722213
  -0.76432679  -0.75035105  -0.70265506  -0.68494889  -0.67413269
  -0.66468082  -0.66275722  -0.62125373  -0.61200147  -0.5854776
  -0.57589795  -0.56326957  -0.54262055  -0.5349296   -0.53301326
  -0.51323141  -0.48947307  -0.46826695  -0.46298365  -0.44530927
   0.10905792   0.18563256   0.20408209   0.2509737    0.27945818
   0.30020219   0.31211014   0.33197747   0.34098847   0.3791406
   0.39794315   0.41737375   0.45476308   0.47921735   0.9211343
   0.92957852   0.9666034    1.00545703   1.0168884    1.02917638
   1.05365937   1.06251049   1.07244017   1.08837831   1.09139852
   1.10383009   1.10945056   1.13063812   1.13433975   1.14626918
   1.15847002   1.19625459   1.20264231   1.2091898    1.21418795
   1.22875431   1.23171731   1.24256415   1.25800459   1.28555987
   1.29270182   1.30482428   1.33360896   1.35618181   1.36533924
   1.38755719   1.39545777   1.4284324    1.46464118   1.5336749
   1.61681652   1.67532665   1.68294846   1.71657943   1.72049763
   1.74125203   1.76291359   1.76759419   1.77337192   1.80618672
   1.81728392   1.82567605   1.83328813   1.84432527   1.84862885
   1.85698533   1.86258003   1.86469566   1.88746327   1.93845458
   1.94992494   1.95840553   1.97055972   1.97713534   1.98225691
   2.03474815   2.07069806   2.48586056   2.49161272   2.52015839
   2.53913547   2.56330286   2.61191287   2.61493094   2.62404185
   2.63153523   2.63330794   2.63674964   2.66288051   2.70685039
   2.72436303   2.7394137    2.77673011   2.80648143   2.852336
   2.87874345   2.8866026    2.90790894   2.91315115   2.92720522
   2.94157545   2.94583103   2.9781497    2.98477      3.00862603
   3.02391312   3.02878062   3.03183739   3.03789398   3.05596319
   3.07344375   3.07999112   3.29748301   3.34940885   3.36099823
   3.41842992   3.42217314   3.42442882   3.43756377   3.68243781
   3.75924809   3.77730917   3.79185124   3.82162331   3.83240613
   3.83683063   3.85692423   3.93847043   3.98062284   3.98155784
   4.00779698   4.03215986   4.05079265]
E1 = -1444.8255071263475  E_coul = 556.3598884553411
cycle= 7 E= -532.274147766864  delta_E= -4.67e-07  |g|= 0.000219  |ddm|= 0.00127
    CPU time for cycle= 7      0.91 sec, wall time      0.11 sec
diis-norm(errvec)=0.000407471
diis-c [-4.09548317e-08 -2.01441177e-04 -5.31786127e-04 -9.48206433e-04
  1.96569061e-02 -1.01953394e-01 -9.96631919e-02  1.18364111e+00]
  HOMO = -0.445316566145925  LUMO = 0.109068506434784
  mo_energy =
[-20.65203988 -20.61133699 -20.60398198 -20.53553846 -20.52965439
 -20.51983342 -20.50285344  -1.43456879  -1.3979321   -1.39083534
  -1.32232892  -1.3136706   -1.30131497  -1.28853786  -0.79716862
  -0.76431883  -0.75034019  -0.70265207  -0.68494523  -0.67412421
  -0.66464715  -0.66273583  -0.62125628  -0.61199789  -0.58546265
  -0.57591592  -0.56328469  -0.54261861  -0.53495181  -0.53303326
  -0.51323826  -0.48948594  -0.46828276  -0.46298158  -0.44531657
   0.10906851   0.18565189   0.20408843   0.25097851   0.27945701
   0.30020616   0.31211037   0.33197641   0.34099832   0.37914983
   0.39795069   0.41737817   0.45476729   0.47922387   0.92116186
   0.92958788   0.96660966   1.00546308   1.01690369   1.029178
   1.05366247   1.06251525   1.07244747   1.08839392   1.09140871
   1.10383287   1.10945084   1.13063208   1.1343362    1.14626459
   1.15847533   1.19625018   1.20265466   1.20921068   1.21419747
   1.22876394   1.23172452   1.24256365   1.2580066    1.28555677
   1.29271052   1.30482048   1.33361718   1.35619075   1.36533835
   1.3875638    1.39546156   1.42844224   1.46464289   1.53368618
   1.6168257    1.67533527   1.68296064   1.71658537   1.72052367
   1.74126961   1.76292031   1.767595     1.77337696   1.8061884
   1.81728106   1.82567566   1.83328691   1.84432283   1.84863042
   1.85698681   1.86258224   1.86470234   1.88746381   1.93844929
   1.94992395   1.95841433   1.97056808   1.97713908   1.98225778
   2.03474542   2.07069679   2.48588402   2.49164393   2.52017102
   2.5391441    2.56330599   2.61191133   2.61492908   2.62404111
   2.63154156   2.63331693   2.63675449   2.662876     2.70684867
   2.72439837   2.7394159    2.77673458   2.80648331   2.85233418
   2.87875567   2.88662902   2.90791857   2.91315923   2.92722554
   2.94157994   2.94583415   2.97815499   2.98477081   3.0086208
   3.0239211    3.02877751   3.03183826   3.03789937   3.05597078
   3.07344731   3.07998833   3.2975142    3.3494182    3.36100253
   3.41842641   3.42217507   3.42443703   3.43756913   3.6824757
   3.75925049   3.7773141    3.79185693   3.8216278    3.83241349
   3.83683589   3.85695497   3.93847      3.98063362   3.98156371
   4.00779714   4.03216771   4.05079767]
E1 = -1444.8250188844793  E_coul = 556.3594001919894
cycle= 8 E= -532.274147788348  delta_E= -2.15e-08  |g|= 3.28e-05  |ddm|= 0.000338
    CPU time for cycle= 8      0.91 sec, wall time      0.11 sec
diis-norm(errvec)=6.03157e-05
diis-c [-2.20675476e-09 -4.48413454e-05 -1.59734322e-04 -3.82106449e-04
  4.93555438e-03 -1.17037145e-02 -2.88967315e-02  3.05645415e-02
  1.00568703e+00]
  HOMO = -0.445315394707014  LUMO = 0.109070486965715
  mo_energy =
[-20.65204198 -20.61132465 -20.60396682 -20.53554732 -20.5296656
 -20.5198156  -20.50284984  -1.43456775  -1.39792753  -1.39083038
  -1.32233241  -1.31367538  -1.30130958  -1.2885367   -0.79716561
  -0.7643135   -0.75033446  -0.70265221  -0.68494658  -0.67412197
  -0.66464624  -0.66273078  -0.62125464  -0.61199435  -0.58546308
  -0.57591734  -0.56328471  -0.54261517  -0.5349512   -0.53303402
  -0.51323743  -0.48949002  -0.46828728  -0.46297631  -0.44531539
   0.10907049   0.18565369   0.20408896   0.25097824   0.27945671
   0.30020695   0.31211096   0.33197535   0.3410006    0.37915209
   0.39795104   0.41737751   0.45476651   0.4792235    0.92116375
   0.92958855   0.96661095   1.00546275   1.01690432   1.02917659
   1.05366233   1.06251656   1.07244931   1.08839384   1.09140969
   1.10383341   1.1094504    1.13062934   1.13433444   1.14626531
   1.15847523   1.19624947   1.20265487   1.20921213   1.21419781
   1.22876452   1.23172664   1.24256474   1.25800826   1.28555773
   1.2927115    1.30482219   1.33361834   1.35619313   1.36533914
   1.38756491   1.39546087   1.42844336   1.46464364   1.5336873
   1.61682682   1.67533716   1.68296131   1.71658557   1.72052491
   1.74127068   1.76292166   1.76759692   1.77337844   1.80618856
   1.81728373   1.82567741   1.83328499   1.84432158   1.84863051
   1.8569875    1.86258292   1.86470463   1.8874635    1.93844675
   1.94992288   1.95841732   1.97056901   1.97713967   1.98225667
   2.03474506   2.07069762   2.48588647   2.49164581   2.52017331
   2.53914659   2.56330838   2.61191124   2.61493014   2.62404021
   2.63154196   2.63331942   2.63675454   2.66287336   2.70684713
   2.72440031   2.73941741   2.77673738   2.80648651   2.85233297
   2.87875817   2.88663131   2.90791869   2.91315891   2.92722733
   2.9415819    2.94583682   2.97815519   2.98477278   3.00861951
   3.02392256   3.02877409   3.03183989   3.03790034   3.0559698
   3.07344541   3.07998813   3.29751661   3.34942104   3.36100521
   3.41842409   3.42217399   3.42443811   3.43756956   3.68247762
   3.75925342   3.77731795   3.79185621   3.8216279    3.83241378
   3.83683549   3.85695643   3.93847369   3.98063524   3.98156644
   4.00779547   4.03216695   4.05079685]
E1 = -1444.8249742532998  E_coul = 556.3593555603592
cycle= 9 E= -532.274147788798  delta_E= -4.51e-10  |g|= 1.21e-05  |ddm|= 4.71e-05
    CPU time for cycle= 9      0.91 sec, wall time      0.11 sec
  HOMO = -0.445314977839779  LUMO = 0.109070470397856
  mo_energy =
[-20.65203934 -20.61132904 -20.60397314 -20.53554111 -20.52965912
 -20.51982536 -20.50285057  -1.43456655  -1.39792897  -1.39083225
  -1.32233032  -1.31367323  -1.3013125   -1.28853657  -0.79716462
  -0.7643148   -0.75033574  -0.70265137  -0.68494526  -0.67412217
  -0.66464527  -0.66273299  -0.62125515  -0.61199486  -0.58546206
  -0.57591684  -0.56328489  -0.54261815  -0.53495149  -0.53303383
  -0.51323766  -0.48948764  -0.4682849   -0.4629788   -0.44531498
   0.10907047   0.18565387   0.20408869   0.25097801   0.2794568
   0.30020682   0.31211045   0.33197535   0.34100035   0.37915179
   0.39795069   0.41737763   0.45476674   0.47922351   0.92116413
   0.92958786   0.96661043   1.00546303   1.01690441   1.02917688
   1.05366233   1.06251629   1.07244893   1.08839437   1.09140907
   1.10383275   1.10945049   1.13063013   1.13433541   1.14626444
   1.15847507   1.19624947   1.20265491   1.20921227   1.21419771
   1.22876478   1.23172558   1.24256454   1.25800766   1.28555765
   1.29271125   1.30482133   1.33361812   1.3561919    1.36533924
   1.38756491   1.39546141   1.4284431    1.46464338   1.53368748
   1.6168267    1.67533579   1.68296166   1.71658553   1.72052557
   1.74127106   1.76292168   1.76759646   1.77337844   1.80618875
   1.81728296   1.82567685   1.83328595   1.84432192   1.84862999
   1.85698748   1.86258286   1.86470313   1.88746333   1.93844758
   1.94992368   1.95841534   1.97056926   1.97713981   1.98225741
   2.03474523   2.07069745   2.4858867    2.49164648   2.52017292
   2.53914617   2.56330779   2.61191101   2.61492952   2.62404039
   2.63154122   2.63331767   2.63675441   2.66287419   2.7068481
   2.72440098   2.73941739   2.77673662   2.80648564   2.85233351
   2.87875677   2.88663164   2.90791853   2.91315924   2.9272274
   2.94158173   2.94583635   2.97815514   2.98477276   3.00861999
   3.02392124   3.02877466   3.03183967   3.0378995    3.05596982
   3.073446     3.07998853   3.29751713   3.34942038   3.36100453
   3.41842469   3.42217445   3.42443711   3.43756957   3.68247829
   3.75925242   3.77731697   3.79185605   3.82162811   3.83241387
   3.83683519   3.85695701   3.93847259   3.98063409   3.98156555
   4.00779633   4.03216711   4.05079723]
E1 = -1444.82499754  E_coul = 556.3593788470038
Extra cycle  E= -532.274147788854  delta_E= -5.55e-11  |g|= 6.47e-06  |ddm|= 1.62e-05
    CPU time for scf_cycle     14.94 sec, wall time      1.88 sec
    CPU time for SCF     14.95 sec, wall time      1.89 sec
converged SCF energy = -532.274147788854
