Atom number=15                                                          
SP        RHF                                                         6-31G(d,p)          
Number of atoms                            I               15
Info1-9                                    I   N=           9
         107         106           0           0           0         111
           1           1           2
Full Title                                 C   N=           2
Atom number=15          
Route                                      C   N=           4
#p hf/6-31g** 5d 7f pop=npa charge nosymm       
Charge                                     I                0
Multiplicity                               I                1
Number of electrons                        I               50
Number of alpha electrons                  I               25
Number of beta electrons                   I               25
Number of basis functions                  I              120
Number of independent functions            I              120
Number of point charges in /Mol/           I                0
Number of translation vectors              I                0
Atomic numbers                             I   N=          15
           8           8           8           8           8           1
           1           1           1           1           1           1
           1           1           1
Nuclear charges                            R   N=          15
  8.00000000E+00  8.00000000E+00  8.00000000E+00  8.00000000E+00  8.00000000E+00
  1.00000000E+00  1.00000000E+00  1.00000000E+00  1.00000000E+00  1.00000000E+00
  1.00000000E+00  1.00000000E+00  1.00000000E+00  1.00000000E+00  1.00000000E+00
Current cartesian coordinates              R   N=          45
  1.05265153E+01 -2.41129828E+01 -2.02839555E+01  1.31196920E+01 -2.23542903E+01
 -1.58189805E+01  1.05661769E+01 -2.93540381E+01 -1.64410274E+01  5.58362480E+00
 -2.40041441E+01 -1.86623796E+01  7.95719829E+00 -2.51911925E+01 -1.42761212E+01
  8.77344660E+00 -2.42410798E+01 -1.98570305E+01  1.13076525E+01 -2.34423738E+01
 -1.87966655E+01  1.41645820E+01 -2.28487768E+01 -1.44277169E+01  1.38091000E+01
 -2.07734569E+01 -1.63645142E+01  1.19228094E+01 -3.03692708E+01 -1.58079521E+01
  1.03486278E+01 -2.99029053E+01 -1.81508043E+01  5.79022289E+00 -2.55204508E+01
 -1.76979825E+01  5.17491673E+00 -2.27388534E+01 -1.74360362E+01  9.38018663E+00
 -2.40850659E+01 -1.41227926E+01  8.66153702E+00 -2.67619008E+01 -1.48317423E+01
Number of symbols in /Mol/                 I                0
Force Field                                I                0
Atom Types                                 C   N=          15
                                                            
                                                            
                                                            
Int Atom Types                             I   N=          15
           0           0           0           0           0           0
           0           0           0           0           0           0
           0           0           0
MM charges                                 R   N=          15
  0.00000000E+00  0.00000000E+00  0.00000000E+00  0.00000000E+00  0.00000000E+00
  0.00000000E+00  0.00000000E+00  0.00000000E+00  0.00000000E+00  0.00000000E+00
  0.00000000E+00  0.00000000E+00  0.00000000E+00  0.00000000E+00  0.00000000E+00
Integer atomic weights                     I   N=          15
          16          16          16          16          16           1
           1           1           1           1           1           1
           1           1           1
Real atomic weights                        R   N=          15
  1.59949146E+01  1.59949146E+01  1.59949146E+01  1.59949146E+01  1.59949146E+01
  1.00782504E+00  1.00782504E+00  1.00782504E+00  1.00782504E+00  1.00782504E+00
  1.00782504E+00  1.00782504E+00  1.00782504E+00  1.00782504E+00  1.00782504E+00
Atom fragment info                         I   N=          15
           0           0           0           0           0           0
           0           0           0           0           0           0
           0           0           0
Atom residue num                           I   N=          15
           0           0           0           0           0           0
           0           0           0           0           0           0
           0           0           0
Nuclear spins                              I   N=          15
           0           0           0           0           0           1
           1           1           1           1           1           1
           1           1           1
Nuclear ZEff                               R   N=          15
 -5.60000000E+00 -5.60000000E+00 -5.60000000E+00 -5.60000000E+00 -5.60000000E+00
 -1.00000000E+00 -1.00000000E+00 -1.00000000E+00 -1.00000000E+00 -1.00000000E+00
 -1.00000000E+00 -1.00000000E+00 -1.00000000E+00 -1.00000000E+00 -1.00000000E+00
Nuclear ZNuc                               R   N=          15
  8.00000000E+00  8.00000000E+00  8.00000000E+00  8.00000000E+00  8.00000000E+00
  1.00000000E+00  1.00000000E+00  1.00000000E+00  1.00000000E+00  1.00000000E+00
  1.00000000E+00  1.00000000E+00  1.00000000E+00  1.00000000E+00  1.00000000E+00
Nuclear QMom                               R   N=          15
  0.00000000E+00  0.00000000E+00  0.00000000E+00  0.00000000E+00  0.00000000E+00
  0.00000000E+00  0.00000000E+00  0.00000000E+00  0.00000000E+00  0.00000000E+00
  0.00000000E+00  0.00000000E+00  0.00000000E+00  0.00000000E+00  0.00000000E+00
Nuclear GFac                               R   N=          15
  0.00000000E+00  0.00000000E+00  0.00000000E+00  0.00000000E+00  0.00000000E+00
  2.79284600E+00  2.79284600E+00  2.79284600E+00  2.79284600E+00  2.79284600E+00
  2.79284600E+00  2.79284600E+00  2.79284600E+00  2.79284600E+00  2.79284600E+00
MicOpt                                     I   N=          15
          -1          -1          -1          -1          -1          -1
          -1          -1          -1          -1          -1          -1
          -1          -1          -1
Number of residues                         I                0
Number of secondary structures             I                0
Number of contracted shells                I               50
Number of primitive shells                 I              105
Pure/Cartesian d shells                    I                0
Pure/Cartesian f shells                    I                0
Highest angular momentum                   I                2
Largest degree of contraction              I                6
Shell types                                I   N=          50
           0          -1          -1          -2           0          -1
          -1          -2           0          -1          -1          -2
           0          -1          -1          -2           0          -1
          -1          -2           0           0           1           0
           0           1           0           0           1           0
           0           1           0           0           1           0
           0           1           0           0           1           0
           0           1           0           0           1           0
           0           1
Number of primitives per shell             I   N=          50
           6           3           1           1           6           3
           1           1           6           3           1           1
           6           3           1           1           6           3
           1           1           3           1           1           3
           1           1           3           1           1           3
           1           1           3           1           1           3
           1           1           3           1           1           3
           1           1           3           1           1           3
           1           1
Shell to atom map                          I   N=          50
           1           1           1           1           2           2
           2           2           3           3           3           3
           4           4           4           4           5           5
           5           5           6           6           6           7
           7           7           8           8           8           9
           9           9          10          10          10          11
          11          11          12          12          12          13
          13          13          14          14          14          15
          15          15
Primitive exponents                        R   N=         105
  5.48467166E+03  8.25234946E+02  1.88046958E+02  5.29645000E+01  1.68975704E+01
  5.79963534E+00  1.55396162E+01  3.59993359E+00  1.01376175E+00  2.70005823E-01
  8.00000000E-01  5.48467166E+03  8.25234946E+02  1.88046958E+02  5.29645000E+01
  1.68975704E+01  5.79963534E+00  1.55396162E+01  3.59993359E+00  1.01376175E+00
  2.70005823E-01  8.00000000E-01  5.48467166E+03  8.25234946E+02  1.88046958E+02
  5.29645000E+01  1.68975704E+01  5.79963534E+00  1.55396162E+01  3.59993359E+00
  1.01376175E+00  2.70005823E-01  8.00000000E-01  5.48467166E+03  8.25234946E+02
  1.88046958E+02  5.29645000E+01  1.68975704E+01  5.79963534E+00  1.55396162E+01
  3.59993359E+00  1.01376175E+00  2.70005823E-01  8.00000000E-01  5.48467166E+03
  8.25234946E+02  1.88046958E+02  5.29645000E+01  1.68975704E+01  5.79963534E+00
  1.55396162E+01  3.59993359E+00  1.01376175E+00  2.70005823E-01  8.00000000E-01
  1.87311370E+01  2.82539436E+00  6.40121692E-01  1.61277759E-01  1.10000000E+00
  1.87311370E+01  2.82539436E+00  6.40121692E-01  1.61277759E-01  1.10000000E+00
  1.87311370E+01  2.82539436E+00  6.40121692E-01  1.61277759E-01  1.10000000E+00
  1.87311370E+01  2.82539436E+00  6.40121692E-01  1.61277759E-01  1.10000000E+00
  1.87311370E+01  2.82539436E+00  6.40121692E-01  1.61277759E-01  1.10000000E+00
  1.87311370E+01  2.82539436E+00  6.40121692E-01  1.61277759E-01  1.10000000E+00
  1.87311370E+01  2.82539436E+00  6.40121692E-01  1.61277759E-01  1.10000000E+00
  1.87311370E+01  2.82539436E+00  6.40121692E-01  1.61277759E-01  1.10000000E+00
  1.87311370E+01  2.82539436E+00  6.40121692E-01  1.61277759E-01  1.10000000E+00
  1.87311370E+01  2.82539436E+00  6.40121692E-01  1.61277759E-01  1.10000000E+00
Contraction coefficients                   R   N=         105
  1.83107443E-03  1.39501722E-02  6.84450781E-02  2.32714336E-01  4.70192898E-01
  3.58520853E-01 -1.10777550E-01 -1.48026263E-01  1.13076702E+00  1.00000000E+00
  1.00000000E+00  1.83107443E-03  1.39501722E-02  6.84450781E-02  2.32714336E-01
  4.70192898E-01  3.58520853E-01 -1.10777550E-01 -1.48026263E-01  1.13076702E+00
  1.00000000E+00  1.00000000E+00  1.83107443E-03  1.39501722E-02  6.84450781E-02
  2.32714336E-01  4.70192898E-01  3.58520853E-01 -1.10777550E-01 -1.48026263E-01
  1.13076702E+00  1.00000000E+00  1.00000000E+00  1.83107443E-03  1.39501722E-02
  6.84450781E-02  2.32714336E-01  4.70192898E-01  3.58520853E-01 -1.10777550E-01
 -1.48026263E-01  1.13076702E+00  1.00000000E+00  1.00000000E+00  1.83107443E-03
  1.39501722E-02  6.84450781E-02  2.32714336E-01  4.70192898E-01  3.58520853E-01
 -1.10777550E-01 -1.48026263E-01  1.13076702E+00  1.00000000E+00  1.00000000E+00
  3.34946043E-02  2.34726953E-01  8.13757326E-01  1.00000000E+00  1.00000000E+00
  3.34946043E-02  2.34726953E-01  8.13757326E-01  1.00000000E+00  1.00000000E+00
  3.34946043E-02  2.34726953E-01  8.13757326E-01  1.00000000E+00  1.00000000E+00
  3.34946043E-02  2.34726953E-01  8.13757326E-01  1.00000000E+00  1.00000000E+00
  3.34946043E-02  2.34726953E-01  8.13757326E-01  1.00000000E+00  1.00000000E+00
  3.34946043E-02  2.34726953E-01  8.13757326E-01  1.00000000E+00  1.00000000E+00
  3.34946043E-02  2.34726953E-01  8.13757326E-01  1.00000000E+00  1.00000000E+00
  3.34946043E-02  2.34726953E-01  8.13757326E-01  1.00000000E+00  1.00000000E+00
  3.34946043E-02  2.34726953E-01  8.13757326E-01  1.00000000E+00  1.00000000E+00
  3.34946043E-02  2.34726953E-01  8.13757326E-01  1.00000000E+00  1.00000000E+00
P(S=P) Contraction coefficients            R   N=         105
  0.00000000E+00  0.00000000E+00  0.00000000E+00  0.00000000E+00  0.00000000E+00
  0.00000000E+00  7.08742682E-02  3.39752839E-01  7.27158577E-01  1.00000000E+00
  0.00000000E+00  0.00000000E+00  0.00000000E+00  0.00000000E+00  0.00000000E+00
  0.00000000E+00  0.00000000E+00  7.08742682E-02  3.39752839E-01  7.27158577E-01
  1.00000000E+00  0.00000000E+00  0.00000000E+00  0.00000000E+00  0.00000000E+00
  0.00000000E+00  0.00000000E+00  0.00000000E+00  7.08742682E-02  3.39752839E-01
  7.27158577E-01  1.00000000E+00  0.00000000E+00  0.00000000E+00  0.00000000E+00
  0.00000000E+00  0.00000000E+00  0.00000000E+00  0.00000000E+00  7.08742682E-02
  3.39752839E-01  7.27158577E-01  1.00000000E+00  0.00000000E+00  0.00000000E+00
  0.00000000E+00  0.00000000E+00  0.00000000E+00  0.00000000E+00  0.00000000E+00
  7.08742682E-02  3.39752839E-01  7.27158577E-01  1.00000000E+00  0.00000000E+00
  0.00000000E+00  0.00000000E+00  0.00000000E+00  0.00000000E+00  0.00000000E+00
  0.00000000E+00  0.00000000E+00  0.00000000E+00  0.00000000E+00  0.00000000E+00
  0.00000000E+00  0.00000000E+00  0.00000000E+00  0.00000000E+00  0.00000000E+00
  0.00000000E+00  0.00000000E+00  0.00000000E+00  0.00000000E+00  0.00000000E+00
  0.00000000E+00  0.00000000E+00  0.00000000E+00  0.00000000E+00  0.00000000E+00
  0.00000000E+00  0.00000000E+00  0.00000000E+00  0.00000000E+00  0.00000000E+00
  0.00000000E+00  0.00000000E+00  0.00000000E+00  0.00000000E+00  0.00000000E+00
  0.00000000E+00  0.00000000E+00  0.00000000E+00  0.00000000E+00  0.00000000E+00
  0.00000000E+00  0.00000000E+00  0.00000000E+00  0.00000000E+00  0.00000000E+00
  0.00000000E+00  0.00000000E+00  0.00000000E+00  0.00000000E+00  0.00000000E+00
Coordinates of each shell                  R   N=         150
  1.05265153E+01 -2.41129828E+01 -2.02839555E+01  1.05265153E+01 -2.41129828E+01
 -2.02839555E+01  1.05265153E+01 -2.41129828E+01 -2.02839555E+01  1.05265153E+01
 -2.41129828E+01 -2.02839555E+01  1.31196920E+01 -2.23542903E+01 -1.58189805E+01
  1.31196920E+01 -2.23542903E+01 -1.58189805E+01  1.31196920E+01 -2.23542903E+01
 -1.58189805E+01  1.31196920E+01 -2.23542903E+01 -1.58189805E+01  1.05661769E+01
 -2.93540381E+01 -1.64410274E+01  1.05661769E+01 -2.93540381E+01 -1.64410274E+01
  1.05661769E+01 -2.93540381E+01 -1.64410274E+01  1.05661769E+01 -2.93540381E+01
 -1.64410274E+01  5.58362480E+00 -2.40041441E+01 -1.86623796E+01  5.58362480E+00
 -2.40041441E+01 -1.86623796E+01  5.58362480E+00 -2.40041441E+01 -1.86623796E+01
  5.58362480E+00 -2.40041441E+01 -1.86623796E+01  7.95719829E+00 -2.51911925E+01
 -1.42761212E+01  7.95719829E+00 -2.51911925E+01 -1.42761212E+01  7.95719829E+00
 -2.51911925E+01 -1.42761212E+01  7.95719829E+00 -2.51911925E+01 -1.42761212E+01
  8.77344660E+00 -2.42410798E+01 -1.98570305E+01  8.77344660E+00 -2.42410798E+01
 -1.98570305E+01  8.77344660E+00 -2.42410798E+01 -1.98570305E+01  1.13076525E+01
 -2.34423738E+01 -1.87966655E+01  1.13076525E+01 -2.34423738E+01 -1.87966655E+01
  1.13076525E+01 -2.34423738E+01 -1.87966655E+01  1.41645820E+01 -2.28487768E+01
 -1.44277169E+01  1.41645820E+01 -2.28487768E+01 -1.44277169E+01  1.41645820E+01
 -2.28487768E+01 -1.44277169E+01  1.38091000E+01 -2.07734569E+01 -1.63645142E+01
  1.38091000E+01 -2.07734569E+01 -1.63645142E+01  1.38091000E+01 -2.07734569E+01
 -1.63645142E+01  1.19228094E+01 -3.03692708E+01 -1.58079521E+01  1.19228094E+01
 -3.03692708E+01 -1.58079521E+01  1.19228094E+01 -3.03692708E+01 -1.58079521E+01
  1.03486278E+01 -2.99029053E+01 -1.81508043E+01  1.03486278E+01 -2.99029053E+01
 -1.81508043E+01  1.03486278E+01 -2.99029053E+01 -1.81508043E+01  5.79022289E+00
 -2.55204508E+01 -1.76979825E+01  5.79022289E+00 -2.55204508E+01 -1.76979825E+01
  5.79022289E+00 -2.55204508E+01 -1.76979825E+01  5.17491673E+00 -2.27388534E+01
 -1.74360362E+01  5.17491673E+00 -2.27388534E+01 -1.74360362E+01  5.17491673E+00
 -2.27388534E+01 -1.74360362E+01  9.38018663E+00 -2.40850659E+01 -1.41227926E+01
  9.38018663E+00 -2.40850659E+01 -1.41227926E+01  9.38018663E+00 -2.40850659E+01
 -1.41227926E+01  8.66153702E+00 -2.67619008E+01 -1.48317423E+01  8.66153702E+00
 -2.67619008E+01 -1.48317423E+01  8.66153702E+00 -2.67619008E+01 -1.48317423E+01
Num ILSW                                   I              100
ILSW                                       I   N=         100
           0           0           0           0           2           0
           0           0           0           0           0          -1
           5           0           0           0           0           0
           0           0           0           0           0           0
           1           1           0           0           0           0
           0           0      100000           0          -1           0
           0           0           0           0           0           0
           0           0           0           1           0           0
           0 -2000000000           1           0           0           0
           0           0           4          52           0           0
           0           1           0           0           0           0
           0           0           0          15           0           1
           0           0           0           0           0           0
           0           0           0           0           0           0
           0           0           0           0           0           0
           0           0           0           0           0           0
           0           0           0           0
Num RLSW                                   I               52
RLSW                                       R   N=          52
  1.00000000E+00  1.00000000E+00  1.00000000E+00  1.00000000E+00  1.00000000E+00
  0.00000000E+00  0.00000000E+00  1.00000000E+00  0.00000000E+00  0.00000000E+00
  0.00000000E+00  0.00000000E+00  1.00000000E+00  0.00000000E+00  0.00000000E+00
  0.00000000E+00  0.00000000E+00  1.00000000E+00  0.00000000E+00  0.00000000E+00
  0.00000000E+00  0.00000000E+00  1.00000000E+00  0.00000000E+00  0.00000000E+00
  0.00000000E+00  0.00000000E+00  1.00000000E+00  0.00000000E+00  0.00000000E+00
  0.00000000E+00  0.00000000E+00  1.00000000E+00  0.00000000E+00  0.00000000E+00
  0.00000000E+00  0.00000000E+00  0.00000000E+00  1.00000000E+00  1.00000000E+00
  0.00000000E+00  1.00000000E+00  0.00000000E+00  0.00000000E+00  0.00000000E+00
  0.00000000E+00  0.00000000E+00  0.00000000E+00  0.00000000E+00  0.00000000E+00
  0.00000000E+00  0.00000000E+00
MxBond                                     I                2
NBond                                      I   N=          15
           2           2           2           2           2           1
           1           1           1           1           1           1
           1           1           1
IBond                                      I   N=          30
           6           7           8           9          10          11
          12          13          14          15           1           0
           1           0           2           0           2           0
           3           0           3           0           4           0
           4           0           5           0           5           0
RBond                                      R   N=          30
  1.00000000E+00  1.00000000E+00  1.00000000E+00  1.00000000E+00  1.00000000E+00
  1.00000000E+00  1.00000000E+00  1.00000000E+00  1.00000000E+00  1.00000000E+00
  1.00000000E+00  0.00000000E+00  1.00000000E+00  0.00000000E+00  1.00000000E+00
  0.00000000E+00  1.00000000E+00  0.00000000E+00  1.00000000E+00  0.00000000E+00
  1.00000000E+00  0.00000000E+00  1.00000000E+00  0.00000000E+00  1.00000000E+00
  0.00000000E+00  1.00000000E+00  0.00000000E+00  1.00000000E+00  0.00000000E+00
Virial Ratio                               R      2.035881238525520E+00
SCF Energy                                 R     -3.932300294211800E+02
Total Energy                               R     -3.932300294211800E+02
RMS Density                                R      6.199769907321701E-09
Job Status                                 I                1
Nuclear derivative order                   I                0
External E-field                           R   N=          35
  0.00000000E+00  0.00000000E+00  0.00000000E+00  0.00000000E+00  0.00000000E+00
  0.00000000E+00  0.00000000E+00  0.00000000E+00  0.00000000E+00  0.00000000E+00
  0.00000000E+00  0.00000000E+00  0.00000000E+00  0.00000000E+00  0.00000000E+00
  0.00000000E+00  0.00000000E+00  0.00000000E+00  0.00000000E+00  0.00000000E+00
  0.00000000E+00  0.00000000E+00  0.00000000E+00  0.00000000E+00  0.00000000E+00
  0.00000000E+00  0.00000000E+00  0.00000000E+00  0.00000000E+00  0.00000000E+00
  0.00000000E+00  0.00000000E+00  0.00000000E+00  0.00000000E+00  0.00000000E+00
IOpCl                                      I                0
IROHF                                      I                0
Alpha Orbital Energies                     R   N=         120
 -2.06193667E+01 -2.05969360E+01 -2.05461441E+01 -2.05400539E+01 -2.05118869E+01
 -1.40334202E+00 -1.38137725E+00 -1.33863379E+00 -1.32430089E+00 -1.29937298E+00
 -7.64154194E-01 -7.42353506E-01 -7.13504558E-01 -6.92158933E-01 -6.76447813E-01
 -6.37342961E-01 -6.12591389E-01 -5.72384493E-01 -5.60962141E-01 -5.53127285E-01
 -5.39767738E-01 -5.36344614E-01 -4.89951503E-01 -4.65348732E-01 -4.61199761E-01
  1.51028922E-01  1.96777882E-01  2.45787085E-01  2.83585550E-01  3.06571575E-01
  3.24404630E-01  3.42256184E-01  3.73277036E-01  4.27435428E-01  5.00525677E-01
  9.32722090E-01  9.80658263E-01  9.92057418E-01  1.02216630E+00  1.03143480E+00
  1.04512777E+00  1.07554143E+00  1.07590775E+00  1.09675807E+00  1.11139900E+00
  1.13278116E+00  1.14216679E+00  1.15606386E+00  1.18623774E+00  1.21134657E+00
  1.23647123E+00  1.25900401E+00  1.30360154E+00  1.30853723E+00  1.34400315E+00
  1.34885106E+00  1.35796858E+00  1.41058948E+00  1.42985425E+00  1.48136140E+00
  1.59498927E+00  1.62375776E+00  1.69360446E+00  1.73907260E+00  1.74719613E+00
  1.76566815E+00  1.77884148E+00  1.79930894E+00  1.81640104E+00  1.81856323E+00
  1.84320728E+00  1.85496478E+00  1.86867041E+00  1.89623039E+00  1.91246237E+00
  1.94643592E+00  1.97167709E+00  1.99670807E+00  2.01742871E+00  2.05152277E+00
  2.51877147E+00  2.53645915E+00  2.54440417E+00  2.55758614E+00  2.57095195E+00
  2.62100199E+00  2.62644784E+00  2.64245807E+00  2.67628821E+00  2.75451932E+00
  2.78382506E+00  2.81019914E+00  2.83860938E+00  2.87589539E+00  2.91559970E+00
  2.92206987E+00  2.94148290E+00  2.95746562E+00  2.96730373E+00  2.99291484E+00
  3.02614874E+00  3.03294818E+00  3.03411233E+00  3.06491862E+00  3.09188588E+00
  3.32760667E+00  3.37014889E+00  3.39739427E+00  3.43498902E+00  3.44533409E+00
  3.71338566E+00  3.74452380E+00  3.78167096E+00  3.82312899E+00  3.86342998E+00
  3.87670093E+00  3.92523375E+00  3.99013944E+00  4.02900212E+00  4.08037164E+00
Alpha MO coefficients                      R   N=       14400
  6.18611358E-06  3.19409070E-05  2.42491417E-06 -6.05116734E-06  3.44728933E-06
 -9.04356115E-05 -3.25781848E-05  5.19718425E-06 -5.14549997E-05 -6.48811445E-06
 -6.31622109E-06 -1.02254713E-06  2.05570802E-06 -4.90354534E-06 -3.57118495E-06
 -1.79987785E-06  2.94247635E-06 -5.79053609E-06 -9.71814021E-06  1.28533920E-05
 -3.80885556E-06  1.92906992E-05  4.34526645E-05 -7.73118489E-07 -4.34423931E-06
 -3.68021835E-06  4.26063090E-06  4.97785539E-07  9.95700506E-01  2.21237573E-02
  1.02161948E-03 -1.35115272E-03 -8.74125758E-04 -6.05442634E-03 -1.52343352E-04
  2.20619460E-04  1.50000246E-04  2.37847696E-04  3.11264018E-04  2.11227116E-05
  7.60009682E-05 -2.31922886E-04 -1.68968254E-05 -4.55956344E-05  8.53607614E-06
  5.76059713E-06  5.44252535E-06  2.01171890E-04 -7.99118634E-06 -8.20914062E-05
  2.98376767E-05 -2.73813853E-06 -3.75671036E-06 -9.72077247E-06 -1.22372148E-05
 -3.54603783E-06  8.30663294E-05  2.83641351E-04  3.86536791E-06 -6.61944134E-05
  6.19420514E-06 -1.03848281E-03 -1.80475635E-04  6.49772536E-04  1.46520099E-04
  4.06634945E-05  3.96493278E-05 -5.89628687E-05  5.11465431E-05  9.27986184E-05
  1.98301953E-05 -4.98666090E-05 -3.26458516E-06 -1.56730612E-07  6.27819396E-07
  8.66371878E-06  1.04462900E-04 -6.12582673E-06 -7.60948133E-06 -1.37668653E-05
 -1.03503720E-05 -2.95357059E-06  2.79719553E-06 -4.71498828E-06 -1.54078119E-06
 -6.71904587E-07 -1.21860209E-05  1.88362544E-06  4.71057000E-07 -5.74166474E-06
 -6.11227707E-04  1.09607313E-03  9.08852254E-04 -6.83703548E-04  4.20927440E-04
 -5.89677605E-04  1.10096923E-03 -1.41199117E-04 -3.57896265E-04 -1.10585272E-03
 -1.72921302E-06 -2.69945729E-04 -1.06117493E-05 -1.95611210E-05  1.42938808E-05
 -5.44733916E-06  8.78077386E-06  1.41272164E-06  5.77949133E-06  2.01794633E-06
  3.42751902E-05 -2.81404960E-04  3.42668435E-05 -5.60060857E-06  6.59244895E-06
  1.06520781E-04  1.54305436E-03  2.02204729E-05  6.59839371E-05 -1.87607664E-05
  6.99113411E-05  2.54440966E-04  5.08022533E-05  3.47305483E-05  4.30568895E-05
 -8.60022223E-04 -4.97844743E-04 -2.77137587E-04 -4.89643871E-04 -7.80665006E-05
 -9.06144045E-05 -6.56033858E-05  1.05902742E-05 -3.16010797E-05  9.95696761E-01
  2.21485888E-02  1.47793610E-03  8.79432829E-04  6.81444806E-04 -6.01356161E-03
 -2.36334490E-04 -2.31088410E-04  8.94894006E-05  3.41585774E-06  2.42725475E-04
 -3.74123560E-04 -1.30726921E-04  7.13009648E-05  2.68000487E-06 -6.59089479E-06
  1.27742893E-05  6.06560507E-06 -6.93281553E-06  2.56633599E-05 -5.04300790E-05
  4.14970868E-06  3.60430428E-05 -1.26289369E-06 -2.66986107E-06  5.17406728E-06
  6.76532176E-07 -6.94495220E-06 -2.00234681E-05 -3.84318870E-05 -1.08109096E-05
  2.29233092E-06  1.63584005E-05  9.30850339E-05  8.26984826E-05 -8.37500116E-06
 -7.98783623E-05 -8.61720210E-06 -1.23055890E-05 -6.26124564E-06  1.29827656E-05
 -2.33556167E-06  5.09688390E-05  1.24096459E-04  4.24344085E-06  1.72096224E-05
  3.04142403E-06 -4.48944343E-04 -2.48539956E-04 -3.17456224E-04 -4.67286670E-05
  4.23978033E-05 -3.01181765E-06  5.83497129E-06 -3.90064989E-05 -9.12133742E-05
  4.04188165E-05 -5.36972465E-04 -3.52715526E-05  5.39165343E-06  2.49711728E-05
  1.34830357E-04  1.46856096E-03  1.60360616E-05 -3.37466339E-05 -3.43083425E-05
 -6.56203913E-04  9.98662759E-04  7.13323268E-04 -3.22995841E-04  9.29335414E-04
 -5.00095766E-04  1.03344997E-03  4.46536532E-04  1.02050523E-03 -3.62910741E-04
  8.19780517E-06 -1.27763995E-06  5.54252707E-06  3.20792954E-06 -4.75958235E-06
  6.57742234E-06  8.83571718E-06  7.15257188E-06  3.67840657E-06 -7.99198243E-07
 -1.29642964E-05  5.89566504E-05  1.02029909E-08  6.56809082E-06  6.73972775E-09
  3.01896055E-05 -2.31160569E-05 -5.05886284E-06 -4.33093327E-06  1.77961464E-06
  7.29785791E-05  6.63921728E-04 -8.91853125E-05 -7.45086000E-05 -2.95601090E-05
  1.72683754E-05 -2.55939265E-04  2.77582253E-05 -1.83148128E-05 -7.65959213E-06
  2.75866681E-05  4.00547223E-05  1.46317117E-06 -4.68903469E-06  1.59821498E-05
 -1.08900582E-04  7.56194807E-06 -3.27994664E-06 -9.38794829E-05 -1.22906497E-05
 -2.26661360E-06 -4.98922243E-06 -1.65586563E-05 -8.78659420E-06 -4.33815334E-05
  7.53332832E-05 -7.80114193E-05 -2.95540359E-05  2.52779335E-05  2.63964284E-06
  3.28010627E-04  2.38609276E-04 -1.30763530E-04 -2.78460626E-05  3.76175635E-06
 -3.20452326E-07 -4.36119413E-05  2.05723008E-05 -6.33476880E-05  2.24662393E-04
 -9.90790142E-05  1.10569094E-04  8.56959846E-05 -3.05681770E-04  5.04635269E-04
 -6.38451687E-04 -4.55950159E-04  3.65922904E-05  5.61496235E-05 -4.08951557E-05
  1.84054089E-05  3.55044592E-05 -1.01655730E-03 -5.91312992E-05 -4.73830479E-05
  3.49288961E-06 -5.49801231E-05 -1.00853458E-05  8.60871013E-05  2.42522629E-05
  1.41666684E-04  2.09914371E-05  5.36807770E-06  1.74448262E-05 -3.81949776E-05
 -7.75678338E-06  9.95721073E-01  2.24030679E-02  1.91988951E-03 -4.40630859E-04
 -3.94424254E-04 -7.34573347E-03 -1.11826253E-03  6.90235901E-04  4.21603865E-04
 -2.65675220E-04 -7.49371712E-06  1.48673841E-04 -9.33620666E-05  1.78535285E-04
  2.63249643E-05 -4.99155430E-05  2.24408964E-05  7.01907030E-06 -1.96677526E-05
  4.21527013E-05  5.76971048E-05 -2.31387153E-06 -4.00781280E-06 -1.14161244E-05
  8.54531373E-05 -1.64250707E-04 -3.53159007E-05 -3.03346069E-05  2.65141363E-05
 -1.27640223E-04 -1.29258789E-04 -5.05866852E-06  5.37094009E-05 -1.24500502E-05
 -9.29316094E-05 -2.21027891E-04  1.89227627E-05  1.23579529E-05  8.79927904E-05
 -9.53141260E-05 -2.33974974E-04 -7.09659927E-05  3.52967342E-05 -5.12976946E-05
 -1.29740669E-04  2.08993674E-04  1.93608681E-05  3.10297953E-05  4.24952895E-05
 -1.41418101E-04  9.45482246E-05 -2.71935542E-05  1.74849120E-05 -1.18258265E-05
 -4.79501318E-04  1.38169911E-03  9.37270682E-04  6.20874279E-04  5.05904770E-05
 -3.55917643E-04  2.59804315E-03  4.73104373E-04 -8.35093495E-04 -3.43229502E-04
  1.95301252E-04  3.31652354E-04 -9.69824928E-05 -3.22954501E-05 -1.85726281E-05
 -1.07989883E-03  8.40565478E-04  1.68792073E-04  5.47060611E-05  6.35684743E-05
  9.35744632E-05  2.62799554E-05 -9.04875165E-05  1.51908221E-05  1.75390008E-05
 -3.59984368E-05  9.90974371E-06  1.03952993E-05  1.80719065E-05  6.34881632E-05
 -6.90107663E-05 -4.52245670E-05 -1.04846578E-04  8.44764411E-06  3.86309992E-06
  6.14495747E-06 -1.91604367E-06  5.23583353E-06  1.00013735E-05 -4.80048827E-05
  1.17090245E-07 -4.38283543E-07 -1.67957503E-05  1.79181326E-04  1.65917005E-05
  3.94009181E-06  8.57121485E-05 -2.09265482E-05 -1.29281398E-06  1.84877840E-07
  3.79996643E-06 -2.66478305E-05  9.95706114E-01  2.22692787E-02  4.98256886E-06
 -2.54201329E-04  1.93337828E-03 -6.48132113E-03 -5.37582564E-04  3.12837530E-04
 -6.16979273E-04  8.29844590E-05 -2.25269246E-05  9.37011643E-05 -4.45249872E-04