Atom number=12                                                          
SP        RHF                                                         6-31G(d,p)          
Number of atoms                            I               12
Info1-9                                    I   N=           9
         107         106           0           0           0         111
           1           1           2
Full Title                                 C   N=           2
Atom number=12          
Route                                      C   N=           4
#p hf/6-31g** 5d 7f pop=npa charge nosymm       
Charge                                     I                0
Multiplicity                               I                1
Number of electrons                        I               40
Number of alpha electrons                  I               20
Number of beta electrons                   I               20
Number of basis functions                  I               96
Number of independent functions            I               96
Number of point charges in /Mol/           I                0
Number of translation vectors              I                0
Atomic numbers                             I   N=          12
           8           8           8           8           1           1
           1           1           1           1           1           1
Nuclear charges                            R   N=          12
  8.00000000E+00  8.00000000E+00  8.00000000E+00  8.00000000E+00  1.00000000E+00
  1.00000000E+00  1.00000000E+00  1.00000000E+00  1.00000000E+00  1.00000000E+00
  1.00000000E+00  1.00000000E+00
Current cartesian coordinates              R   N=          36
  1.58591958E+01 -2.23232232E+01 -2.11658453E+01  1.90577217E+01 -1.81470343E+01
 -2.58786843E+01  1.79028344E+01 -1.51124951E+01 -2.06321073E+01  1.61361371E+01
 -1.18317680E+01 -2.44688390E+01  1.54490326E+01 -2.36930366E+01 -2.00580047E+01
  1.74840371E+01 -2.17584956E+01 -2.06064713E+01  1.85910557E+01 -1.86665521E+01
 -2.75472898E+01  1.75122961E+01 -1.81949823E+01 -2.49399156E+01  1.88925747E+01
 -1.66213261E+01 -2.05065293E+01  1.81855715E+01 -1.42529872E+01 -1.90658267E+01
  1.67808285E+01 -1.29429912E+01 -2.31954641E+01  1.75304658E+01 -1.15707137E+01
 -2.55911701E+01
Number of symbols in /Mol/                 I                0
Force Field                                I                0
Atom Types                                 C   N=          12
                                                            
                                                            
                        
Int Atom Types                             I   N=          12
           0           0           0           0           0           0
           0           0           0           0           0           0
MM charges                                 R   N=          12
  0.00000000E+00  0.00000000E+00  0.00000000E+00  0.00000000E+00  0.00000000E+00
  0.00000000E+00  0.00000000E+00  0.00000000E+00  0.00000000E+00  0.00000000E+00
  0.00000000E+00  0.00000000E+00
Integer atomic weights                     I   N=          12
          16          16          16          16           1           1
           1           1           1           1           1           1
Real atomic weights                        R   N=          12
  1.59949146E+01  1.59949146E+01  1.59949146E+01  1.59949146E+01  1.00782504E+00
  1.00782504E+00  1.00782504E+00  1.00782504E+00  1.00782504E+00  1.00782504E+00
  1.00782504E+00  1.00782504E+00
Atom fragment info                         I   N=          12
           0           0           0           0           0           0
           0           0           0           0           0           0
Atom residue num                           I   N=          12
           0           0           0           0           0           0
           0           0           0           0           0           0
Nuclear spins                              I   N=          12
           0           0           0           0           1           1
           1           1           1           1           1           1
Nuclear ZEff                               R   N=          12
 -5.60000000E+00 -5.60000000E+00 -5.60000000E+00 -5.60000000E+00 -1.00000000E+00
 -1.00000000E+00 -1.00000000E+00 -1.00000000E+00 -1.00000000E+00 -1.00000000E+00
 -1.00000000E+00 -1.00000000E+00
Nuclear ZNuc                               R   N=          12
  8.00000000E+00  8.00000000E+00  8.00000000E+00  8.00000000E+00  1.00000000E+00
  1.00000000E+00  1.00000000E+00  1.00000000E+00  1.00000000E+00  1.00000000E+00
  1.00000000E+00  1.00000000E+00
Nuclear QMom                               R   N=          12
  0.00000000E+00  0.00000000E+00  0.00000000E+00  0.00000000E+00  0.00000000E+00
  0.00000000E+00  0.00000000E+00  0.00000000E+00  0.00000000E+00  0.00000000E+00
  0.00000000E+00  0.00000000E+00
Nuclear GFac                               R   N=          12
  0.00000000E+00  0.00000000E+00  0.00000000E+00  0.00000000E+00  2.79284600E+00
  2.79284600E+00  2.79284600E+00  2.79284600E+00  2.79284600E+00  2.79284600E+00
  2.79284600E+00  2.79284600E+00
MicOpt                                     I   N=          12
          -1          -1          -1          -1          -1          -1
          -1          -1          -1          -1          -1          -1
Number of residues                         I                0
Number of secondary structures             I                0
Number of contracted shells                I               40
Number of primitive shells                 I               84
Pure/Cartesian d shells                    I                0
Pure/Cartesian f shells                    I                0
Highest angular momentum                   I                2
Largest degree of contraction              I                6
Shell types                                I   N=          40
           0          -1          -1          -2           0          -1
          -1          -2           0          -1          -1          -2
           0          -1          -1          -2           0           0
           1           0           0           1           0           0
           1           0           0           1           0           0
           1           0           0           1           0           0
           1           0           0           1
Number of primitives per shell             I   N=          40
           6           3           1           1           6           3
           1           1           6           3           1           1
           6           3           1           1           3           1
           1           3           1           1           3           1
           1           3           1           1           3           1
           1           3           1           1           3           1
           1           3           1           1
Shell to atom map                          I   N=          40
           1           1           1           1           2           2
           2           2           3           3           3           3
           4           4           4           4           5           5
           5           6           6           6           7           7
           7           8           8           8           9           9
           9          10          10          10          11          11
          11          12          12          12
Primitive exponents                        R   N=          84
  5.48467166E+03  8.25234946E+02  1.88046958E+02  5.29645000E+01  1.68975704E+01
  5.79963534E+00  1.55396162E+01  3.59993359E+00  1.01376175E+00  2.70005823E-01
  8.00000000E-01  5.48467166E+03  8.25234946E+02  1.88046958E+02  5.29645000E+01
  1.68975704E+01  5.79963534E+00  1.55396162E+01  3.59993359E+00  1.01376175E+00
  2.70005823E-01  8.00000000E-01  5.48467166E+03  8.25234946E+02  1.88046958E+02
  5.29645000E+01  1.68975704E+01  5.79963534E+00  1.55396162E+01  3.59993359E+00
  1.01376175E+00  2.70005823E-01  8.00000000E-01  5.48467166E+03  8.25234946E+02
  1.88046958E+02  5.29645000E+01  1.68975704E+01  5.79963534E+00  1.55396162E+01
  3.59993359E+00  1.01376175E+00  2.70005823E-01  8.00000000E-01  1.87311370E+01
  2.82539436E+00  6.40121692E-01  1.61277759E-01  1.10000000E+00  1.87311370E+01
  2.82539436E+00  6.40121692E-01  1.61277759E-01  1.10000000E+00  1.87311370E+01
  2.82539436E+00  6.40121692E-01  1.61277759E-01  1.10000000E+00  1.87311370E+01
  2.82539436E+00  6.40121692E-01  1.61277759E-01  1.10000000E+00  1.87311370E+01
  2.82539436E+00  6.40121692E-01  1.61277759E-01  1.10000000E+00  1.87311370E+01
  2.82539436E+00  6.40121692E-01  1.61277759E-01  1.10000000E+00  1.87311370E+01
  2.82539436E+00  6.40121692E-01  1.61277759E-01  1.10000000E+00  1.87311370E+01
  2.82539436E+00  6.40121692E-01  1.61277759E-01  1.10000000E+00
Contraction coefficients                   R   N=          84
  1.83107443E-03  1.39501722E-02  6.84450781E-02  2.32714336E-01  4.70192898E-01
  3.58520853E-01 -1.10777550E-01 -1.48026263E-01  1.13076702E+00  1.00000000E+00
  1.00000000E+00  1.83107443E-03  1.39501722E-02  6.84450781E-02  2.32714336E-01
  4.70192898E-01  3.58520853E-01 -1.10777550E-01 -1.48026263E-01  1.13076702E+00
  1.00000000E+00  1.00000000E+00  1.83107443E-03  1.39501722E-02  6.84450781E-02
  2.32714336E-01  4.70192898E-01  3.58520853E-01 -1.10777550E-01 -1.48026263E-01
  1.13076702E+00  1.00000000E+00  1.00000000E+00  1.83107443E-03  1.39501722E-02
  6.84450781E-02  2.32714336E-01  4.70192898E-01  3.58520853E-01 -1.10777550E-01
 -1.48026263E-01  1.13076702E+00  1.00000000E+00  1.00000000E+00  3.34946043E-02
  2.34726953E-01  8.13757326E-01  1.00000000E+00  1.00000000E+00  3.34946043E-02
  2.34726953E-01  8.13757326E-01  1.00000000E+00  1.00000000E+00  3.34946043E-02
  2.34726953E-01  8.13757326E-01  1.00000000E+00  1.00000000E+00  3.34946043E-02
  2.34726953E-01  8.13757326E-01  1.00000000E+00  1.00000000E+00  3.34946043E-02
  2.34726953E-01  8.13757326E-01  1.00000000E+00  1.00000000E+00  3.34946043E-02
  2.34726953E-01  8.13757326E-01  1.00000000E+00  1.00000000E+00  3.34946043E-02
  2.34726953E-01  8.13757326E-01  1.00000000E+00  1.00000000E+00  3.34946043E-02
  2.34726953E-01  8.13757326E-01  1.00000000E+00  1.00000000E+00
P(S=P) Contraction coefficients            R   N=          84
  0.00000000E+00  0.00000000E+00  0.00000000E+00  0.00000000E+00  0.00000000E+00
  0.00000000E+00  7.08742682E-02  3.39752839E-01  7.27158577E-01  1.00000000E+00
  0.00000000E+00  0.00000000E+00  0.00000000E+00  0.00000000E+00  0.00000000E+00
  0.00000000E+00  0.00000000E+00  7.08742682E-02  3.39752839E-01  7.27158577E-01
  1.00000000E+00  0.00000000E+00  0.00000000E+00  0.00000000E+00  0.00000000E+00
  0.00000000E+00  0.00000000E+00  0.00000000E+00  7.08742682E-02  3.39752839E-01
  7.27158577E-01  1.00000000E+00  0.00000000E+00  0.00000000E+00  0.00000000E+00
  0.00000000E+00  0.00000000E+00  0.00000000E+00  0.00000000E+00  7.08742682E-02
  3.39752839E-01  7.27158577E-01  1.00000000E+00  0.00000000E+00  0.00000000E+00
  0.00000000E+00  0.00000000E+00  0.00000000E+00  0.00000000E+00  0.00000000E+00
  0.00000000E+00  0.00000000E+00  0.00000000E+00  0.00000000E+00  0.00000000E+00
  0.00000000E+00  0.00000000E+00  0.00000000E+00  0.00000000E+00  0.00000000E+00
  0.00000000E+00  0.00000000E+00  0.00000000E+00  0.00000000E+00  0.00000000E+00
  0.00000000E+00  0.00000000E+00  0.00000000E+00  0.00000000E+00  0.00000000E+00
  0.00000000E+00  0.00000000E+00  0.00000000E+00  0.00000000E+00  0.00000000E+00
  0.00000000E+00  0.00000000E+00  0.00000000E+00  0.00000000E+00  0.00000000E+00
  0.00000000E+00  0.00000000E+00  0.00000000E+00  0.00000000E+00
Coordinates of each shell                  R   N=         120
  1.58591958E+01 -2.23232232E+01 -2.11658453E+01  1.58591958E+01 -2.23232232E+01
 -2.11658453E+01  1.58591958E+01 -2.23232232E+01 -2.11658453E+01  1.58591958E+01
 -2.23232232E+01 -2.11658453E+01  1.90577217E+01 -1.81470343E+01 -2.58786843E+01
  1.90577217E+01 -1.81470343E+01 -2.58786843E+01  1.90577217E+01 -1.81470343E+01
 -2.58786843E+01  1.90577217E+01 -1.81470343E+01 -2.58786843E+01  1.79028344E+01
 -1.51124951E+01 -2.06321073E+01  1.79028344E+01 -1.51124951E+01 -2.06321073E+01
  1.79028344E+01 -1.51124951E+01 -2.06321073E+01  1.79028344E+01 -1.51124951E+01
 -2.06321073E+01  1.61361371E+01 -1.18317680E+01 -2.44688390E+01  1.61361371E+01
 -1.18317680E+01 -2.44688390E+01  1.61361371E+01 -1.18317680E+01 -2.44688390E+01
  1.61361371E+01 -1.18317680E+01 -2.44688390E+01  1.54490326E+01 -2.36930366E+01
 -2.00580047E+01  1.54490326E+01 -2.36930366E+01 -2.00580047E+01  1.54490326E+01
 -2.36930366E+01 -2.00580047E+01  1.74840371E+01 -2.17584956E+01 -2.06064713E+01
  1.74840371E+01 -2.17584956E+01 -2.06064713E+01  1.74840371E+01 -2.17584956E+01
 -2.06064713E+01  1.85910557E+01 -1.86665521E+01 -2.75472898E+01  1.85910557E+01
 -1.86665521E+01 -2.75472898E+01  1.85910557E+01 -1.86665521E+01 -2.75472898E+01
  1.75122961E+01 -1.81949823E+01 -2.49399156E+01  1.75122961E+01 -1.81949823E+01
 -2.49399156E+01  1.75122961E+01 -1.81949823E+01 -2.49399156E+01  1.88925747E+01
 -1.66213261E+01 -2.05065293E+01  1.88925747E+01 -1.66213261E+01 -2.05065293E+01
  1.88925747E+01 -1.66213261E+01 -2.05065293E+01  1.81855715E+01 -1.42529872E+01
 -1.90658267E+01  1.81855715E+01 -1.42529872E+01 -1.90658267E+01  1.81855715E+01
 -1.42529872E+01 -1.90658267E+01  1.67808285E+01 -1.29429912E+01 -2.31954641E+01
  1.67808285E+01 -1.29429912E+01 -2.31954641E+01  1.67808285E+01 -1.29429912E+01
 -2.31954641E+01  1.75304658E+01 -1.15707137E+01 -2.55911701E+01  1.75304658E+01
 -1.15707137E+01 -2.55911701E+01  1.75304658E+01 -1.15707137E+01 -2.55911701E+01
Num ILSW                                   I              100
ILSW                                       I   N=         100
           0           0           0           0           2           0
           0           0           0           0           0          -1
           5           0           0           0           0           0
           0           0           0           0           0           0
           1           1           0           0           0           0
           0           0      100000           0          -1           0
           0           0           0           0           0           0
           0           0           0           1           0           0
           0 -2000000000           1           0           0           0
           0           0           4          52           0           0
           0           1           0           0           0           0
           0           0           0          12           0           1
           0           0           0           0           0           0
           0           0           0           0           0           0
           0           0           0           0           0           0
           0           0           0           0           0           0
           0           0           0           0
Num RLSW                                   I               52
RLSW                                       R   N=          52
  1.00000000E+00  1.00000000E+00  1.00000000E+00  1.00000000E+00  1.00000000E+00
  0.00000000E+00  0.00000000E+00  1.00000000E+00  0.00000000E+00  0.00000000E+00
  0.00000000E+00  0.00000000E+00  1.00000000E+00  0.00000000E+00  0.00000000E+00
  0.00000000E+00  0.00000000E+00  1.00000000E+00  0.00000000E+00  0.00000000E+00
  0.00000000E+00  0.00000000E+00  1.00000000E+00  0.00000000E+00  0.00000000E+00
  0.00000000E+00  0.00000000E+00  1.00000000E+00  0.00000000E+00  0.00000000E+00
  0.00000000E+00  0.00000000E+00  1.00000000E+00  0.00000000E+00  0.00000000E+00
  0.00000000E+00  0.00000000E+00  0.00000000E+00  1.00000000E+00  1.00000000E+00
  0.00000000E+00  1.00000000E+00  0.00000000E+00  0.00000000E+00  0.00000000E+00
  0.00000000E+00  0.00000000E+00  0.00000000E+00  0.00000000E+00  0.00000000E+00
  0.00000000E+00  0.00000000E+00
MxBond                                     I                2
NBond                                      I   N=          12
           2           2           2           2           1           1
           1           1           1           1           1           1
IBond                                      I   N=          24
           5           6           7           8           9          10
          11          12           1           0           1           0
           2           0           2           0           3           0
           3           0           4           0           4           0
RBond                                      R   N=          24
  1.00000000E+00  1.00000000E+00  1.00000000E+00  1.00000000E+00  1.00000000E+00
  1.00000000E+00  1.00000000E+00  1.00000000E+00  1.00000000E+00  0.00000000E+00
  1.00000000E+00  0.00000000E+00  1.00000000E+00  0.00000000E+00  1.00000000E+00
  0.00000000E+00  1.00000000E+00  0.00000000E+00  1.00000000E+00  0.00000000E+00
  1.00000000E+00  0.00000000E+00  1.00000000E+00  0.00000000E+00
Virial Ratio                               R      2.046499207446378E+00
SCF Energy                                 R     -3.177196150779061E+02
Total Energy                               R     -3.177196150779061E+02
RMS Density                                R      5.506433109220183E-09
Job Status                                 I                1
Nuclear derivative order                   I                0
External E-field                           R   N=          35
  0.00000000E+00  0.00000000E+00  0.00000000E+00  0.00000000E+00  0.00000000E+00
  0.00000000E+00  0.00000000E+00  0.00000000E+00  0.00000000E+00  0.00000000E+00
  0.00000000E+00  0.00000000E+00  0.00000000E+00  0.00000000E+00  0.00000000E+00
  0.00000000E+00  0.00000000E+00  0.00000000E+00  0.00000000E+00  0.00000000E+00
  0.00000000E+00  0.00000000E+00  0.00000000E+00  0.00000000E+00  0.00000000E+00
  0.00000000E+00  0.00000000E+00  0.00000000E+00  0.00000000E+00  0.00000000E+00
  0.00000000E+00  0.00000000E+00  0.00000000E+00  0.00000000E+00  0.00000000E+00
IOpCl                                      I                0
IROHF                                      I                0
Alpha Orbital Energies                     R   N=          96
 -2.06141099E+01 -2.05447390E+01 -2.05209490E+01 -2.05046719E+01 -1.39760678E+00
 -1.32730253E+00 -1.30245504E+00 -1.29036601E+00 -7.57157017E-01 -6.86789453E-01
 -6.76822850E-01 -6.63865644E-01 -6.13365787E-01 -5.66587774E-01 -5.59576586E-01
 -5.43188873E-01 -5.15690368E-01 -4.90766928E-01 -4.64127999E-01 -4.47182323E-01
  1.64426829E-01  2.40022916E-01  2.79998438E-01  2.99813048E-01  3.09931516E-01
  3.85600067E-01  3.98359760E-01  4.56947441E-01  9.34056224E-01  1.01541130E+00
  1.04427667E+00  1.05537346E+00  1.08622157E+00  1.09924481E+00  1.10575610E+00
  1.12228476E+00  1.14833535E+00  1.16819738E+00  1.18188070E+00  1.21068965E+00
  1.22814105E+00  1.23165700E+00  1.25841367E+00  1.29809508E+00  1.30337672E+00
  1.35792081E+00  1.37944932E+00  1.39868373E+00  1.56441860E+00  1.63488762E+00
  1.67756042E+00  1.75065061E+00  1.75835468E+00  1.82044212E+00  1.82621066E+00
  1.83771972E+00  1.84990474E+00  1.85909787E+00  1.86120793E+00  1.86511405E+00
  1.93173904E+00  1.95734879E+00  1.97500397E+00  2.01670151E+00  2.52446139E+00
  2.54232478E+00  2.60891853E+00  2.61063819E+00  2.62993870E+00  2.63124413E+00
  2.63500367E+00  2.73455718E+00  2.76560880E+00  2.83675957E+00  2.87666954E+00
  2.90983827E+00  2.92667125E+00  2.96769359E+00  3.00040106E+00  3.01199511E+00
  3.02264507E+00  3.03014262E+00  3.03651100E+00  3.05477428E+00  3.34207035E+00
  3.40314594E+00  3.42255080E+00  3.43306252E+00  3.72437806E+00  3.78662323E+00
  3.80873838E+00  3.81924013E+00  3.90888973E+00  3.94947049E+00  3.99425774E+00
  4.02942595E+00
Alpha MO coefficients                      R   N=        9216
 -1.64789144E-05 -3.87202989E-05 -3.54368474E-06  5.27652049E-06  1.72686846E-06
  1.80609492E-04  1.00472964E-04  1.64690335E-05  3.03682208E-05 -6.86668414E-06
  1.11094535E-05 -1.74340955E-06  1.34284177E-05  1.23900172E-05  6.14014335E-06
  2.96883258E-05  5.31289299E-06  1.09784583E-05  1.12093298E-05 -5.58687234E-05
  1.95876280E-05 -4.08040019E-05 -8.74294441E-05  2.21249234E-06  1.76819396E-05
 -1.35230473E-06 -9.08405051E-06  2.98721298E-06  9.95705013E-01  2.21363963E-02
  1.08656963E-03 -5.08879566E-04  1.52047446E-03 -6.13340482E-03 -2.86591651E-04
 -1.03613737E-04 -2.81972115E-04  8.62321985E-06  8.63991423E-05  3.00297120E-04
 -2.06203356E-04 -2.72525534E-04  7.61293869E-05  3.26885363E-04  2.97903507E-06
 -4.14413283E-05  6.12815618E-05 -1.12311759E-03 -1.44870857E-04  4.35002084E-04
 -5.64175741E-04 -2.96428038E-05 -6.17260393E-05  9.49261334E-05  2.69726973E-05
  5.23454553E-05 -2.62618438E-05  4.50330840E-05 -4.57014218E-06 -1.38853474E-07
  7.87511117E-07  2.86534300E-06 -2.53609601E-04  4.10245402E-05  7.39062298E-06
  1.45690222E-05 -1.82872309E-05 -3.33510211E-05 -5.32210378E-06  5.92856585E-07
 -6.51208140E-06  2.91925903E-05  1.28624635E-05  1.88257378E-05 -2.98105529E-06
 -1.32037009E-05 -6.52346104E-04  1.16338204E-03  6.64345666E-04 -9.69148728E-04
  8.90510001E-05 -5.19202828E-04  1.07223790E-03  2.01737068E-04  5.83005918E-04
  1.02881752E-03  1.50527601E-04  1.56411000E-03 -1.49289966E-05  1.26545023E-05
 -4.95311320E-06  5.68679701E-05 -3.09233362E-04  2.94539704E-05 -9.34030613E-06
 -7.96218197E-07  9.95702300E-01  2.19934996E-02  1.08090783E-03 -6.96281274E-04
  1.48544644E-03 -5.98210649E-03 -5.44592369E-04  3.18443776E-04 -7.05305995E-04
 -1.26520281E-04  6.78700341E-05 -2.35472578E-04  5.47036780E-05  3.19657205E-04
  2.50741615E-05  2.71905476E-05 -3.17902396E-08 -6.22131516E-06  2.69679522E-06
 -1.02731619E-04  6.06316131E-05  1.76982269E-05 -4.74676043E-05  4.99132456E-06
  1.64298312E-05  4.05560892E-06 -1.33205107E-05 -2.08478915E-06  9.14785343E-06
 -3.94533646E-05 -7.70869185E-06 -1.25114359E-06 -5.44059039E-07  1.94141153E-04
  8.31253558E-05 -9.49962261E-05  1.43293444E-05 -1.07737968E-05  4.32768298E-06
 -5.32350505E-07 -9.28003716E-06 -2.23049177E-05  2.94490979E-06  4.18886574E-06
  2.30837423E-07 -1.48452565E-06  2.98291879E-07 -1.30239875E-05 -1.76978791E-06
  6.41099421E-06 -4.18082484E-06 -4.93000254E-07  2.53916190E-07  6.74270633E-07
  3.02360609E-07  2.09093345E-07 -5.03609947E-04  1.23550435E-03 -2.00247949E-04
 -8.53763692E-04  7.29054907E-04 -5.05589733E-04  1.32891247E-03  1.00972147E-03
  3.06311290E-04  3.93478238E-04  6.49576906E-06 -2.53519060E-05 -5.35150896E-06
 -4.16714865E-06 -4.14228989E-07  1.46205002E-05  1.17649989E-04  2.79056255E-05
  2.45552777E-06 -1.88513604E-05 -3.06074047E-06 -2.81167096E-04  3.24170535E-05
 -3.48456117E-05  2.75477293E-06 -2.30467053E-05  4.50366509E-05 -5.19533278E-06
  2.90589897E-06  1.89864225E-07  4.81980605E-06  1.89105681E-05 -4.47829256E-07
 -1.37661774E-06  2.79470706E-06  2.47450028E-06 -5.18285650E-06 -4.93325291E-08
 -3.69159288E-07 -2.55040437E-07 -2.47349399E-05  8.66693293E-06 -1.17238069E-06
  1.89000055E-05 -2.08795364E-05  5.48665803E-05 -3.51923444E-05 -1.23736251E-04
  1.05383263E-04  8.99821970E-06 -7.78642558E-06 -2.36407022E-05 -2.05537417E-05
 -4.95961418E-06  9.95702284E-01  2.20074739E-02 -1.76669759E-03 -5.50365066E-04
 -6.15953167E-04 -6.02682815E-03  8.88736905E-04  2.56448432E-04  2.74418578E-04
  2.76516748E-04 -1.51546067E-04  1.65999683E-04  2.12625191E-04  5.08557173E-05
 -3.54700187E-06  3.12238297E-05 -1.47462973E-05 -1.35503056E-05 -1.60450424E-05
 -5.88139720E-05  1.38995990E-05  1.13757428E-04  9.12408492E-05  1.28059105E-05
  4.61944177E-07  2.18175523E-07  1.05727124E-05  1.57006387E-05  2.96399259E-05
  2.11532016E-05 -1.36652269E-06 -7.42602967E-06 -3.39363245E-06 -5.63069411E-05
 -2.21400398E-05  2.07376497E-05  2.33466395E-05  1.41064614E-07  6.01538900E-06
  3.24944879E-06 -2.06711871E-07  3.03749531E-06 -7.45155754E-05 -6.43951562E-05
 -9.03191163E-06 -2.28043539E-05  1.70986215E-05  4.45834951E-05 -4.94344024E-05
 -5.18878981E-06  1.00045288E-05 -1.39742401E-05 -4.90482196E-04  1.23502814E-03
 -3.56307367E-04 -3.31390611E-04 -1.02495264E-03 -5.07788336E-04  1.37236352E-03
 -9.85237342E-04 -4.99165738E-05  5.25733625E-04  3.11235064E-05  4.15971391E-05
 -1.81894794E-05  1.82188103E-05 -9.94078006E-07 -3.54404676E-05 -5.27961904E-05
 -5.84538013E-07  1.56089562E-06  1.30543442E-05  1.81376384E-05 -2.55510752E-05
  1.56490672E-08  5.74079499E-07 -1.19168352E-06  8.81398032E-06  4.69665518E-05
 -9.36433721E-06 -6.15841577E-06  7.05927234E-06 -1.66116477E-06  8.42401790E-06
  8.05042895E-07 -3.18813165E-06  2.21981083E-06 -5.04123657E-05 -1.92009872E-05
  1.02015997E-05 -2.02569853E-05  4.37886578E-07 -1.62578093E-06  3.56973248E-06
 -5.17360526E-07 -2.47451650E-06 -2.93910280E-05  8.02065320E-06 -4.34153407E-06
  3.26739256E-05 -3.05067145E-06  4.80401792E-05 -8.48704987E-06 -9.19915817E-05
  9.53993287E-06  1.08834501E-05  6.22299878E-06 -1.81588333E-07  4.81878164E-06
  1.07660445E-05 -5.25665824E-05  2.82164311E-04 -6.41315932E-05  1.20292641E-04
 -1.47473912E-04 -4.38777353E-04  4.15582728E-04 -6.91545302E-04  7.43337360E-04
 -5.87280572E-05 -2.43867262E-05  9.03577361E-05  2.39708841E-05 -1.67420240E-05
  9.95726941E-01  2.23405970E-02  1.92839872E-03 -7.85732806E-04  1.68862458E-04
 -7.27753291E-03 -1.07013051E-03  9.01450402E-04 -7.62312407E-04  1.01775579E-04
 -2.51646998E-04 -2.18629873E-04  1.30429811E-04  2.29814417E-05  1.55781600E-05
 -2.75441048E-06  2.17581836E-06  3.10882000E-06 -2.27352038E-06 -6.04225563E-06
  6.55239426E-05 -9.16351226E-06 -3.07805691E-06 -1.60528531E-06 -1.09093617E-05
  3.92721902E-06 -6.55718309E-06  1.25071985E-05 -8.45681976E-06  4.16028468E-05
 -1.44154261E-04 -9.95556610E-06  1.91083310E-06  6.37840207E-06 -1.79620996E-04
 -2.73235356E-04  3.34707801E-05 -5.13989322E-05 -7.11381627E-05  1.97443756E-05
 -2.47795586E-04 -3.36893001E-05  1.06768675E-04 -1.75804936E-05 -3.36543322E-04
  3.12021412E-03  3.89977417E-04 -5.96345304E-04  6.65116582E-04 -4.63819979E-04
  8.86758262E-04  9.85731291E-04  1.16535827E-04 -6.93754925E-04 -5.26654443E-04
  1.48885948E-03  2.10377447E-04  1.91835387E-05  1.47070988E-04 -4.12959231E-04
 -8.04557712E-04  7.76204988E-05 -1.83272112E-04  3.88435386E-05 -5.16686113E-05
  2.82574046E-05 -6.97472251E-05 -6.35843455E-05 -2.47731855E-03  5.23960629E-03
 -9.90401105E-04 -1.55393690E-05  2.98598570E-04  4.82228269E-03 -8.83107608E-05
  7.63834912E-04  1.58487706E-03 -3.69642247E-05 -2.14048968E-04  5.33858475E-05
  8.61206992E-05 -3.25820620E-05 -2.12452292E-01  4.69656779E-01  4.42114093E-02
 -2.27325762E-02  6.31548052E-02  4.45956714E-01  1.24258592E-02 -7.83844189E-03
  2.50106017E-02  1.61132904E-03  2.62036173E-03 -1.09918898E-03 -5.65824132E-04
 -2.03323975E-03 -9.57757336E-03  1.96528503E-02  3.90958099E-03 -3.06024808E-03
  2.53940660E-03  2.20582361E-02  1.99492071E-03 -3.01894258E-03  3.57905729E-03
  1.32696189E-04  4.14288872E-04 -5.97905282E-04 -6.86730996E-05 -4.01086483E-04
  5.19195645E-04 -3.63279591E-04  5.81375001E-05  6.06910937E-05 -5.92970998E-05
  2.99677030E-04  2.60078631E-03 -3.17293151E-04 -1.09358197E-04 -1.07939965E-04
  1.69181878E-03  4.55396865E-04  9.68931330E-05  9.74670552E-05  3.59344598E-04
  1.86650240E-03  1.25571136E-03  2.11099970E-04  1.26516263E-04  3.68235615E-05
  1.40706400E-01  5.29595817E-03 -1.34809653E-02  2.26875822E-02  5.62426331E-04
  1.44604851E-01  1.13952273E-02 -2.55823665E-03 -1.46942488E-02 -2.17178814E-02
  1.23822622E-02 -3.82678236E-03 -1.46651729E-04  5.05710976E-04 -6.68514405E-04
  5.37097868E-03  2.15895562E-03 -8.87896144E-04 -2.13258485E-04  7.93361196E-04
 -2.13260157E-01  4.69388214E-01  4.40398209E-02 -2.80397523E-02  5.99586896E-02
  4.52957829E-01  1.69717355E-02 -7.00020483E-03  2.03099709E-02  2.75980568E-04
  2.32386790E-03 -2.43637472E-03  1.28137861E-04 -5.20189061E-05 -3.23935885E-03
  7.46606042E-03 -1.24200068E-03 -3.63702091E-04 -1.34148666E-04  5.16377759E-03
  3.80105752E-04 -6.78856191E-04 -4.69677186E-04  1.97586066E-06  8.78331547E-05
  1.84360013E-07 -4.61239474E-05  2.98916095E-05  7.79650365E-04 -1.33303612E-03
 -9.81527606E-05 -1.62231773E-04 -2.92789601E-04 -3.49992248E-03 -1.02881521E-03
  1.02949291E-03 -3.19465051E-05  9.42376384E-05 -3.19838401E-05 -1.83949063E-06
  5.61729902E-05  1.78401883E-04  4.91263354E-05 -2.17900945E-04 -2.39129003E-05
  1.03786666E-05 -2.91943086E-05  3.42132642E-04  5.27990857E-05 -1.43348863E-04
  2.34693304E-04  1.12681423E-05  2.03325726E-05 -3.08503045E-05 -9.96915511E-06
 -1.36482981E-05  1.40929249E-01  7.74314748E-03  7.47920705E-03  2.05450281E-02
 -1.50834657E-02  1.40103148E-01  4.46777449E-03 -2.41436730E-02 -9.98029448E-03
 -6.85055329E-03  2.11566927E-03 -3.35076374E-04  6.36719831E-05  1.51934973E-04
  3.58233014E-04  2.33886037E-03  3.18355431E-03  5.60863914E-04 -8.79246801E-05
 -2.84453938E-04 -3.69361897E-04  3.44657092E-03 -1.90002323E-04  2.18835265E-04
 -3.71680028E-05 -5.08460197E-04 -6.45456400E-04  6.24900681E-05  4.04389616E-05
  9.90195606E-05 -6.82871606E-05 -7.69274129E-04  2.82339649E-05 -3.97712808E-05
  3.48603799E-05 -4.59032620E-05  1.21579715E-04 -2.42127566E-06 -1.28415722E-08
 -7.42708168E-06  3.51533673E-03 -7.61378714E-03 -6.16183741E-04  6.18285266E-04
 -1.10578858E-03 -8.71204798E-03 -1.84058933E-04  1.16357337E-03 -1.74298032E-03
 -5.21079538E-05 -2.76935471E-05  2.18233619E-04  1.20681337E-04 -3.76407457E-06
 -2.13209369E-01  4.70388005E-01 -7.10950063E-02 -2.18769102E-02 -2.47294208E-02
  4.50526424E-01 -2.11631816E-02 -9.72613159E-03 -4.89785958E-03  6.46478502E-04
  5.73507107E-04  1.20868176E-03  3.07448646E-03  1.03980664E-03  3.26985339E-03
 -7.33218615E-03 -6.22753974E-04 -1.09234502E-04 -2.04371225E-03 -8.11584003E-03
 -3.33376609E-04 -1.20565916E-03 -3.02651977E-03 -1.74235472E-04 -1.97347565E-04