Atom number=12                                                          
SP        RHF                                                         6-31G(d,p)          
Number of atoms                            I               12
Info1-9                                    I   N=           9
         107         106           0           0           0         111
           1           1           2
Full Title                                 C   N=           2
Atom number=12          
Route                                      C   N=           4
#p hf/6-31g** 5d 7f pop=npa charge nosymm       
Charge                                     I                0
Multiplicity                               I                1
Number of electrons                        I               40
Number of alpha electrons                  I               20
Number of beta electrons                   I               20
Number of basis functions                  I               96
Number of independent functions            I               96
Number of point charges in /Mol/           I                0
Number of translation vectors              I                0
Atomic numbers                             I   N=          12
           8           8           8           8           1           1
           1           1           1           1           1           1
Nuclear charges                            R   N=          12
  8.00000000E+00  8.00000000E+00  8.00000000E+00  8.00000000E+00  1.00000000E+00
  1.00000000E+00  1.00000000E+00  1.00000000E+00  1.00000000E+00  1.00000000E+00
  1.00000000E+00  1.00000000E+00
Current cartesian coordinates              R   N=          36
  1.05265153E+01 -2.41129828E+01 -2.02839555E+01  1.31196920E+01 -2.23542903E+01
 -1.58189805E+01  5.58362480E+00 -2.40041441E+01 -1.86623796E+01  7.95719829E+00
 -2.51911925E+01 -1.42761212E+01  8.77344660E+00 -2.42410798E+01 -1.98570305E+01
  1.13076525E+01 -2.34423738E+01 -1.87966655E+01  1.41645820E+01 -2.28487768E+01
 -1.44277169E+01  1.38091000E+01 -2.07734569E+01 -1.63645142E+01  5.79022289E+00
 -2.55204508E+01 -1.76979825E+01  5.17491673E+00 -2.27388534E+01 -1.74360362E+01
  9.38018663E+00 -2.40850659E+01 -1.41227926E+01  8.66153702E+00 -2.67619008E+01
 -1.48317423E+01
Number of symbols in /Mol/                 I                0
Force Field                                I                0
Atom Types                                 C   N=          12
                                                            
                                                            
                        
Int Atom Types                             I   N=          12
           0           0           0           0           0           0
           0           0           0           0           0           0
MM charges                                 R   N=          12
  0.00000000E+00  0.00000000E+00  0.00000000E+00  0.00000000E+00  0.00000000E+00
  0.00000000E+00  0.00000000E+00  0.00000000E+00  0.00000000E+00  0.00000000E+00
  0.00000000E+00  0.00000000E+00
Integer atomic weights                     I   N=          12
          16          16          16          16           1           1
           1           1           1           1           1           1
Real atomic weights                        R   N=          12
  1.59949146E+01  1.59949146E+01  1.59949146E+01  1.59949146E+01  1.00782504E+00
  1.00782504E+00  1.00782504E+00  1.00782504E+00  1.00782504E+00  1.00782504E+00
  1.00782504E+00  1.00782504E+00
Atom fragment info                         I   N=          12
           0           0           0           0           0           0
           0           0           0           0           0           0
Atom residue num                           I   N=          12
           0           0           0           0           0           0
           0           0           0           0           0           0
Nuclear spins                              I   N=          12
           0           0           0           0           1           1
           1           1           1           1           1           1
Nuclear ZEff                               R   N=          12
 -5.60000000E+00 -5.60000000E+00 -5.60000000E+00 -5.60000000E+00 -1.00000000E+00
 -1.00000000E+00 -1.00000000E+00 -1.00000000E+00 -1.00000000E+00 -1.00000000E+00
 -1.00000000E+00 -1.00000000E+00
Nuclear ZNuc                               R   N=          12
  8.00000000E+00  8.00000000E+00  8.00000000E+00  8.00000000E+00  1.00000000E+00
  1.00000000E+00  1.00000000E+00  1.00000000E+00  1.00000000E+00  1.00000000E+00
  1.00000000E+00  1.00000000E+00
Nuclear QMom                               R   N=          12
  0.00000000E+00  0.00000000E+00  0.00000000E+00  0.00000000E+00  0.00000000E+00
  0.00000000E+00  0.00000000E+00  0.00000000E+00  0.00000000E+00  0.00000000E+00
  0.00000000E+00  0.00000000E+00
Nuclear GFac                               R   N=          12
  0.00000000E+00  0.00000000E+00  0.00000000E+00  0.00000000E+00  2.79284600E+00
  2.79284600E+00  2.79284600E+00  2.79284600E+00  2.79284600E+00  2.79284600E+00
  2.79284600E+00  2.79284600E+00
MicOpt                                     I   N=          12
          -1          -1          -1          -1          -1          -1
          -1          -1          -1          -1          -1          -1
Number of residues                         I                0
Number of secondary structures             I                0
Number of contracted shells                I               40
Number of primitive shells                 I               84
Pure/Cartesian d shells                    I                0
Pure/Cartesian f shells                    I                0
Highest angular momentum                   I                2
Largest degree of contraction              I                6
Shell types                                I   N=          40
           0          -1          -1          -2           0          -1
          -1          -2           0          -1          -1          -2
           0          -1          -1          -2           0           0
           1           0           0           1           0           0
           1           0           0           1           0           0
           1           0           0           1           0           0
           1           0           0           1
Number of primitives per shell             I   N=          40
           6           3           1           1           6           3
           1           1           6           3           1           1
           6           3           1           1           3           1
           1           3           1           1           3           1
           1           3           1           1           3           1
           1           3           1           1           3           1
           1           3           1           1
Shell to atom map                          I   N=          40
           1           1           1           1           2           2
           2           2           3           3           3           3
           4           4           4           4           5           5
           5           6           6           6           7           7
           7           8           8           8           9           9
           9          10          10          10          11          11
          11          12          12          12
Primitive exponents                        R   N=          84
  5.48467166E+03  8.25234946E+02  1.88046958E+02  5.29645000E+01  1.68975704E+01
  5.79963534E+00  1.55396162E+01  3.59993359E+00  1.01376175E+00  2.70005823E-01
  8.00000000E-01  5.48467166E+03  8.25234946E+02  1.88046958E+02  5.29645000E+01
  1.68975704E+01  5.79963534E+00  1.55396162E+01  3.59993359E+00  1.01376175E+00
  2.70005823E-01  8.00000000E-01  5.48467166E+03  8.25234946E+02  1.88046958E+02
  5.29645000E+01  1.68975704E+01  5.79963534E+00  1.55396162E+01  3.59993359E+00
  1.01376175E+00  2.70005823E-01  8.00000000E-01  5.48467166E+03  8.25234946E+02
  1.88046958E+02  5.29645000E+01  1.68975704E+01  5.79963534E+00  1.55396162E+01
  3.59993359E+00  1.01376175E+00  2.70005823E-01  8.00000000E-01  1.87311370E+01
  2.82539436E+00  6.40121692E-01  1.61277759E-01  1.10000000E+00  1.87311370E+01
  2.82539436E+00  6.40121692E-01  1.61277759E-01  1.10000000E+00  1.87311370E+01
  2.82539436E+00  6.40121692E-01  1.61277759E-01  1.10000000E+00  1.87311370E+01
  2.82539436E+00  6.40121692E-01  1.61277759E-01  1.10000000E+00  1.87311370E+01
  2.82539436E+00  6.40121692E-01  1.61277759E-01  1.10000000E+00  1.87311370E+01
  2.82539436E+00  6.40121692E-01  1.61277759E-01  1.10000000E+00  1.87311370E+01
  2.82539436E+00  6.40121692E-01  1.61277759E-01  1.10000000E+00  1.87311370E+01
  2.82539436E+00  6.40121692E-01  1.61277759E-01  1.10000000E+00
Contraction coefficients                   R   N=          84
  1.83107443E-03  1.39501722E-02  6.84450781E-02  2.32714336E-01  4.70192898E-01
  3.58520853E-01 -1.10777550E-01 -1.48026263E-01  1.13076702E+00  1.00000000E+00
  1.00000000E+00  1.83107443E-03  1.39501722E-02  6.84450781E-02  2.32714336E-01
  4.70192898E-01  3.58520853E-01 -1.10777550E-01 -1.48026263E-01  1.13076702E+00
  1.00000000E+00  1.00000000E+00  1.83107443E-03  1.39501722E-02  6.84450781E-02
  2.32714336E-01  4.70192898E-01  3.58520853E-01 -1.10777550E-01 -1.48026263E-01
  1.13076702E+00  1.00000000E+00  1.00000000E+00  1.83107443E-03  1.39501722E-02
  6.84450781E-02  2.32714336E-01  4.70192898E-01  3.58520853E-01 -1.10777550E-01
 -1.48026263E-01  1.13076702E+00  1.00000000E+00  1.00000000E+00  3.34946043E-02
  2.34726953E-01  8.13757326E-01  1.00000000E+00  1.00000000E+00  3.34946043E-02
  2.34726953E-01  8.13757326E-01  1.00000000E+00  1.00000000E+00  3.34946043E-02
  2.34726953E-01  8.13757326E-01  1.00000000E+00  1.00000000E+00  3.34946043E-02
  2.34726953E-01  8.13757326E-01  1.00000000E+00  1.00000000E+00  3.34946043E-02
  2.34726953E-01  8.13757326E-01  1.00000000E+00  1.00000000E+00  3.34946043E-02
  2.34726953E-01  8.13757326E-01  1.00000000E+00  1.00000000E+00  3.34946043E-02
  2.34726953E-01  8.13757326E-01  1.00000000E+00  1.00000000E+00  3.34946043E-02
  2.34726953E-01  8.13757326E-01  1.00000000E+00  1.00000000E+00
P(S=P) Contraction coefficients            R   N=          84
  0.00000000E+00  0.00000000E+00  0.00000000E+00  0.00000000E+00  0.00000000E+00
  0.00000000E+00  7.08742682E-02  3.39752839E-01  7.27158577E-01  1.00000000E+00
  0.00000000E+00  0.00000000E+00  0.00000000E+00  0.00000000E+00  0.00000000E+00
  0.00000000E+00  0.00000000E+00  7.08742682E-02  3.39752839E-01  7.27158577E-01
  1.00000000E+00  0.00000000E+00  0.00000000E+00  0.00000000E+00  0.00000000E+00
  0.00000000E+00  0.00000000E+00  0.00000000E+00  7.08742682E-02  3.39752839E-01
  7.27158577E-01  1.00000000E+00  0.00000000E+00  0.00000000E+00  0.00000000E+00
  0.00000000E+00  0.00000000E+00  0.00000000E+00  0.00000000E+00  7.08742682E-02
  3.39752839E-01  7.27158577E-01  1.00000000E+00  0.00000000E+00  0.00000000E+00
  0.00000000E+00  0.00000000E+00  0.00000000E+00  0.00000000E+00  0.00000000E+00
  0.00000000E+00  0.00000000E+00  0.00000000E+00  0.00000000E+00  0.00000000E+00
  0.00000000E+00  0.00000000E+00  0.00000000E+00  0.00000000E+00  0.00000000E+00
  0.00000000E+00  0.00000000E+00  0.00000000E+00  0.00000000E+00  0.00000000E+00
  0.00000000E+00  0.00000000E+00  0.00000000E+00  0.00000000E+00  0.00000000E+00
  0.00000000E+00  0.00000000E+00  0.00000000E+00  0.00000000E+00  0.00000000E+00
  0.00000000E+00  0.00000000E+00  0.00000000E+00  0.00000000E+00  0.00000000E+00
  0.00000000E+00  0.00000000E+00  0.00000000E+00  0.00000000E+00
Coordinates of each shell                  R   N=         120
  1.05265153E+01 -2.41129828E+01 -2.02839555E+01  1.05265153E+01 -2.41129828E+01
 -2.02839555E+01  1.05265153E+01 -2.41129828E+01 -2.02839555E+01  1.05265153E+01
 -2.41129828E+01 -2.02839555E+01  1.31196920E+01 -2.23542903E+01 -1.58189805E+01
  1.31196920E+01 -2.23542903E+01 -1.58189805E+01  1.31196920E+01 -2.23542903E+01
 -1.58189805E+01  1.31196920E+01 -2.23542903E+01 -1.58189805E+01  5.58362480E+00
 -2.40041441E+01 -1.86623796E+01  5.58362480E+00 -2.40041441E+01 -1.86623796E+01
  5.58362480E+00 -2.40041441E+01 -1.86623796E+01  5.58362480E+00 -2.40041441E+01
 -1.86623796E+01  7.95719829E+00 -2.51911925E+01 -1.42761212E+01  7.95719829E+00
 -2.51911925E+01 -1.42761212E+01  7.95719829E+00 -2.51911925E+01 -1.42761212E+01
  7.95719829E+00 -2.51911925E+01 -1.42761212E+01  8.77344660E+00 -2.42410798E+01
 -1.98570305E+01  8.77344660E+00 -2.42410798E+01 -1.98570305E+01  8.77344660E+00
 -2.42410798E+01 -1.98570305E+01  1.13076525E+01 -2.34423738E+01 -1.87966655E+01
  1.13076525E+01 -2.34423738E+01 -1.87966655E+01  1.13076525E+01 -2.34423738E+01
 -1.87966655E+01  1.41645820E+01 -2.28487768E+01 -1.44277169E+01  1.41645820E+01
 -2.28487768E+01 -1.44277169E+01  1.41645820E+01 -2.28487768E+01 -1.44277169E+01
  1.38091000E+01 -2.07734569E+01 -1.63645142E+01  1.38091000E+01 -2.07734569E+01
 -1.63645142E+01  1.38091000E+01 -2.07734569E+01 -1.63645142E+01  5.79022289E+00
 -2.55204508E+01 -1.76979825E+01  5.79022289E+00 -2.55204508E+01 -1.76979825E+01
  5.79022289E+00 -2.55204508E+01 -1.76979825E+01  5.17491673E+00 -2.27388534E+01
 -1.74360362E+01  5.17491673E+00 -2.27388534E+01 -1.74360362E+01  5.17491673E+00
 -2.27388534E+01 -1.74360362E+01  9.38018663E+00 -2.40850659E+01 -1.41227926E+01
  9.38018663E+00 -2.40850659E+01 -1.41227926E+01  9.38018663E+00 -2.40850659E+01
 -1.41227926E+01  8.66153702E+00 -2.67619008E+01 -1.48317423E+01  8.66153702E+00
 -2.67619008E+01 -1.48317423E+01  8.66153702E+00 -2.67619008E+01 -1.48317423E+01
Num ILSW                                   I              100
ILSW                                       I   N=         100
           0           0           0           0           2           0
           0           0           0           0           0          -1
           5           0           0           0           0           0
           0           0           0           0           0           0
           1           1           0           0           0           0
           0           0      100000           0          -1           0
           0           0           0           0           0           0
           0           0           0           1           0           0
           0 -2000000000           1           0           0           0
           0           0           4          52           0           0
           0           1           0           0           0           0
           0           0           0          12           0           1
           0           0           0           0           0           0
           0           0           0           0           0           0
           0           0           0           0           0           0
           0           0           0           0           0           0
           0           0           0           0
Num RLSW                                   I               52
RLSW                                       R   N=          52
  1.00000000E+00  1.00000000E+00  1.00000000E+00  1.00000000E+00  1.00000000E+00
  0.00000000E+00  0.00000000E+00  1.00000000E+00  0.00000000E+00  0.00000000E+00
  0.00000000E+00  0.00000000E+00  1.00000000E+00  0.00000000E+00  0.00000000E+00
  0.00000000E+00  0.00000000E+00  1.00000000E+00  0.00000000E+00  0.00000000E+00
  0.00000000E+00  0.00000000E+00  1.00000000E+00  0.00000000E+00  0.00000000E+00
  0.00000000E+00  0.00000000E+00  1.00000000E+00  0.00000000E+00  0.00000000E+00
  0.00000000E+00  0.00000000E+00  1.00000000E+00  0.00000000E+00  0.00000000E+00
  0.00000000E+00  0.00000000E+00  0.00000000E+00  1.00000000E+00  1.00000000E+00
  0.00000000E+00  1.00000000E+00  0.00000000E+00  0.00000000E+00  0.00000000E+00
  0.00000000E+00  0.00000000E+00  0.00000000E+00  0.00000000E+00  0.00000000E+00
  0.00000000E+00  0.00000000E+00
MxBond                                     I                2
NBond                                      I   N=          12
           2           2           2           2           1           1
           1           1           1           1           1           1
IBond                                      I   N=          24
           5           6           7           8           9          10
          11          12           1           0           1           0
           2           0           2           0           3           0
           3           0           4           0           4           0
RBond                                      R   N=          24
  1.00000000E+00  1.00000000E+00  1.00000000E+00  1.00000000E+00  1.00000000E+00
  1.00000000E+00  1.00000000E+00  1.00000000E+00  1.00000000E+00  0.00000000E+00
  1.00000000E+00  0.00000000E+00  1.00000000E+00  0.00000000E+00  1.00000000E+00
  0.00000000E+00  1.00000000E+00  0.00000000E+00  1.00000000E+00  0.00000000E+00
  1.00000000E+00  0.00000000E+00  1.00000000E+00  0.00000000E+00
Virial Ratio                               R      2.046140272245405E+00
SCF Energy                                 R     -3.176929727917602E+02
Total Energy                               R     -3.176929727917602E+02
RMS Density                                R      6.137609857324188E-09
Job Status                                 I                1
Nuclear derivative order                   I                0
External E-field                           R   N=          35
  0.00000000E+00  0.00000000E+00  0.00000000E+00  0.00000000E+00  0.00000000E+00
  0.00000000E+00  0.00000000E+00  0.00000000E+00  0.00000000E+00  0.00000000E+00
  0.00000000E+00  0.00000000E+00  0.00000000E+00  0.00000000E+00  0.00000000E+00
  0.00000000E+00  0.00000000E+00  0.00000000E+00  0.00000000E+00  0.00000000E+00
  0.00000000E+00  0.00000000E+00  0.00000000E+00  0.00000000E+00  0.00000000E+00
  0.00000000E+00  0.00000000E+00  0.00000000E+00  0.00000000E+00  0.00000000E+00
  0.00000000E+00  0.00000000E+00  0.00000000E+00  0.00000000E+00  0.00000000E+00
IOpCl                                      I                0
IROHF                                      I                0
Alpha Orbital Energies                     R   N=          96
 -2.05949950E+01 -2.05455216E+01 -2.05365396E+01 -2.05075929E+01 -1.37944357E+00
 -1.33533245E+00 -1.32081179E+00 -1.29544110E+00 -7.40346649E-01 -7.01143495E-01
 -6.84469727E-01 -6.72888306E-01 -6.12974141E-01 -5.72717471E-01 -5.51895743E-01
 -5.37658569E-01 -5.34438967E-01 -4.87258935E-01 -4.62251114E-01 -4.57881087E-01
  1.91248236E-01  2.44260796E-01  3.03100403E-01  3.18997136E-01  3.42763672E-01
  3.73391607E-01  3.88230325E-01  5.03294235E-01  9.90704697E-01  9.94574060E-01
  1.02910677E+00  1.05357273E+00  1.07777500E+00  1.07993776E+00  1.11462248E+00
  1.11722534E+00  1.14091849E+00  1.16782005E+00  1.18201529E+00  1.20994439E+00
  1.25878256E+00  1.28634712E+00  1.33616505E+00  1.34518603E+00  1.35497589E+00
  1.38580216E+00  1.43226613E+00  1.48414228E+00  1.62513047E+00  1.64348131E+00
  1.73260448E+00  1.76743885E+00  1.78977847E+00  1.81853754E+00  1.81960815E+00
  1.82331915E+00  1.85114000E+00  1.86908062E+00  1.90174957E+00  1.92669398E+00
  1.95548560E+00  1.98135355E+00  2.01822644E+00  2.05175778E+00  2.54532090E+00
  2.55931346E+00  2.57203214E+00  2.59495943E+00  2.62221180E+00  2.64460356E+00
  2.65017649E+00  2.78165398E+00  2.81138808E+00  2.83862893E+00  2.84383492E+00
  2.92418356E+00  2.95935003E+00  2.96945006E+00  2.99121812E+00  3.02764212E+00
  3.03185079E+00  3.03666367E+00  3.06231586E+00  3.09407016E+00  3.36991389E+00
  3.39438350E+00  3.43349959E+00  3.44892688E+00  3.74624456E+00  3.77732214E+00
  3.81089121E+00  3.86624209E+00  3.92615962E+00  3.98794564E+00  3.99905662E+00
  4.08309639E+00
Alpha MO coefficients                      R   N=        9216
  6.81203961E-05  2.53329082E-04  5.06629699E-05  3.40984940E-05  4.34209918E-05
 -8.54671937E-04 -4.95900653E-04 -2.74590432E-04 -4.88578899E-04 -7.79799984E-05
 -9.01746347E-05 -6.50942700E-05  1.04360359E-05 -3.15854603E-05  9.95696828E-01
  2.21464631E-02  1.48059908E-03  8.80711348E-04  6.81978070E-04 -6.01034585E-03
 -2.40665582E-04 -2.31855765E-04  8.83484701E-05  3.54949366E-06  2.42454126E-04
 -3.74189629E-04 -1.30596103E-04  7.16688112E-05 -2.04495813E-05 -4.03787631E-05
 -1.05030018E-05  2.55469656E-06  1.65649020E-05  1.01642813E-04  8.22417099E-05
 -1.18352351E-05 -7.83627643E-05 -8.74356319E-06 -1.24092714E-05 -6.62928661E-06
  1.24041604E-05 -2.44968108E-06  6.06902491E-05  1.39046505E-04  4.41079541E-06
  1.43706923E-05  3.22639370E-06 -5.06468012E-04 -2.58542996E-04 -2.76695595E-04
 -3.65429162E-05  4.55742781E-05 -6.00040272E-07  1.66740477E-06 -3.44445805E-05
 -8.46622779E-05  4.12002453E-05 -5.36713594E-04 -3.52177353E-05  5.19178868E-06
  2.50007585E-05  1.35579453E-04  1.46004877E-03  1.62922878E-05 -3.36068136E-05
 -3.34669318E-05 -6.55922344E-04  9.99667643E-04  7.13655615E-04 -3.22987660E-04
  9.29265439E-04 -5.00901250E-04  1.03474097E-03  4.47101953E-04  1.02080957E-03
 -3.62934114E-04 -1.31796637E-05  4.70837021E-05 -5.08153541E-07  5.80726593E-06
  6.04422482E-07  2.99007528E-05 -2.29367995E-05 -5.05596852E-06 -4.02635596E-06
  1.84771652E-06  7.55324426E-05  6.43133463E-04 -8.64239667E-05 -7.45346848E-05
 -2.94158833E-05  2.43949046E-05 -1.69177724E-04  2.44538664E-05 -1.01486757E-05
 -5.43496911E-06  1.77760667E-05  2.98639502E-05  3.90225056E-06 -4.96246157E-06
  1.29515438E-05 -7.14761373E-05 -1.66784860E-05 -1.97067400E-06 -7.69148626E-05
 -1.00725387E-05 -4.22305194E-06 -4.63088418E-06 -1.10583654E-05 -7.17033862E-06
 -5.16937638E-05  8.74489326E-05 -8.64353439E-05 -2.74450525E-05  2.97786451E-05
 -1.89569975E-05  3.62443491E-04  2.35376309E-04 -1.43420738E-04 -2.86947820E-05
  8.80210435E-06  1.19726521E-06 -4.74308906E-05  1.87226929E-05 -6.16372397E-04
 -2.12216713E-05 -5.70497331E-05 -1.83735952E-06 -5.67416274E-05 -1.56974030E-04
  1.10892013E-04  8.57510547E-05  1.08445596E-04  2.20071399E-05  7.37961864E-06
  2.37484548E-05 -2.65256062E-05 -5.87809035E-06  9.95706402E-01  2.21282689E-02
  1.93043771E-03 -3.98358743E-04 -4.06522601E-04 -6.30915797E-03 -9.45539720E-04
  3.58560833E-06  2.56703276E-04 -3.16212387E-04 -4.89078470E-05  2.16753128E-04
 -1.65849619E-04  6.90458642E-05  1.61724611E-05 -9.21990918E-05  1.74845936E-05
  3.68350689E-06 -1.83618480E-05  3.14281324E-05  7.23671840E-05  3.40799671E-07
 -5.22966997E-06 -9.40406084E-06  8.87277632E-05 -1.78610310E-04 -3.72907511E-05
 -2.96062388E-05  3.06752503E-05 -1.25715945E-04 -1.32887030E-04 -8.64689463E-06
  5.50404841E-05 -1.09687830E-05 -1.29301865E-04  4.27820752E-04  2.73335588E-05
  4.47084626E-05  3.26575650E-05 -1.37777542E-04  9.88194883E-05 -2.90574791E-05
  1.11219258E-05 -1.34435391E-05 -5.11595167E-04  1.69290052E-03  8.95130075E-04
  6.24685560E-04  4.68715791E-05 -4.76461096E-04  1.07366605E-03  5.11480847E-04
 -9.85552076E-04 -3.71786204E-04  1.88781921E-04  3.28067819E-04 -9.61056480E-05
 -3.54248416E-05 -1.71284246E-05 -1.05941290E-03  8.30676471E-04  1.76833651E-04
  5.36493202E-05  6.25341389E-05  9.29109140E-05  2.74146547E-05 -8.88886994E-05
  1.48404621E-05  1.78133454E-05 -3.74657678E-05  1.09148719E-05  1.03029618E-05
  1.80189382E-05  6.54590828E-05 -7.36192447E-05 -4.49349766E-05 -1.05988753E-04
  8.46457342E-06  3.20979744E-06  6.17395716E-06 -1.71120940E-06  5.59769661E-06
  9.95705693E-01  2.22585251E-02  2.37556098E-06 -2.50182346E-04  1.93451545E-03
 -6.44084365E-03 -5.29760965E-04  2.92345830E-04 -6.13048135E-04  8.18973981E-05
 -2.28286533E-05  8.99200372E-05 -4.47434745E-04 -1.68045553E-04  6.17832632E-04
 -1.70341517E-05 -2.33396567E-06 -1.84715651E-05  2.12416022E-05  1.42383189E-04
  1.63962456E-04  1.40792463E-05  1.50603172E-05 -1.52978807E-05 -1.14848910E-05
 -5.54049603E-06 -9.76779860E-07  1.93525888E-05  1.87334807E-04  1.80772296E-03
 -6.88411504E-05  5.53715049E-05  6.63424773E-05 -3.95925628E-06 -5.46071944E-04
  3.19128293E-06  1.77061880E-05  5.94017490E-05  1.57788046E-05  4.10018458E-05
 -2.05855997E-06  9.40655536E-06 -2.09031429E-06 -1.04818983E-05  4.11024650E-05
  2.85193192E-06 -1.96006458E-06  1.10629759E-05 -3.83556977E-04  1.23201772E-03
  1.73028322E-04 -9.29366822E-04  6.31849674E-04 -5.99282583E-04  1.07670871E-03
 -2.12592981E-04  8.17077181E-04  8.54316775E-04 -7.04202682E-05 -5.55727003E-05
  2.82272269E-05  1.32987895E-05  1.54912380E-05  4.56814509E-05 -2.92238384E-04
  1.67056959E-05 -4.65436830E-05  2.12428305E-05  9.95734255E-01  2.26462011E-02
 -8.16199870E-04  3.73526766E-04  1.71395447E-03 -8.32500190E-03  8.17854327E-04
 -3.42003316E-04 -1.38294789E-03  8.99592758E-06  1.02381648E-04  1.13431304E-04
  1.99011854E-04  1.12761139E-04 -5.11627706E-05  2.07307878E-04 -9.05591151E-05
 -5.34468598E-05 -1.34333168E-04 -2.67175748E-04  5.12030964E-04  1.50951839E-04
  7.69653046E-04 -2.40622454E-05  5.92337100E-06 -5.07196146E-05  3.07601548E-05
 -5.20917928E-05 -1.63438157E-04  2.92931380E-04  1.45312374E-04 -2.13075981E-06
 -8.24848377E-05 -5.49124018E-04 -7.75477383E-04  1.49573777E-04  4.41777505E-04
  8.03565929E-05  5.07387349E-05  5.46841036E-05 -1.09538362E-04  1.67473098E-05
 -1.42121782E-05  2.45653068E-05  2.64575638E-05  9.31429222E-06 -3.92098835E-05
 -3.46149419E-06 -1.27331305E-04 -3.05490228E-05  1.09135290E-04  2.40400015E-06
  3.94218663E-05 -2.17735862E-06 -6.16642391E-06 -1.81439438E-05 -2.83119548E-04
  2.76038130E-03 -9.42616416E-04 -1.60051043E-05  3.36567446E-04 -3.50831828E-04
  2.41833416E-03  3.65607659E-04  3.74352784E-04  8.75361556E-04 -2.31184399E-04
 -2.54703724E-04  3.24429332E-05 -5.95572568E-05  4.17705864E-05  1.05115464E-04
 -1.98525576E-04 -4.88969166E-05 -8.89423744E-07 -8.53514063E-05  1.52542139E-04
 -2.58821904E-04  5.35230338E-05 -1.99242612E-05 -2.90735556E-05 -7.28880129E-05
 -2.63087185E-04  4.21655886E-05  6.61667358E-05  3.44254394E-05  1.05525876E-04
 -1.12905504E-04  6.50201871E-06 -1.02022441E-05 -2.43818815E-06  6.72454039E-05
 -7.33275408E-05  1.40309813E-05  8.68738507E-06 -7.79283311E-06 -1.19718805E-02
  2.51347405E-02 -3.22095023E-04  1.82586653E-03  5.94057840E-03  2.60849843E-02
  1.87079106E-03  1.09612890E-03  3.99436199E-03  5.01026970E-04  3.93311290E-04
  3.96355102E-04  2.47909790E-05  1.61382444E-04 -2.12504999E-01  4.68484251E-01
  6.31573500E-02  3.68805706E-02  2.99518919E-02  4.49264568E-01  2.30966339E-02
  8.44499685E-03  1.01067391E-02 -1.54841113E-04  2.93824036E-03 -5.21245492E-04
  2.93279977E-04  2.35271465E-03 -2.44391816E-03  5.51298322E-03  4.31032611E-04
 -1.82201230E-04  8.49558705E-04  4.67297626E-03 -1.00020213E-05 -1.52170981E-04
  4.37593122E-04  2.10485386E-05  1.17011307E-05 -7.98673142E-06 -2.23628297E-06
 -1.31438529E-05 -8.51867906E-03  1.85064342E-02  3.95145223E-03  1.60245007E-04
 -7.22739582E-04  1.72065590E-02  2.08173250E-03  5.26895557E-04 -7.69105857E-04
 -2.70976639E-04 -6.14450941E-05  4.76042551E-05  2.52745833E-04  3.22586745E-04
  6.96530452E-03  2.11349860E-03  1.51566171E-03  1.00422814E-04 -2.64169218E-04
  1.35943259E-02 -1.67422378E-03 -6.88525650E-04 -4.56225606E-04 -9.12433530E-04
  1.40153757E-01  6.46053869E-03 -1.45194311E-02  8.85595757E-03 -2.07700764E-02
  1.40941318E-01  7.77368052E-03 -7.89097924E-03 -2.31576385E-02  1.02314316E-02
  1.85101396E-03 -1.27589434E-04 -4.16819245E-06  2.53800829E-04 -1.51468654E-04
  1.54417587E-03  2.74155785E-04  1.03779514E-04 -2.29260358E-04 -1.80382953E-04
  7.77101846E-03  1.93238806E-03 -1.74771438E-04 -3.94006507E-04 -2.83398365E-04
  5.18376674E-03  9.91113783E-04 -3.94659755E-04  1.00131764E-03  3.75135678E-04
 -2.57290549E-02  5.59432526E-02 -7.03262930E-03  1.58122852E-03  9.14986590E-03
  5.31814158E-02 -3.91453969E-03 -1.09376939E-03  3.60032915E-03  7.07498345E-05
 -4.89911973E-04  1.19599880E-04  5.02086504E-04  4.97703818E-05  1.09850425E-02
 -2.46982078E-02 -5.13051732E-03 -2.92319751E-03 -1.86382943E-03 -2.35322296E-02
 -4.30394730E-03 -2.35853240E-03  2.10695153E-04  4.00097128E-05 -3.23874645E-04
 -2.17233345E-05  2.37218584E-04 -2.34094049E-05 -1.09668929E-01  2.42459671E-01
  1.25858825E-03 -7.24022898E-03  4.36425032E-02  2.26824490E-01  4.17533827E-03
 -4.75993795E-03  1.50556687E-02  7.25901414E-04 -6.21802718E-04 -3.23460193E-04
 -1.21062632E-04 -8.37007512E-04 -1.78395114E-01  3.92968674E-01  6.31171897E-02
 -1.34059060E-02 -1.63508726E-02  3.76306552E-01  2.26034284E-02 -5.42611980E-03
 -8.30630777E-03 -1.91658543E-03  2.23480343E-04  1.30587460E-03  1.16449890E-03
 -9.97390290E-05  2.17692612E-02  1.10955390E-03  3.07058863E-03  9.06028653E-05
 -2.68794355E-04  1.63276466E-02  3.34021671E-03 -1.80712881E-03 -1.22941969E-03
 -2.56152174E-03 -8.15785145E-03  7.65553901E-04  8.77544583E-04 -3.82998285E-04
  1.00832344E-03 -7.62303584E-03  1.30679574E-04  4.13612779E-04  1.15888866E-03
 -5.52603806E-04  7.79279727E-02  6.29391361E-03 -1.67880085E-03  1.19080098E-02
 -6.37795391E-03  7.44664168E-02  5.42553573E-03  3.33803808E-03 -1.04553579E-02
 -8.10309765E-03  1.19707900E-01  6.76715022E-03 -1.60031767E-02 -1.47601297E-02
 -2.14336077E-03  1.17606465E-01  5.77737259E-03 -7.39620489E-03  2.02270383E-02
  6.91546973E-03 -5.26417798E-02  1.14436631E-01 -1.27937014E-02  3.55001941E-03
  1.78956715E-02  1.12501903E-01 -5.74993544E-03 -7.10787244E-04  6.55781779E-03
  1.12015934E-04 -5.68398916E-04  4.61717900E-04  7.59357518E-04  9.91942477E-05
  4.55722190E-04 -8.97864038E-04 -4.36300249E-05 -1.31154079E-04 -1.37586847E-03
 -6.63285615E-04  1.21216251E-03  7.59233924E-04 -1.86834721E-03  9.34195600E-05
  2.11424907E-04  1.24468894E-04 -1.73239574E-04 -3.43327099E-05 -1.71441160E-01
  3.78668645E-01 -1.32900493E-03 -8.22225881E-03  6.28039111E-02  3.62053211E-01
  4.92056676E-03 -7.72518602E-03  2.20237060E-02  6.02134221E-04 -1.72184915E-03