 Entering Gaussian System, Link 0=g16
 Input=w32_23.gjf
 Output=w32_23.log
 Initial command:
 /home/soft/g16/l1.exe "/tmp/liwei01/gaussian/wsr/Gau-6134.inp" -scrdir="/tmp/liwei01/gaussian/wsr/"
 Entering Link 1 = /home/soft/g16/l1.exe PID=      6135.
  
 Copyright (c) 1988,1990,1992,1993,1995,1998,2003,2009,2016,
            Gaussian, Inc.  All Rights Reserved.
  
 This is part of the Gaussian(R) 16 program.  It is based on
 the Gaussian(R) 09 system (copyright 2009, Gaussian, Inc.),
 the Gaussian(R) 03 system (copyright 2003, Gaussian, Inc.),
 the Gaussian(R) 98 system (copyright 1998, Gaussian, Inc.),
 the Gaussian(R) 94 system (copyright 1995, Gaussian, Inc.),
 the Gaussian 92(TM) system (copyright 1992, Gaussian, Inc.),
 the Gaussian 90(TM) system (copyright 1990, Gaussian, Inc.),
 the Gaussian 88(TM) system (copyright 1988, Gaussian, Inc.),
 the Gaussian 86(TM) system (copyright 1986, Carnegie Mellon
 University), and the Gaussian 82(TM) system (copyright 1983,
 Carnegie Mellon University). Gaussian is a federally registered
 trademark of Gaussian, Inc.
  
 This software contains proprietary and confidential information,
 including trade secrets, belonging to Gaussian, Inc.
  
 This software is provided under written license and may be
 used, copied, transmitted, or stored only in accord with that
 written license.
  
 The following legend is applicable only to US Government
 contracts under FAR:
  
                    RESTRICTED RIGHTS LEGEND
  
 Use, reproduction and disclosure by the US Government is
 subject to restrictions as set forth in subparagraphs (a)
 and (c) of the Commercial Computer Software - Restricted
 Rights clause in FAR 52.227-19.
  
 Gaussian, Inc.
 340 Quinnipiac St., Bldg. 40, Wallingford CT 06492
  
  
 ---------------------------------------------------------------
 Warning -- This program may not be used in any manner that
 competes with the business of Gaussian, Inc. or will provide
 assistance to any competitor of Gaussian, Inc.  The licensee
 of this program is prohibited from giving any competitor of
 Gaussian, Inc. access to this program.  By using this program,
 the user acknowledges that Gaussian, Inc. is engaged in the
 business of creating and licensing software in the field of
 computational chemistry and represents and warrants to the
 licensee that it is not a competitor of Gaussian, Inc. and that
 it will not use this program in any manner prohibited above.
 ---------------------------------------------------------------
  

 Cite this work as:
 Gaussian 16, Revision A.03,
 M. J. Frisch, G. W. Trucks, H. B. Schlegel, G. E. Scuseria, 
 M. A. Robb, J. R. Cheeseman, G. Scalmani, V. Barone, 
 G. A. Petersson, H. Nakatsuji, X. Li, M. Caricato, A. V. Marenich, 
 J. Bloino, B. G. Janesko, R. Gomperts, B. Mennucci, H. P. Hratchian, 
 J. V. Ortiz, A. F. Izmaylov, J. L. Sonnenberg, D. Williams-Young, 
 F. Ding, F. Lipparini, F. Egidi, J. Goings, B. Peng, A. Petrone, 
 T. Henderson, D. Ranasinghe, V. G. Zakrzewski, J. Gao, N. Rega, 
 G. Zheng, W. Liang, M. Hada, M. Ehara, K. Toyota, R. Fukuda, 
 J. Hasegawa, M. Ishida, T. Nakajima, Y. Honda, O. Kitao, H. Nakai, 
 T. Vreven, K. Throssell, J. A. Montgomery, Jr., J. E. Peralta, 
 F. Ogliaro, M. J. Bearpark, J. J. Heyd, E. N. Brothers, K. N. Kudin, 
 V. N. Staroverov, T. A. Keith, R. Kobayashi, J. Normand, 
 K. Raghavachari, A. P. Rendell, J. C. Burant, S. S. Iyengar, 
 J. Tomasi, M. Cossi, J. M. Millam, M. Klene, C. Adamo, R. Cammi, 
 J. W. Ochterski, R. L. Martin, K. Morokuma, O. Farkas, 
 J. B. Foresman, and D. J. Fox, Gaussian, Inc., Wallingford CT, 2016.
 
 ******************************************
 Gaussian 16:  ES64L-G16RevA.03 25-Dec-2016
                15-May-2020 
 ******************************************
 %chk=w32_23.chk
 %nproc=4
 Will use up to    4 processors via shared memory.
 %mem=1gb
 -----------------------------------------
 #p hf/6-31g** 5d 7f pop=npa charge nosymm
 -----------------------------------------
 1/18=10,28=-2,38=1,125=101,172=1/1;
 2/12=2,15=1,17=6,18=5,40=1/2;
 3/5=1,6=6,7=101,8=11,11=9,25=1,30=1/1,2,3;
 4//1;
 5/5=2,38=5/2;
 6/7=2,8=2,9=2,10=2,28=1,40=-1/1,7;
 99/5=1,9=1/99;
 Leave Link    1 at Fri May 15 22:35:22 2020, MaxMem=   134217728 cpu:               0.3 elap:               0.1
 (Enter /home/soft/g16/l101.exe)
 --------------
 Atom number=15
 --------------
 Symbolic Z-matrix:
 Charge =  0 Multiplicity = 1
 o                     5.57039  -12.76004  -10.73381 
 o                     6.94264  -11.82938  -8.37104 
 o                     5.59138  -15.53349  -8.70022 
 o                     2.95473  -12.70245  -9.87571 
 o                     4.21077  -13.33061  -7.5546 
 h                     4.64271  -12.82783  -10.50789 
 h                     5.98375  -12.40517  -9.94677 
 h                     7.49557  -12.09105  -7.63482 
 h                     7.30746  -10.99284  -8.65973 
 h                     6.30928  -16.07073  -8.36521 
 h                     5.47626  -15.82394  -9.60499 
 h                     3.06405  -13.50484  -9.36537 
 h                     2.73845  -12.03288  -9.22675 
 h                     4.96378  -12.74527  -7.47346 
 h                     4.58349  -14.16179  -7.84862 
 
 ITRead=  0  0  0  0  0  0  0  0  0  0  0  0  0  0  0
 MicOpt= -1 -1 -1 -1 -1 -1 -1 -1 -1 -1 -1 -1 -1 -1 -1
 NAtoms=     15 NQM=       15 NQMF=       0 NMMI=      0 NMMIF=      0
                NMic=       0 NMicF=      0.
                    Isotopes and Nuclear Properties:
 (Nuclear quadrupole moments (NQMom) in fm**2, nuclear magnetic moments (NMagM)
  in nuclear magnetons)

  Atom         1           2           3           4           5           6           7           8           9          10
 IAtWgt=          16          16          16          16          16           1           1           1           1           1
 AtmWgt=  15.9949146  15.9949146  15.9949146  15.9949146  15.9949146   1.0078250   1.0078250   1.0078250   1.0078250   1.0078250
 NucSpn=           0           0           0           0           0           1           1           1           1           1
 AtZEff=  -0.0000000  -0.0000000  -0.0000000  -0.0000000  -0.0000000  -0.0000000  -0.0000000  -0.0000000  -0.0000000  -0.0000000
 NQMom=    0.0000000   0.0000000   0.0000000   0.0000000   0.0000000   0.0000000   0.0000000   0.0000000   0.0000000   0.0000000
 NMagM=    0.0000000   0.0000000   0.0000000   0.0000000   0.0000000   2.7928460   2.7928460   2.7928460   2.7928460   2.7928460
 AtZNuc=   8.0000000   8.0000000   8.0000000   8.0000000   8.0000000   1.0000000   1.0000000   1.0000000   1.0000000   1.0000000

  Atom        11          12          13          14          15
 IAtWgt=           1           1           1           1           1
 AtmWgt=   1.0078250   1.0078250   1.0078250   1.0078250   1.0078250
 NucSpn=           1           1           1           1           1
 AtZEff=  -0.0000000  -0.0000000  -0.0000000  -0.0000000  -0.0000000
 NQMom=    0.0000000   0.0000000   0.0000000   0.0000000   0.0000000
 NMagM=    2.7928460   2.7928460   2.7928460   2.7928460   2.7928460
 AtZNuc=   1.0000000   1.0000000   1.0000000   1.0000000   1.0000000
 Background charge distribution read from input stream:
 Point Charges:
 XYZ=    8.3923  -11.8129  -11.2005 Q=   -1.0561 A=    0.0000 R=    0.0000 C=    0.0000
 XYZ=    8.1753  -12.5378  -10.6142 Q=    0.5233 A=    0.0000 R=    0.0000 C=    0.0000
 XYZ=    9.2522  -11.5141  -10.9045 Q=    0.5177 A=    0.0000 R=    0.0000 C=    0.0000
 XYZ=   10.7060  -10.8489  -10.0915 Q=   -1.0357 A=    0.0000 R=    0.0000 C=    0.0000
 XYZ=   11.5214  -11.3203   -9.9208 Q=    0.5206 A=    0.0000 R=    0.0000 C=    0.0000
 XYZ=   10.5678  -10.3169   -9.3078 Q=    0.5156 A=    0.0000 R=    0.0000 C=    0.0000
 XYZ=    8.6932  -14.0693   -9.5471 Q=   -1.0099 A=    0.0000 R=    0.0000 C=    0.0000
 XYZ=    8.2201  -13.7327   -8.7861 Q=    0.4999 A=    0.0000 R=    0.0000 C=    0.0000
 XYZ=    8.5528  -15.0157   -9.5178 Q=    0.5079 A=    0.0000 R=    0.0000 C=    0.0000
 XYZ=    7.2503   -9.8596  -13.1035 Q=   -1.0243 A=    0.0000 R=    0.0000 C=    0.0000
 XYZ=    7.1207  -10.2215  -13.9801 Q=    0.5152 A=    0.0000 R=    0.0000 C=    0.0000
 XYZ=    7.3415  -10.6267  -12.5383 Q=    0.5154 A=    0.0000 R=    0.0000 C=    0.0000
 XYZ=    6.9662   -9.2478  -10.2743 Q=   -1.0324 A=    0.0000 R=    0.0000 C=    0.0000
 XYZ=    6.9752   -9.8450  -11.0223 Q=    0.5142 A=    0.0000 R=    0.0000 C=    0.0000
 XYZ=    7.6844   -8.6385  -10.4451 Q=    0.5185 A=    0.0000 R=    0.0000 C=    0.0000
 XYZ=    9.7397  -14.5602  -13.0841 Q=   -1.0029 A=    0.0000 R=    0.0000 C=    0.0000
 XYZ=    9.4367  -13.9209  -12.4394 Q=    0.5215 A=    0.0000 R=    0.0000 C=    0.0000
 XYZ=   10.6527  -14.3230  -13.2466 Q=    0.4988 A=    0.0000 R=    0.0000 C=    0.0000
 XYZ=   10.0849   -9.6030  -13.6944 Q=   -1.0549 A=    0.0000 R=    0.0000 C=    0.0000
 XYZ=    9.8380   -9.8779  -14.5774 Q=    0.5180 A=    0.0000 R=    0.0000 C=    0.0000
 XYZ=    9.2671   -9.6284  -13.1976 Q=    0.5226 A=    0.0000 R=    0.0000 C=    0.0000
 XYZ=    9.4738   -7.9972  -10.9180 Q=   -0.9971 A=    0.0000 R=    0.0000 C=    0.0000
 XYZ=    9.9975   -8.7956  -10.8516 Q=    0.5301 A=    0.0000 R=    0.0000 C=    0.0000
 XYZ=    9.6234   -7.5424  -10.0892 Q=    0.4920 A=    0.0000 R=    0.0000 C=    0.0000
 XYZ=    8.4516  -10.6356  -15.6859 Q=   -1.0322 A=    0.0000 R=    0.0000 C=    0.0000
 XYZ=    8.1250  -10.4069  -16.5562 Q=    0.4798 A=    0.0000 R=    0.0000 C=    0.0000
 XYZ=    9.2622  -11.1166  -15.8526 Q=    0.5341 A=    0.0000 R=    0.0000 C=    0.0000
 XYZ=    4.0391  -11.2243  -12.8044 Q=   -0.9921 A=    0.0000 R=    0.0000 C=    0.0000
 XYZ=    4.5248  -12.0476  -12.7552 Q=    0.4802 A=    0.0000 R=    0.0000 C=    0.0000
 XYZ=    4.4321  -10.7575  -13.5420 Q=    0.5046 A=    0.0000 R=    0.0000 C=    0.0000
 XYZ=    5.5848  -15.5922  -11.4699 Q=   -1.0129 A=    0.0000 R=    0.0000 C=    0.0000
 XYZ=    4.6785  -15.3483  -11.6582 Q=    0.5050 A=    0.0000 R=    0.0000 C=    0.0000
 XYZ=    6.0031  -14.7735  -11.2032 Q=    0.5257 A=    0.0000 R=    0.0000 C=    0.0000
 XYZ=    8.8013  -12.4259   -6.4973 Q=   -0.9852 A=    0.0000 R=    0.0000 C=    0.0000
 XYZ=    9.0556  -11.7490   -5.8701 Q=    0.5006 A=    0.0000 R=    0.0000 C=    0.0000
 XYZ=    8.9395  -13.2499   -6.0303 Q=    0.5083 A=    0.0000 R=    0.0000 C=    0.0000
 XYZ=   10.5523   -9.0602   -7.7657 Q=   -0.9799 A=    0.0000 R=    0.0000 C=    0.0000
 XYZ=   10.0296   -9.4526   -7.0665 Q=    0.5003 A=    0.0000 R=    0.0000 C=    0.0000
 XYZ=   10.0576   -8.2839   -8.0284 Q=    0.4937 A=    0.0000 R=    0.0000 C=    0.0000
 XYZ=    8.4919  -14.1596  -15.7110 Q=   -0.9823 A=    0.0000 R=    0.0000 C=    0.0000
 XYZ=    8.8439  -15.0437  -15.8144 Q=    0.4799 A=    0.0000 R=    0.0000 C=    0.0000
 XYZ=    8.9183  -13.8221  -14.9233 Q=    0.4950 A=    0.0000 R=    0.0000 C=    0.0000
 XYZ=   10.6752  -11.9252  -15.8192 Q=   -0.9837 A=    0.0000 R=    0.0000 C=    0.0000
 XYZ=   11.1454  -12.2597  -15.0555 Q=    0.5055 A=    0.0000 R=    0.0000 C=    0.0000
 XYZ=   10.7694  -12.6123  -16.4789 Q=    0.5125 A=    0.0000 R=    0.0000 C=    0.0000
 XYZ=    7.7593  -16.5050  -13.2460 Q=   -1.0112 A=    0.0000 R=    0.0000 C=    0.0000
 XYZ=    7.3079  -16.2111  -12.4547 Q=    0.4926 A=    0.0000 R=    0.0000 C=    0.0000
 XYZ=    8.5373  -15.9498  -13.2987 Q=    0.4973 A=    0.0000 R=    0.0000 C=    0.0000
 XYZ=   13.4576  -11.7733   -9.7740 Q=   -0.9993 A=    0.0000 R=    0.0000 C=    0.0000
 XYZ=   13.9089  -10.9962  -10.1037 Q=    0.5128 A=    0.0000 R=    0.0000 C=    0.0000
 XYZ=   14.1508  -12.4236   -9.6612 Q=    0.5076 A=    0.0000 R=    0.0000 C=    0.0000
 XYZ=    5.3398  -11.2122  -15.4745 Q=   -0.9760 A=    0.0000 R=    0.0000 C=    0.0000
 XYZ=    5.8801  -10.4587  -15.7120 Q=    0.4863 A=    0.0000 R=    0.0000 C=    0.0000
 XYZ=    5.4896  -11.8457  -16.1763 Q=    0.4965 A=    0.0000 R=    0.0000 C=    0.0000
 XYZ=   12.9960  -14.7139  -11.2100 Q=   -0.9778 A=    0.0000 R=    0.0000 C=    0.0000
 XYZ=   12.2864  -15.1619  -10.7497 Q=    0.5059 A=    0.0000 R=    0.0000 C=    0.0000
 XYZ=   13.6357  -14.5124  -10.5270 Q=    0.4638 A=    0.0000 R=    0.0000 C=    0.0000
 XYZ=    4.6413   -8.1383  -12.6711 Q=   -0.9897 A=    0.0000 R=    0.0000 C=    0.0000
 XYZ=    4.5978   -7.2720  -12.2662 Q=    0.4876 A=    0.0000 R=    0.0000 C=    0.0000
 XYZ=    5.5765   -8.3384  -12.7100 Q=    0.4969 A=    0.0000 R=    0.0000 C=    0.0000
 XYZ=    8.9611  -17.0167   -9.2755 Q=   -0.9921 A=    0.0000 R=    0.0000 C=    0.0000
 XYZ=    8.6736  -17.2191   -8.3852 Q=    0.5092 A=    0.0000 R=    0.0000 C=    0.0000
 XYZ=    8.3026  -17.4234   -9.8386 Q=    0.5103 A=    0.0000 R=    0.0000 C=    0.0000
 XYZ=   12.8900   -9.6906  -13.7511 Q=   -0.9984 A=    0.0000 R=    0.0000 C=    0.0000
 XYZ=   13.4884   -9.8459  -13.0204 Q=    0.4670 A=    0.0000 R=    0.0000 C=    0.0000
 XYZ=   12.0171   -9.7427  -13.3618 Q=    0.5160 A=    0.0000 R=    0.0000 C=    0.0000
 XYZ=    4.9070   -7.9100   -9.1300 Q=   -1.0105 A=    0.0000 R=    0.0000 C=    0.0000
 XYZ=    4.0635   -8.0265   -9.5674 Q=    0.4764 A=    0.0000 R=    0.0000 C=    0.0000
 XYZ=    5.4227   -8.6710   -9.3968 Q=    0.5176 A=    0.0000 R=    0.0000 C=    0.0000
 XYZ=    8.5389   -6.2611  -12.9484 Q=   -1.0019 A=    0.0000 R=    0.0000 C=    0.0000
 XYZ=    8.8800   -6.8491  -12.2745 Q=    0.5098 A=    0.0000 R=    0.0000 C=    0.0000
 XYZ=    9.2767   -6.1230  -13.5423 Q=    0.4773 A=    0.0000 R=    0.0000 C=    0.0000
 XYZ=   11.4715  -15.3553   -7.5180 Q=   -1.0197 A=    0.0000 R=    0.0000 C=    0.0000
 XYZ=   10.8644  -15.3558   -8.2581 Q=    0.4753 A=    0.0000 R=    0.0000 C=    0.0000
 XYZ=   11.9075  -14.5045   -7.5658 Q=    0.5146 A=    0.0000 R=    0.0000 C=    0.0000
 XYZ=   12.8138  -13.0185   -7.3663 Q=   -0.9959 A=    0.0000 R=    0.0000 C=    0.0000
 XYZ=   12.4819  -12.4171   -6.6996 Q=    0.4994 A=    0.0000 R=    0.0000 C=    0.0000
 XYZ=   12.6552  -12.5682   -8.1960 Q=    0.5110 A=    0.0000 R=    0.0000 C=    0.0000
 XYZ=   11.3245  -17.0116  -10.7628 Q=   -1.0019 A=    0.0000 R=    0.0000 C=    0.0000
 XYZ=   11.7165  -17.8633  -10.5702 Q=    0.4876 A=    0.0000 R=    0.0000 C=    0.0000
 XYZ=   10.4428  -17.0644  -10.3939 Q=    0.5095 A=    0.0000 R=    0.0000 C=    0.0000
 Pt Chg Charge=              0.0286 electrons
 Pt Chg Dipole moment (Debye):
    X=             12.9201    Y=             -8.1885    Z=             10.5473  Tot=             18.5803
 Pt Chg Quadrupole moment (Debye-Ang):
   XX=            206.5114   YY=            158.0421   ZZ=           -182.2423
   XY=           -165.4157   XZ=            -37.0383   YZ=            -50.6949
 Pt Chg Traceless Quadrupole moment (Debye-Ang):
   XX=            145.7410   YY=             97.2717   ZZ=           -243.0127
   XY=           -165.4157   XZ=            -37.0383   YZ=            -50.6949
 Pt Chg Octapole moment (Debye-Ang**2):
  XXX=           2900.5745  YYY=          -2610.0474  ZZZ=           1940.2035  XYY=           2050.2993
  XXY=          -2237.1503  XXZ=          -1265.9363  XZZ=           -176.5104  YZZ=           1347.2638
  YYZ=             99.9416  XYZ=            768.0630
 Pt Chg Hexadecapole moment (Debye-Ang**3):
 XXXX=          41212.6031 YYYY=          43167.6218 ZZZZ=          -7570.6014 XXXY=         -29863.9366
 XXXZ=         -21553.7587 YYYX=         -26289.5201 YYYZ=           1941.4212 ZZZX=           1721.9181
 ZZZY=         -14342.9346 XXYY=          24101.2407 XXZZ=           7418.1484 YYZZ=         -12759.3345
 XXYZ=          16258.5696 YYXZ=         -10889.7199 ZZXY=          -3339.2780
 Leave Link  101 at Fri May 15 22:35:22 2020, MaxMem=   134217728 cpu:               0.6 elap:               0.2
 (Enter /home/soft/g16/l202.exe)
                          Input orientation:                          
 ---------------------------------------------------------------------
 Center     Atomic      Atomic             Coordinates (Angstroms)
 Number     Number       Type             X           Y           Z
 ---------------------------------------------------------------------
      1          8           0        5.570392  -12.760041  -10.733807
      2          8           0        6.942642  -11.829381   -8.371044
      3          8           0        5.591380  -15.533488   -8.700217
      4          8           0        2.954727  -12.702446   -9.875706
      5          8           0        4.210768  -13.330605   -7.554598
      6          1           0        4.642708  -12.827827  -10.507888
      7          1           0        5.983752  -12.405170   -9.946767
      8          1           0        7.495574  -12.091052   -7.634819
      9          1           0        7.307461  -10.992840   -8.659728
     10          1           0        6.309279  -16.070726   -8.365208
     11          1           0        5.476258  -15.823936   -9.604992
     12          1           0        3.064054  -13.504841   -9.365369
     13          1           0        2.738448  -12.032883   -9.226753
     14          1           0        4.963781  -12.745268   -7.473460
     15          1           0        4.583488  -14.161788   -7.848620
 ---------------------------------------------------------------------
                    Distance matrix (angstroms):
                    1          2          3          4          5
     1  O    0.000000
     2  O    2.886494   0.000000
     3  O    3.439177   3.956599   0.000000
     4  O    2.753427   4.350829   4.043329   0.000000
     5  O    3.504496   3.222327   2.840990   2.712889   0.000000
     6  H    0.957200   3.294343   3.389433   1.806835   3.026761
     7  H    0.957200   1.932332   3.390312   3.044407   3.118072
     8  H    3.709124   0.957200   4.075708   5.100458   3.511820
     9  H    3.231441   0.957200   4.854282   4.831940   4.034348
    10  H    4.137252   4.288378   0.957201   4.987979   3.545293
    11  H    3.266579   4.430506   0.957200   4.021828   3.467316
    12  H    2.951115   4.340425   3.308355   0.957201   2.150396
    13  H    3.289358   4.295218   4.546504   0.957200   2.578354
    14  H    3.316332   2.358049   3.110142   3.131919   0.957200
    15  H    3.356066   3.358371   1.903319   2.981882   0.957201
                    6          7          8          9         10
     6  H    0.000000
     7  H    1.513901   0.000000
     8  H    4.115362   2.780176   0.000000
     9  H    3.726095   2.324511   1.513900   0.000000
    10  H    4.229058   4.005446   4.216464   5.183439   0.000000
    11  H    3.238317   3.473085   4.679064   5.252268   1.513900
    12  H    2.062970   3.173631   4.963061   4.981424   4.256239
    13  H    2.428878   3.344999   5.016760   4.720073   5.458688
    14  H    3.052484   2.696897   2.619926   3.157700   3.696519
    15  H    2.975679   3.073868   3.579651   4.256778   2.624740
                   11         12         13         14         15
    11  H    0.000000
    12  H    3.354750   0.000000
    13  H    4.691562   1.513900   0.000000
    14  H    3.779452   2.786617   2.921239   0.000000
    15  H    2.577715   2.245170   3.136186   1.513901   0.000000
 Symmetry turned off by external request.
 Stoichiometry    H10O5
 Framework group  C1[X(H10O5)]
 Deg. of freedom    39
 Full point group                 C1      NOp   1
 Rotational constants (GHZ):           2.0058026           1.8406263           1.4997291
 Leave Link  202 at Fri May 15 22:35:22 2020, MaxMem=   134217728 cpu:               0.0 elap:               0.0
 (Enter /home/soft/g16/l301.exe)
 Standard basis: 6-31G(d,p) (5D, 7F)
 Ernie: Thresh=  0.10000D-02 Tol=  0.10000D-05 Strict=F.
   120 basis functions,   210 primitive gaussians,   125 cartesian basis functions
    25 alpha electrons       25 beta electrons
       nuclear repulsion energy       207.2252283510 Hartrees.
 IExCor=    0 DFT=F Ex=HF Corr=None ExCW=0 ScaHFX=  1.000000
 ScaDFX=  1.000000  1.000000  1.000000  1.000000 ScalE2=  1.000000  1.000000
 IRadAn=      5 IRanWt=     -1 IRanGd=            0 ICorTp=0 IEmpDi=  4
 NAtoms=   15 NActive=   15 NUniq=   15 SFac= 1.00D+00 NAtFMM=   60 NAOKFM=F Big=F
 Integral buffers will be    131072 words long.
 Raffenetti 1 integral format.
 Two-electron integral symmetry is turned off.
 Background charge distribution read from rwf.
 PtFMM for NChg=        96 BoxLen=    40.00 Levels= 1 LMax=20 SMax=    22.2 ICnFMM=     1:
 Self energy of the charges =       -13.0497459403 a.u.
 MM   energy of the charges =         0.0000000000 a.u.
 Nuclei-charges interaction =         0.9187518701 a.u.
 Nuclear repulsion after external point charges =      195.0942342808 Hartrees.
 Leave Link  301 at Fri May 15 22:35:22 2020, MaxMem=   134217728 cpu:               0.2 elap:               0.1
 (Enter /home/soft/g16/l302.exe)
 NPDir=0 NMtPBC=     1 NCelOv=     1 NCel=       1 NClECP=     1 NCelD=      1
         NCelK=      1 NCelE2=     1 NClLst=     1 CellRange=     0.0.
 One-electron integrals computed using PRISM.
 NBasis=   120 RedAO= T EigKep=  2.58D-02  NBF=   120
 NBsUse=   120 1.00D-06 EigRej= -1.00D+00 NBFU=   120
 Leave Link  302 at Fri May 15 22:35:23 2020, MaxMem=   134217728 cpu:               0.4 elap:               0.1
 (Enter /home/soft/g16/l303.exe)
 DipDrv:  MaxL=1.
 Leave Link  303 at Fri May 15 22:35:23 2020, MaxMem=   134217728 cpu:               0.1 elap:               0.0
 (Enter /home/soft/g16/l401.exe)
 ExpMin= 1.61D-01 ExpMax= 5.48D+03 ExpMxC= 8.25D+02 IAcc=3 IRadAn=         5 AccDes= 0.00D+00
 Harris functional with IExCor=  205 and IRadAn=       5 diagonalized for initial guess.
 HarFok:  IExCor=  205 AccDes= 0.00D+00 IRadAn=         5 IDoV= 1 UseB2=F ITyADJ=14
 ICtDFT=  3500011 ScaDFX=  1.000000  1.000000  1.000000  1.000000
 FoFCou: FMM=F IPFlag=           0 FMFlag=      100000 FMFlg1=           0
         NFxFlg=           0 DoJE=T BraDBF=F KetDBF=T FulRan=T
         wScrn=  0.000000 ICntrl=       500 IOpCl=  0 I1Cent=   200000004 NGrid=           0
         NMat0=    1 NMatS0=      1 NMatT0=    0 NMatD0=    1 NMtDS0=    0 NMtDT0=    0
 Symmetry not used in FoFCou.
 Harris En= -393.675645302584    
 JPrj=0 DoOrth=F DoCkMO=F.
 Leave Link  401 at Fri May 15 22:35:23 2020, MaxMem=   134217728 cpu:               2.6 elap:               0.7
 (Enter /home/soft/g16/l502.exe)
 Keep R1 ints in memory in canonical form, NReq=27358154.
 FoFCou: FMM=F IPFlag=           0 FMFlag=           0 FMFlg1=           0
         NFxFlg=           0 DoJE=F BraDBF=F KetDBF=F FulRan=T
         wScrn=  0.000000 ICntrl=       600 IOpCl=  0 I1Cent=           0 NGrid=           0
         NMat0=    1 NMatS0=   7260 NMatT0=    0 NMatD0=    1 NMtDS0=    0 NMtDT0=    0
 Symmetry not used in FoFCou.
 Two-electron integral symmetry not used.
 Closed shell SCF:
 Using DIIS extrapolation, IDIIS=  1040.
 NGot=   134217728 LenX=   107827096 LenY=   107811030
 Requested convergence on RMS density matrix=1.00D-08 within 128 cycles.
 Requested convergence on MAX density matrix=1.00D-06.
 Requested convergence on             energy=1.00D-06.
 No special actions if energy rises.

 Cycle   1  Pass 1  IDiag  1:
 E= -392.875524836835    
 DIIS: error= 5.13D-02 at cycle   1 NSaved=   1.
 NSaved= 1 IEnMin= 1 EnMin= -392.875524836835     IErMin= 1 ErrMin= 5.13D-02
 ErrMax= 5.13D-02  0.00D+00 EMaxC= 1.00D-01 BMatC= 5.42D-01 BMatP= 5.42D-01
 IDIUse=3 WtCom= 4.87D-01 WtEn= 5.13D-01
 Coeff-Com:  0.100D+01
 Coeff-En:   0.100D+01
 Coeff:      0.100D+01
 Gap=     0.535 Goal=   None    Shift=    0.000
 GapD=    0.535 DampG=2.000 DampE=0.500 DampFc=1.0000 IDamp=-1.
 RMSDP=4.94D-03 MaxDP=1.27D-01              OVMax= 1.11D-01

 Cycle   2  Pass 1  IDiag  1:
 E= -393.125597200935     Delta-E=       -0.250072364100 Rises=F Damp=F
 DIIS: error= 2.66D-02 at cycle   2 NSaved=   2.
 NSaved= 2 IEnMin= 2 EnMin= -393.125597200935     IErMin= 2 ErrMin= 2.66D-02
 ErrMax= 2.66D-02  0.00D+00 EMaxC= 1.00D-01 BMatC= 1.52D-01 BMatP= 5.42D-01
 IDIUse=3 WtCom= 7.34D-01 WtEn= 2.66D-01
 Coeff-Com:  0.332D+00 0.668D+00
 Coeff-En:   0.475D-01 0.952D+00
 Coeff:      0.257D+00 0.743D+00
 Gap=     0.620 Goal=   None    Shift=    0.000
 RMSDP=2.20D-03 MaxDP=5.04D-02 DE=-2.50D-01 OVMax= 4.44D-02

 Cycle   3  Pass 1  IDiag  1:
 E= -393.226683574155     Delta-E=       -0.101086373220 Rises=F Damp=F
 DIIS: error= 5.80D-03 at cycle   3 NSaved=   3.
 NSaved= 3 IEnMin= 3 EnMin= -393.226683574155     IErMin= 3 ErrMin= 5.80D-03
 ErrMax= 5.80D-03  0.00D+00 EMaxC= 1.00D-01 BMatC= 4.24D-03 BMatP= 1.52D-01
 IDIUse=3 WtCom= 9.42D-01 WtEn= 5.80D-02
 Coeff-Com: -0.323D-01 0.970D-01 0.935D+00
 Coeff-En:   0.000D+00 0.000D+00 0.100D+01
 Coeff:     -0.304D-01 0.913D-01 0.939D+00
 Gap=     0.609 Goal=   None    Shift=    0.000
 RMSDP=3.29D-04 MaxDP=7.65D-03 DE=-1.01D-01 OVMax= 9.00D-03

 Cycle   4  Pass 1  IDiag  1:
 E= -393.229951373293     Delta-E=       -0.003267799137 Rises=F Damp=F
 DIIS: error= 3.67D-04 at cycle   4 NSaved=   4.
 NSaved= 4 IEnMin= 4 EnMin= -393.229951373293     IErMin= 4 ErrMin= 3.67D-04
 ErrMax= 3.67D-04  0.00D+00 EMaxC= 1.00D-01 BMatC= 3.90D-05 BMatP= 4.24D-03
 IDIUse=3 WtCom= 9.96D-01 WtEn= 3.67D-03
 Coeff-Com:  0.463D-02-0.381D-01-0.233D+00 0.127D+01
 Coeff-En:   0.000D+00 0.000D+00 0.000D+00 0.100D+01
 Coeff:      0.461D-02-0.379D-01-0.232D+00 0.126D+01
 Gap=     0.611 Goal=   None    Shift=    0.000
 RMSDP=8.53D-05 MaxDP=1.58D-03 DE=-3.27D-03 OVMax= 2.44D-03

 Cycle   5  Pass 1  IDiag  1:
 E= -393.230023421018     Delta-E=       -0.000072047725 Rises=F Damp=F
 DIIS: error= 2.07D-04 at cycle   5 NSaved=   5.
 NSaved= 5 IEnMin= 5 EnMin= -393.230023421018     IErMin= 5 ErrMin= 2.07D-04
 ErrMax= 2.07D-04  0.00D+00 EMaxC= 1.00D-01 BMatC= 4.54D-06 BMatP= 3.90D-05
 IDIUse=3 WtCom= 9.98D-01 WtEn= 2.07D-03
 Coeff-Com:  0.331D-02-0.169D-01-0.122D+00 0.326D+00 0.810D+00
 Coeff-En:   0.000D+00 0.000D+00 0.000D+00 0.000D+00 0.100D+01
 Coeff:      0.330D-02-0.169D-01-0.122D+00 0.325D+00 0.810D+00
 Gap=     0.612 Goal=   None    Shift=    0.000
 RMSDP=1.97D-05 MaxDP=4.61D-04 DE=-7.20D-05 OVMax= 5.65D-04

 Cycle   6  Pass 1  IDiag  1:
 E= -393.230028916891     Delta-E=       -0.000005495873 Rises=F Damp=F
 DIIS: error= 3.45D-05 at cycle   6 NSaved=   6.
 NSaved= 6 IEnMin= 6 EnMin= -393.230028916891     IErMin= 6 ErrMin= 3.45D-05
 ErrMax= 3.45D-05  0.00D+00 EMaxC= 1.00D-01 BMatC= 2.58D-07 BMatP= 4.54D-06
 IDIUse=1 WtCom= 1.00D+00 WtEn= 0.00D+00
 Coeff-Com: -0.457D-03 0.374D-02 0.251D-01-0.135D+00-0.148D-01 0.112D+01
 Coeff:     -0.457D-03 0.374D-02 0.251D-01-0.135D+00-0.148D-01 0.112D+01
 Gap=     0.612 Goal=   None    Shift=    0.000
 RMSDP=8.00D-06 MaxDP=1.82D-04 DE=-5.50D-06 OVMax= 2.35D-04

 Cycle   7  Pass 1  IDiag  1:
 E= -393.230029404537     Delta-E=       -0.000000487647 Rises=F Damp=F
 DIIS: error= 4.54D-06 at cycle   7 NSaved=   7.
 NSaved= 7 IEnMin= 7 EnMin= -393.230029404537     IErMin= 7 ErrMin= 4.54D-06
 ErrMax= 4.54D-06  0.00D+00 EMaxC= 1.00D-01 BMatC= 6.99D-09 BMatP= 2.58D-07
 IDIUse=1 WtCom= 1.00D+00 WtEn= 0.00D+00
 Coeff-Com: -0.108D-03 0.475D-03 0.368D-02-0.592D-02-0.337D-01-0.651D-01
 Coeff-Com:  0.110D+01
 Coeff:     -0.108D-03 0.475D-03 0.368D-02-0.592D-02-0.337D-01-0.651D-01
 Coeff:      0.110D+01
 Gap=     0.612 Goal=   None    Shift=    0.000
 RMSDP=1.39D-06 MaxDP=2.79D-05 DE=-4.88D-07 OVMax= 4.46D-05

 Cycle   8  Pass 1  IDiag  1:
 E= -393.230029419904     Delta-E=       -0.000000015367 Rises=F Damp=F
 DIIS: error= 1.64D-06 at cycle   8 NSaved=   8.
 NSaved= 8 IEnMin= 8 EnMin= -393.230029419904     IErMin= 8 ErrMin= 1.64D-06
 ErrMax= 1.64D-06  0.00D+00 EMaxC= 1.00D-01 BMatC= 6.17D-10 BMatP= 6.99D-09
 IDIUse=1 WtCom= 1.00D+00 WtEn= 0.00D+00
 Coeff-Com:  0.282D-04-0.222D-03-0.153D-02 0.756D-02 0.248D-02-0.524D-01
 Coeff-Com: -0.556D-01 0.110D+01
 Coeff:      0.282D-04-0.222D-03-0.153D-02 0.756D-02 0.248D-02-0.524D-01
 Coeff:     -0.556D-01 0.110D+01
 Gap=     0.612 Goal=   None    Shift=    0.000
 RMSDP=3.16D-07 MaxDP=7.89D-06 DE=-1.54D-08 OVMax= 8.29D-06

 Cycle   9  Pass 1  IDiag  1:
 E= -393.230029421037     Delta-E=       -0.000000001133 Rises=F Damp=F
 DIIS: error= 8.44D-07 at cycle   9 NSaved=   9.
 NSaved= 9 IEnMin= 9 EnMin= -393.230029421037     IErMin= 9 ErrMin= 8.44D-07
 ErrMax= 8.44D-07  0.00D+00 EMaxC= 1.00D-01 BMatC= 1.01D-10 BMatP= 6.17D-10
 IDIUse=1 WtCom= 1.00D+00 WtEn= 0.00D+00
 Coeff-Com:  0.197D-04-0.112D-03-0.821D-03 0.252D-02 0.480D-02-0.348D-02
 Coeff-Com: -0.150D+00 0.262D+00 0.884D+00
 Coeff:      0.197D-04-0.112D-03-0.821D-03 0.252D-02 0.480D-02-0.348D-02
 Coeff:     -0.150D+00 0.262D+00 0.884D+00
 Gap=     0.612 Goal=   None    Shift=    0.000
 RMSDP=1.00D-07 MaxDP=3.30D-06 DE=-1.13D-09 OVMax= 3.31D-06

 Cycle  10  Pass 1  IDiag  1:
 E= -393.230029421175     Delta-E=       -0.000000000138 Rises=F Damp=F
 DIIS: error= 1.02D-07 at cycle  10 NSaved=  10.
 NSaved=10 IEnMin=10 EnMin= -393.230029421175     IErMin=10 ErrMin= 1.02D-07
 ErrMax= 1.02D-07  0.00D+00 EMaxC= 1.00D-01 BMatC= 2.85D-12 BMatP= 1.01D-10
 IDIUse=1 WtCom= 1.00D+00 WtEn= 0.00D+00
 Coeff-Com: -0.353D-05 0.240D-04 0.172D-03-0.727D-03-0.546D-03 0.380D-02
 Coeff-Com:  0.155D-01-0.900D-01-0.751D-01 0.115D+01
 Coeff:     -0.353D-05 0.240D-04 0.172D-03-0.727D-03-0.546D-03 0.380D-02
 Coeff:      0.155D-01-0.900D-01-0.751D-01 0.115D+01
 Gap=     0.612 Goal=   None    Shift=    0.000
 RMSDP=2.49D-08 MaxDP=4.49D-07 DE=-1.38D-10 OVMax= 6.92D-07

 Cycle  11  Pass 1  IDiag  1:
 E= -393.230029421180     Delta-E=       -0.000000000005 Rises=F Damp=F
 DIIS: error= 1.77D-08 at cycle  11 NSaved=  11.
 NSaved=11 IEnMin=11 EnMin= -393.230029421180     IErMin=11 ErrMin= 1.77D-08
 ErrMax= 1.77D-08  0.00D+00 EMaxC= 1.00D-01 BMatC= 1.28D-13 BMatP= 2.85D-12
 IDIUse=1 WtCom= 1.00D+00 WtEn= 0.00D+00
 Coeff-Com: -0.540D-06 0.276D-05 0.204D-04-0.431D-04-0.167D-03-0.274D-03
 Coeff-Com:  0.518D-02-0.137D-02-0.315D-01-0.142D+00 0.117D+01
 Coeff:     -0.540D-06 0.276D-05 0.204D-04-0.431D-04-0.167D-03-0.274D-03
 Coeff:      0.518D-02-0.137D-02-0.315D-01-0.142D+00 0.117D+01
 Gap=     0.612 Goal=   None    Shift=    0.000
 RMSDP=6.20D-09 MaxDP=1.09D-07 DE=-4.89D-12 OVMax= 1.68D-07

 SCF Done:  E(RHF) =  -393.230029421     A.U. after   11 cycles
            NFock= 11  Conv=0.62D-08     -V/T= 2.0359
 KE= 3.796091818218D+02 PE=-1.319099601214D+03 EE= 3.511661556904D+02
 Leave Link  502 at Fri May 15 22:35:24 2020, MaxMem=   134217728 cpu:               2.3 elap:               0.9
 (Enter /home/soft/g16/l601.exe)
 Copying SCF densities to generalized density rwf, IOpCl= 0 IROHF=0.

 **********************************************************************

            Population analysis using the SCF density.

 **********************************************************************

 Alpha  occ. eigenvalues --  -20.61937 -20.59694 -20.54614 -20.54005 -20.51189
 Alpha  occ. eigenvalues --   -1.40334  -1.38138  -1.33863  -1.32430  -1.29937
 Alpha  occ. eigenvalues --   -0.76415  -0.74235  -0.71350  -0.69216  -0.67645
 Alpha  occ. eigenvalues --   -0.63734  -0.61259  -0.57238  -0.56096  -0.55313
 Alpha  occ. eigenvalues --   -0.53977  -0.53634  -0.48995  -0.46535  -0.46120
 Alpha virt. eigenvalues --    0.15103   0.19678   0.24579   0.28359   0.30657
 Alpha virt. eigenvalues --    0.32440   0.34226   0.37328   0.42744   0.50053
 Alpha virt. eigenvalues --    0.93272   0.98066   0.99206   1.02217   1.03143
 Alpha virt. eigenvalues --    1.04513   1.07554   1.07591   1.09676   1.11140
 Alpha virt. eigenvalues --    1.13278   1.14217   1.15606   1.18624   1.21135
 Alpha virt. eigenvalues --    1.23647   1.25900   1.30360   1.30854   1.34400
 Alpha virt. eigenvalues --    1.34885   1.35797   1.41059   1.42985   1.48136
 Alpha virt. eigenvalues --    1.59499   1.62376   1.69360   1.73907   1.74720
 Alpha virt. eigenvalues --    1.76567   1.77884   1.79931   1.81640   1.81856
 Alpha virt. eigenvalues --    1.84321   1.85496   1.86867   1.89623   1.91246
 Alpha virt. eigenvalues --    1.94644   1.97168   1.99671   2.01743   2.05152
 Alpha virt. eigenvalues --    2.51877   2.53646   2.54440   2.55759   2.57095
 Alpha virt. eigenvalues --    2.62100   2.62645   2.64246   2.67629   2.75452
 Alpha virt. eigenvalues --    2.78383   2.81020   2.83861   2.87590   2.91560
 Alpha virt. eigenvalues --    2.92207   2.94148   2.95747   2.96730   2.99291
 Alpha virt. eigenvalues --    3.02615   3.03295   3.03411   3.06492   3.09189
 Alpha virt. eigenvalues --    3.32761   3.37015   3.39739   3.43499   3.44533
 Alpha virt. eigenvalues --    3.71339   3.74452   3.78167   3.82313   3.86343
 Alpha virt. eigenvalues --    3.87670   3.92523   3.99014   4.02900   4.08037
          Condensed to atoms (all electrons):
               1          2          3          4          5          6
     1  O    8.231883  -0.008772  -0.000283  -0.019344  -0.000539   0.306229
     2  O   -0.008772   8.109650  -0.000011  -0.000014  -0.002323   0.000359
     3  O   -0.000283  -0.000011   8.081320  -0.000047  -0.010235   0.000232
     4  O   -0.019344  -0.000014  -0.000047   8.055017  -0.014237   0.036873
     5  O   -0.000539  -0.002323  -0.010235  -0.014237   8.137855   0.001496
     6  H    0.306229   0.000359   0.000232   0.036873   0.001496   0.290223
     7  H    0.315981   0.015474   0.000548   0.001503   0.001303  -0.025582
     8  H    0.000263   0.310716   0.000025  -0.000000   0.000201  -0.000018
     9  H    0.000566   0.311450   0.000001  -0.000000   0.000076   0.000003
    10  H    0.000027   0.000009   0.305404   0.000001   0.000525  -0.000004
    11  H    0.001982   0.000004   0.313977   0.000014   0.000342   0.000077
    12  H    0.001693  -0.000003   0.000426   0.303988   0.012082  -0.004096
    13  H    0.000920   0.000004   0.000000   0.317190   0.003902  -0.002123
    14  H    0.000207   0.011540   0.000830   0.001081   0.312288   0.000110
    15  H    0.000453   0.000095   0.015132   0.001368   0.308075   0.000106
               7          8          9         10         11         12
     1  O    0.315981   0.000263   0.000566   0.000027   0.001982   0.001693
     2  O    0.015474   0.310716   0.311450   0.000009   0.000004  -0.000003
     3  O    0.000548   0.000025   0.000001   0.305404   0.313977   0.000426
     4  O    0.001503  -0.000000  -0.000000   0.000001   0.000014   0.303988
     5  O    0.001303   0.000201   0.000076   0.000525   0.000342   0.012082
     6  H   -0.025582  -0.000018   0.000003  -0.000004   0.000077  -0.004096
     7  H    0.315919  -0.000272  -0.001874   0.000001  -0.000070   0.000025
     8  H   -0.000272   0.313382  -0.017363   0.000002  -0.000001  -0.000000
     9  H   -0.001874  -0.017363   0.321321  -0.000000  -0.000000  -0.000000
    10  H    0.000001   0.000002  -0.000000   0.392783  -0.021808  -0.000012
    11  H   -0.000070  -0.000001  -0.000000  -0.021808   0.304010   0.000023
    12  H    0.000025  -0.000000  -0.000000  -0.000012   0.000023   0.364985
    13  H    0.000029  -0.000000  -0.000001  -0.000000  -0.000002  -0.025448
    14  H    0.000297  -0.000551  -0.000202  -0.000026  -0.000006  -0.000606
    15  H    0.000082   0.000032  -0.000004  -0.000941  -0.000536  -0.000510
              13         14         15
     1  O    0.000920   0.000207   0.000453
     2  O    0.000004   0.011540   0.000095
     3  O    0.000000   0.000830   0.015132
     4  O    0.317190   0.001081   0.001368
     5  O    0.003902   0.312288   0.308075
     6  H   -0.002123   0.000110   0.000106
     7  H    0.000029   0.000297   0.000082
     8  H   -0.000000  -0.000551   0.000032
     9  H   -0.000001  -0.000202  -0.000004
    10  H   -0.000000  -0.000026  -0.000941
    11  H   -0.000002  -0.000006  -0.000536
    12  H   -0.025448  -0.000606  -0.000510
    13  H    0.345116  -0.000091  -0.000089
    14  H   -0.000091   0.349870  -0.025385
    15  H   -0.000089  -0.025385   0.318251
 Mulliken charges:
               1
     1  O   -0.831266
     2  O   -0.748177
     3  O   -0.707319
     4  O   -0.683392
     5  O   -0.750810
     6  H    0.396115
     7  H    0.376635
     8  H    0.393586
     9  H    0.386029
    10  H    0.324039
    11  H    0.401996
    12  H    0.347453
    13  H    0.360594
    14  H    0.350643
    15  H    0.383872
 Sum of Mulliken charges =  -0.00000
 Mulliken charges with hydrogens summed into heavy atoms:
               1
     1  O   -0.058516
     2  O    0.031438
     3  O    0.018716
     4  O    0.024656
     5  O   -0.016294
 Electronic spatial extent (au):  <R**2>=          51368.9480
 Charge=             -0.0000 electrons
 Dipole moment (field-independent basis, Debye):
    X=              3.8120    Y=             -0.3435    Z=              3.9023  Tot=              5.4660
 Quadrupole moment (field-independent basis, Debye-Ang):
   XX=             15.3981   YY=             -5.0124   ZZ=           -110.8645
   XY=            -50.1774   XZ=             -7.4078   YZ=            -42.6269
 Traceless Quadrupole moment (field-independent basis, Debye-Ang):
   XX=             48.8911   YY=             28.4805   ZZ=            -77.3716
   XY=            -50.1774   XZ=             -7.4078   YZ=            -42.6269
 Octapole moment (field-independent basis, Debye-Ang**2):
  XXX=            -30.4140  YYY=            367.6398  ZZZ=           2065.7956  XYY=            612.9852
  XXY=           -176.7134  XXZ=             55.0163  XZZ=           -368.9232  YZZ=           1328.1133
  YYZ=            571.6659  XYZ=            126.6033
 Hexadecapole moment (field-independent basis, Debye-Ang**3):
 XXXX=          -1329.6239 YYYY=         -11211.5836 ZZZZ=         -32174.5970 XXXY=            769.0481
 XXXZ=           1645.5083 YYYX=          -6891.4733 YYYZ=          -9201.8754 ZZZX=           9094.7984
 ZZZY=         -25485.3781 XXYY=           1813.9409 XXZZ=          -3266.0872 YYZZ=         -16967.5859
 XXYZ=           -787.4320 YYXZ=          -1622.4000 ZZXY=           4323.0660
 N-N= 1.950942342808D+02 E-N=-1.319099600869D+03  KE= 3.796091818218D+02
 No NMR shielding tensors so no spin-rotation constants.
 Leave Link  601 at Fri May 15 22:35:24 2020, MaxMem=   134217728 cpu:               0.5 elap:               0.2
 (Enter /home/soft/g16/l607.exe)
 ******************************Gaussian NBO Version 3.1******************************
             N A T U R A L   A T O M I C   O R B I T A L   A N D
          N A T U R A L   B O N D   O R B I T A L   A N A L Y S I S
 ******************************Gaussian NBO Version 3.1******************************
       /RESON  / : Allow strongly delocalized NBO set

 Analyzing the SCF density

 Job title: Atom number=15                                                  

 Storage needed:     44010 in NPA ( 134216513 available)
 GSVD:  LWork=        6720 too small for GESVD, short by        8100 words or        8100 for optimal perf.


 NATURAL POPULATIONS:  Natural atomic orbital occupancies 
                                                          
   NAO  Atom  No  lang   Type(AO)    Occupancy      Energy
 ----------------------------------------------------------
     1    O    1  S      Cor( 1S)     1.99983     -20.32810
     2    O    1  S      Val( 2S)     1.73732      -1.12458
     3    O    1  S      Ryd( 3S)     0.00058       2.08553
     4    O    1  px     Val( 2p)     1.60891      -0.33482
     5    O    1  px     Ryd( 3p)     0.00180       1.42057
     6    O    1  py     Val( 2p)     1.94408      -0.44308
     7    O    1  py     Ryd( 3p)     0.00091       1.22808
     8    O    1  pz     Val( 2p)     1.76987      -0.39640
     9    O    1  pz     Ryd( 3p)     0.00041       1.26770
    10    O    1  dxy    Ryd( 3d)     0.00027       2.38556
    11    O    1  dxz    Ryd( 3d)     0.00136       2.78636
    12    O    1  dyz    Ryd( 3d)     0.00148       2.48079
    13    O    1  dx2y2  Ryd( 3d)     0.00068       2.77263
    14    O    1  dz2    Ryd( 3d)     0.00169       2.66385

    15    O    2  S      Cor( 1S)     1.99986     -20.43505
    16    O    2  S      Val( 2S)     1.75691      -1.20216
    17    O    2  S      Ryd( 3S)     0.00095       1.68270
    18    O    2  px     Val( 2p)     1.84175      -0.49016
    19    O    2  px     Ryd( 3p)     0.00039       1.28722
    20    O    2  py     Val( 2p)     1.68518      -0.43722
    21    O    2  py     Ryd( 3p)     0.00150       1.23731
    22    O    2  pz     Val( 2p)     1.74367      -0.45300
    23    O    2  pz     Ryd( 3p)     0.00116       1.36415
    24    O    2  dxy    Ryd( 3d)     0.00147       2.55012
    25    O    2  dxz    Ryd( 3d)     0.00156       2.65296
    26    O    2  dyz    Ryd( 3d)     0.00045       2.50967
    27    O    2  dx2y2  Ryd( 3d)     0.00123       2.48677
    28    O    2  dz2    Ryd( 3d)     0.00080       2.43592

    29    O    3  S      Cor( 1S)     1.99986     -20.45824
    30    O    3  S      Val( 2S)     1.75396      -1.21764
    31    O    3  S      Ryd( 3S)     0.00117       1.64902
    32    O    3  px     Val( 2p)     1.76170      -0.48051
    33    O    3  px     Ryd( 3p)     0.00100       1.22529
    34    O    3  py     Val( 2p)     1.85017      -0.51235
    35    O    3  py     Ryd( 3p)     0.00065       1.24003
    36    O    3  pz     Val( 2p)     1.62568      -0.43641
    37    O    3  pz     Ryd( 3p)     0.00188       1.26013
    38    O    3  dxy    Ryd( 3d)     0.00157       2.56527
    39    O    3  dxz    Ryd( 3d)     0.00062       2.44506
    40    O    3  dyz    Ryd( 3d)     0.00111       2.49771
    41    O    3  dx2y2  Ryd( 3d)     0.00134       2.22508
    42    O    3  dz2    Ryd( 3d)     0.00101       2.78187

    43    O    4  S      Cor( 1S)     1.99986     -20.37203
    44    O    4  S      Val( 2S)     1.74875      -1.14207
    45    O    4  S      Ryd( 3S)     0.00102       1.77106
    46    O    4  px     Val( 2p)     1.95542      -0.46539
    47    O    4  px     Ryd( 3p)     0.00126       1.34095
    48    O    4  py     Val( 2p)     1.51839      -0.32048
    49    O    4  py     Ryd( 3p)     0.00201       1.33645
    50    O    4  pz     Val( 2p)     1.75652      -0.40959
    51    O    4  pz     Ryd( 3p)     0.00015       1.29994
    52    O    4  dxy    Ryd( 3d)     0.00012       2.36912
    53    O    4  dxz    Ryd( 3d)     0.00164       2.31270
    54    O    4  dyz    Ryd( 3d)     0.00186       3.19493
    55    O    4  dx2y2  Ryd( 3d)     0.00039       2.65510
    56    O    4  dz2    Ryd( 3d)     0.00185       2.43504

    57    O    5  S      Cor( 1S)     1.99984     -20.37149
    58    O    5  S      Val( 2S)     1.74493      -1.15219
    59    O    5  S      Ryd( 3S)     0.00069       1.92880
    60    O    5  px     Val( 2p)     1.74380      -0.41748
    61    O    5  px     Ryd( 3p)     0.00035       1.26505
    62    O    5  py     Val( 2p)     1.56661      -0.34611
    63    O    5  py     Ryd( 3p)     0.00200       1.37985
    64    O    5  pz     Val( 2p)     1.95721      -0.47571
    65    O    5  pz     Ryd( 3p)     0.00086       1.24542
    66    O    5  dxy    Ryd( 3d)     0.00167       3.05939
    67    O    5  dxz    Ryd( 3d)     0.00169       2.30248
    68    O    5  dyz    Ryd( 3d)     0.00032       2.45319
    69    O    5  dx2y2  Ryd( 3d)     0.00120       2.61180
    70    O    5  dz2    Ryd( 3d)     0.00117       2.51379

    71    H    6  S      Val( 1S)     0.47144       0.41981
    72    H    6  S      Ryd( 2S)     0.00233       0.91040
    73    H    6  px     Ryd( 2p)     0.00165       3.46347
    74    H    6  py     Ryd( 2p)     0.00069       2.67185
    75    H    6  pz     Ryd( 2p)     0.00063       2.75687

    76    H    7  S      Val( 1S)     0.48846       0.39816
    77    H    7  S      Ryd( 2S)     0.00108       0.89232
    78    H    7  px     Ryd( 2p)     0.00068       2.85596
    79    H    7  py     Ryd( 2p)     0.00095       2.75562
    80    H    7  pz     Ryd( 2p)     0.00137       3.21655

    81    H    8  S      Val( 1S)     0.46774       0.35511
    82    H    8  S      Ryd( 2S)     0.00063       0.71382
    83    H    8  px     Ryd( 2p)     0.00115       2.86590
    84    H    8  py     Ryd( 2p)     0.00063       2.70146
    85    H    8  pz     Ryd( 2p)     0.00140       3.06340

    86    H    9  S      Val( 1S)     0.47091       0.34570
    87    H    9  S      Ryd( 2S)     0.00066       0.71784
    88    H    9  px     Ryd( 2p)     0.00076       2.72372
    89    H    9  py     Ryd( 2p)     0.00146       3.19747
    90    H    9  pz     Ryd( 2p)     0.00074       2.72653

    91    H   10  S      Val( 1S)     0.51846       0.24930
    92    H   10  S      Ryd( 2S)     0.00121       0.65313
    93    H   10  px     Ryd( 2p)     0.00128       2.97461
    94    H   10  py     Ryd( 2p)     0.00116       2.78557
    95    H   10  pz     Ryd( 2p)     0.00072       2.72318

    96    H   11  S      Val( 1S)     0.45794       0.34843
    97    H   11  S      Ryd( 2S)     0.00122       0.70180
    98    H   11  px     Ryd( 2p)     0.00063       2.63115
    99    H   11  py     Ryd( 2p)     0.00078       2.66533
   100    H   11  pz     Ryd( 2p)     0.00169       3.29934

   101    H   12  S      Val( 1S)     0.49744       0.35209
   102    H   12  S      Ryd( 2S)     0.00124       0.87927
   103    H   12  px     Ryd( 2p)     0.00091       2.64966
   104    H   12  py     Ryd( 2p)     0.00114       3.24339
   105    H   12  pz     Ryd( 2p)     0.00106       2.89384

   106    H   13  S      Val( 1S)     0.48529       0.37325
   107    H   13  S      Ryd( 2S)     0.00085       0.77159
   108    H   13  px     Ryd( 2p)     0.00086       2.68126
   109    H   13  py     Ryd( 2p)     0.00104       3.06256
   110    H   13  pz     Ryd( 2p)     0.00115       3.01327

   111    H   14  S      Val( 1S)     0.49700       0.35220
   112    H   14  S      Ryd( 2S)     0.00108       0.83733
   113    H   14  px     Ryd( 2p)     0.00130       3.13716
   114    H   14  py     Ryd( 2p)     0.00096       2.97275
   115    H   14  pz     Ryd( 2p)     0.00087       2.63215

   116    H   15  S      Val( 1S)     0.48424       0.37008
   117    H   15  S      Ryd( 2S)     0.00060       0.88530
   118    H   15  px     Ryd( 2p)     0.00080       2.78824
   119    H   15  py     Ryd( 2p)     0.00135       3.26312
   120    H   15  pz     Ryd( 2p)     0.00100       2.70678


 Summary of Natural Population Analysis:                  
                                                          
                                       Natural Population 
                Natural  -----------------------------------------------
    Atom  No    Charge         Core      Valence    Rydberg      Total
 -----------------------------------------------------------------------
      O    1   -1.06918      1.99983     7.06019    0.00917     9.06918
      O    2   -1.03685      1.99986     7.02750    0.00949     9.03685
      O    3   -1.00171      1.99986     6.99151    0.01034     9.00171
      O    4   -0.98925      1.99986     6.97909    0.01031     8.98925
      O    5   -1.02235      1.99984     7.01255    0.00996     9.02235
      H    6    0.52325      0.00000     0.47144    0.00531     0.47675
      H    7    0.50747      0.00000     0.48846    0.00407     0.49253
      H    8    0.52845      0.00000     0.46774    0.00381     0.47155
      H    9    0.52547      0.00000     0.47091    0.00362     0.47453
      H   10    0.47717      0.00000     0.51846    0.00437     0.52283
      H   11    0.53774      0.00000     0.45794    0.00432     0.46226
      H   12    0.49821      0.00000     0.49744    0.00435     0.50179
      H   13    0.51079      0.00000     0.48529    0.00391     0.48921
      H   14    0.49879      0.00000     0.49700    0.00421     0.50121
      H   15    0.51200      0.00000     0.48424    0.00375     0.48800
 =======================================================================
   * Total *   -0.00000      9.99925    39.90976    0.09099    50.00000

                                 Natural Population      
 --------------------------------------------------------
   Core                       9.99925 ( 99.9925% of  10)
   Valence                   39.90976 ( 99.7744% of  40)
   Natural Minimal Basis     49.90901 ( 99.8180% of  50)
   Natural Rydberg Basis      0.09099 (  0.1820% of  50)
 --------------------------------------------------------

    Atom  No          Natural Electron Configuration
 ----------------------------------------------------------------------------
      O    1      [core]2S( 1.74)2p( 5.32)3d( 0.01)
      O    2      [core]2S( 1.76)2p( 5.27)3d( 0.01)
      O    3      [core]2S( 1.75)2p( 5.24)3d( 0.01)
      O    4      [core]2S( 1.75)2p( 5.23)3d( 0.01)
      O    5      [core]2S( 1.74)2p( 5.27)3d( 0.01)
      H    6            1S( 0.47)
      H    7            1S( 0.49)
      H    8            1S( 0.47)
      H    9            1S( 0.47)
      H   10            1S( 0.52)
      H   11            1S( 0.46)
      H   12            1S( 0.50)
      H   13            1S( 0.49)
      H   14            1S( 0.50)
      H   15            1S( 0.48)


 NBO analysis skipped by request.
 Leave Link  607 at Fri May 15 22:35:24 2020, MaxMem=   134217728 cpu:               0.6 elap:               0.2
 (Enter /home/soft/g16/l9999.exe)

 Test job not archived.
 1\1\GINC-MASTER\SP\RHF\6-31G(d,p)\H10O5\LIWEI01\15-May-2020\0\\#p hf/6
 -31g** 5d 7f pop=npa charge nosymm\\Atom number=15\\0,1\O,0,5.570392,-
 12.760041,-10.733807\O,0,6.942642,-11.829381,-8.371044\O,0,5.59138,-15
 .533488,-8.700217\O,0,2.954727,-12.702446,-9.875706\O,0,4.210768,-13.3
 30605,-7.554598\H,0,4.642708,-12.827827,-10.507888\H,0,5.983752,-12.40
 517,-9.946767\H,0,7.495574,-12.091052,-7.634819\H,0,7.307461,-10.99284
 ,-8.659728\H,0,6.309279,-16.070726,-8.365208\H,0,5.476258,-15.823936,-
 9.604992\H,0,3.064054,-13.504841,-9.365369\H,0,2.738448,-12.032883,-9.
 226753\H,0,4.963781,-12.745268,-7.47346\H,0,4.583488,-14.161788,-7.848
 62\\Version=ES64L-G16RevA.03\HF=-393.2300294\RMSD=6.200e-09\Dipole=1.4
 997689,-0.1351337,1.5352673\Quadrupole=36.3493,21.174556,-57.523856,-3
 7.3056913,-5.507487,-31.6920709\PG=C01 [X(H10O5)]\\@


 ONLY A FOOL KNOWS EVERYTHING.

               -- THE CHEMIST ANALYST, SEPTEMBER 1946
 Job cpu time:       0 days  0 hours  0 minutes  7.8 seconds.
 Elapsed time:       0 days  0 hours  0 minutes  2.4 seconds.
 File lengths (MBytes):  RWF=     72 Int=      0 D2E=      0 Chk=      8 Scr=      8
 Normal termination of Gaussian 16 at Fri May 15 22:35:25 2020.
