#INFO: **** input file is /home/liwei01/wsr/dftpart/test_2body/w32/gfea_c8.py ****
from dftpart import gfea3
from pyscf import lib

par = 8
with lib.with_omp_threads(par):
    fr0 = gfea3.GFEA()
    fr0.inputstyle = 'frg'
    fr0.method = ['hf', '6-31gss','charge']
    fr0.gjfname = 'w32'
    fr0.output = 'w32'
    fr0.verbose = 9
    fr0.showinter = True
    #fr0.do_deriv = True
    fr0.kernel()

#INFO: ******************** input file end ********************


System: uname_result(system='Linux', node='master', release='3.10.0-693.el7.x86_64', version='#1 SMP Tue Aug 22 21:09:27 UTC 2017', machine='x86_64', processor='x86_64')  Threads 8
Python 3.7.6 (default, Jan  8 2020, 19:59:22) 
[GCC 7.3.0]
numpy 1.18.1  scipy 1.4.1
Date: Tue Jun 16 20:57:38 2020
PySCF version 1.6.1
PySCF path  /home/liwei01/zcheng/pyscf/pyscf
GIT HEAD      ref: refs/heads/master
GIT master branch  3adc7fd25839fe674469a52b764c3661e32d7318

[CONFIG] DEBUG = False
[CONFIG] MAX_MEMORY = 4000
[CONFIG] TMPDIR = .
[CONFIG] UNIT = angstrom
[CONFIG] VERBOSE = 3
[CONFIG] conf_file = None
[INPUT] verbose = 9
[INPUT] max_memory = 4000 
[INPUT] num. atoms = 15
[INPUT] num. electrons = 50
[INPUT] charge = 0
[INPUT] spin (= nelec alpha-beta = 2S) = 0
[INPUT] symmetry False subgroup None
[INPUT] Mole.unit = angstrom
[INPUT]  1 O      7.250284000000  -9.859627000000 -13.103456000000 AA   13.701051085316 -18.631994720367 -24.761943125289 Bohr
[INPUT]  2 O      5.570392000000 -12.760041000000 -10.733807000000 AA   10.526515286468 -24.112982828221 -20.283955503939 Bohr
[INPUT]  3 O      4.039142000000 -11.224262000000 -12.804410000000 AA    7.632872158228 -21.210781130363 -24.196828086642 Bohr
[INPUT]  4 O      5.339755000000 -11.212242000000 -15.474518000000 AA   10.090674522277 -21.188066622346 -29.242600929652 Bohr
[INPUT]  5 O      4.641258000000  -8.138278000000 -12.671145000000 AA    8.770706493447 -15.379116545573 -23.944993734652 Bohr
[INPUT]  6 H      7.120660000000 -10.221473000000 -13.980096000000 AA   13.456097226145 -19.315784559636 -26.418552635128 Bohr
[INPUT]  7 H      7.341484000000 -10.626744000000 -12.538261000000 AA   13.873394107876 -20.081635755865 -23.693879368315 Bohr
[INPUT]  8 H      4.642708000000 -12.827827000000 -10.507888000000 AA    8.773446596327 -24.241079803301 -19.857030467604 Bohr
[INPUT]  9 H      5.983752000000 -12.405170000000  -9.946767000000 AA   11.307652477318 -23.442373828671 -18.796665454862 Bohr
[INPUT] 10 H      4.524844000000 -12.047609000000 -12.755179000000 AA    8.550715916381 -22.766681465845 -24.103794979804 Bohr
[INPUT] 11 H      4.432119000000 -10.757539000000 -13.541956000000 AA    8.375491061481 -20.328802484328 -25.590588030911 Bohr
[INPUT] 12 H      5.880078000000 -10.458674000000 -15.712045000000 AA   11.111737011080 -19.764029486109 -29.691461906842 Bohr
[INPUT] 13 H      5.489557000000 -11.845700000000 -16.176318000000 AA   10.373759275189 -22.385128753760 -30.568810723872 Bohr
[INPUT] 14 H      4.597809000000  -7.272042000000 -12.266198000000 AA    8.688599783060 -13.742167746334 -23.179754809688 Bohr
[INPUT] 15 H      5.576498000000  -8.338407000000 -12.709967000000 AA   10.538053954185 -15.757305545156 -24.018356682260 Bohr
[INPUT] ---------------- BASIS SET ---------------- 
[INPUT] l, kappa, [nprim/nctr], expnt,             c_1 c_2 ...
[INPUT] H
[INPUT] 0    0    [3    /1   ]  18.731137         0.0334946
                                2.8253937         0.23472695
                                0.6401217         0.81375733
[INPUT] 0    0    [1    /1   ]  0.1612778            1
[INPUT] 1    0    [1    /1   ]  1.1                  1
[INPUT] O
[INPUT] 0    0    [6    /1   ]  5484.6717         0.0018311
                                825.23495         0.0139501
                                188.04696         0.0684451
                                52.9645           0.2327143
                                16.89757          0.470193
                                5.7996353         0.3585209
[INPUT] 0    0    [3    /1   ]  15.539616         -0.1107775
                                3.5999336         -0.1480263
                                1.0137618         1.130767
[INPUT] 0    0    [1    /1   ]  0.2700058            1
[INPUT] 1    0    [3    /1   ]  15.539616         0.0708743
                                3.5999336         0.3397528
                                1.0137618         0.7271586
[INPUT] 1    0    [1    /1   ]  0.2700058            1
[INPUT] 2    0    [1    /1   ]  0.8                  1

nuclear repulsion = 191.489327882981
number of shells = 60
number of NR pGTOs = 205
number of NR cGTOs = 120
basis = 6-31gss
ecp = {}
bas 0, expnt(s) = [5484.6717     825.23495    188.04696     52.9645      16.89757
    5.7996353]
bas 1, expnt(s) = [15.539616   3.5999336  1.0137618]
bas 2, expnt(s) = [0.2700058]
bas 3, expnt(s) = [15.539616   3.5999336  1.0137618]
bas 4, expnt(s) = [0.2700058]
bas 5, expnt(s) = [0.8]
bas 6, expnt(s) = [5484.6717     825.23495    188.04696     52.9645      16.89757
    5.7996353]
bas 7, expnt(s) = [15.539616   3.5999336  1.0137618]
bas 8, expnt(s) = [0.2700058]
bas 9, expnt(s) = [15.539616   3.5999336  1.0137618]
bas 10, expnt(s) = [0.2700058]
bas 11, expnt(s) = [0.8]
bas 12, expnt(s) = [5484.6717     825.23495    188.04696     52.9645      16.89757
    5.7996353]
bas 13, expnt(s) = [15.539616   3.5999336  1.0137618]
bas 14, expnt(s) = [0.2700058]
bas 15, expnt(s) = [15.539616   3.5999336  1.0137618]
bas 16, expnt(s) = [0.2700058]
bas 17, expnt(s) = [0.8]
bas 18, expnt(s) = [5484.6717     825.23495    188.04696     52.9645      16.89757
    5.7996353]
bas 19, expnt(s) = [15.539616   3.5999336  1.0137618]
bas 20, expnt(s) = [0.2700058]
bas 21, expnt(s) = [15.539616   3.5999336  1.0137618]
bas 22, expnt(s) = [0.2700058]
bas 23, expnt(s) = [0.8]
bas 24, expnt(s) = [5484.6717     825.23495    188.04696     52.9645      16.89757
    5.7996353]
bas 25, expnt(s) = [15.539616   3.5999336  1.0137618]
bas 26, expnt(s) = [0.2700058]
bas 27, expnt(s) = [15.539616   3.5999336  1.0137618]
bas 28, expnt(s) = [0.2700058]
bas 29, expnt(s) = [0.8]
bas 30, expnt(s) = [18.731137   2.8253937  0.6401217]
bas 31, expnt(s) = [0.1612778]
bas 32, expnt(s) = [1.1]
bas 33, expnt(s) = [18.731137   2.8253937  0.6401217]
bas 34, expnt(s) = [0.1612778]
bas 35, expnt(s) = [1.1]
bas 36, expnt(s) = [18.731137   2.8253937  0.6401217]
bas 37, expnt(s) = [0.1612778]
bas 38, expnt(s) = [1.1]
bas 39, expnt(s) = [18.731137   2.8253937  0.6401217]
bas 40, expnt(s) = [0.1612778]
bas 41, expnt(s) = [1.1]
bas 42, expnt(s) = [18.731137   2.8253937  0.6401217]
bas 43, expnt(s) = [0.1612778]
bas 44, expnt(s) = [1.1]
bas 45, expnt(s) = [18.731137   2.8253937  0.6401217]
bas 46, expnt(s) = [0.1612778]
bas 47, expnt(s) = [1.1]
bas 48, expnt(s) = [18.731137   2.8253937  0.6401217]
bas 49, expnt(s) = [0.1612778]
bas 50, expnt(s) = [1.1]
bas 51, expnt(s) = [18.731137   2.8253937  0.6401217]
bas 52, expnt(s) = [0.1612778]
bas 53, expnt(s) = [1.1]
bas 54, expnt(s) = [18.731137   2.8253937  0.6401217]
bas 55, expnt(s) = [0.1612778]
bas 56, expnt(s) = [1.1]
bas 57, expnt(s) = [18.731137   2.8253937  0.6401217]
bas 58, expnt(s) = [0.1612778]
bas 59, expnt(s) = [1.1]
CPU time:       682.53
arg.atm = [[ 8 20  1 23  0  0]
 [ 8 24  1 27  0  0]
 [ 8 28  1 31  0  0]
 [ 8 32  1 35  0  0]
 [ 8 36  1 39  0  0]
 [ 1 40  1 43  0  0]
 [ 1 44  1 47  0  0]
 [ 1 48  1 51  0  0]
 [ 1 52  1 55  0  0]
 [ 1 56  1 59  0  0]
 [ 1 60  1 63  0  0]
 [ 1 64  1 67  0  0]
 [ 1 68  1 71  0  0]
 [ 1 72  1 75  0  0]
 [ 1 76  1 79  0  0]]
arg.bas = [[  0   0   6   1   0  90  96   0]
 [  0   0   3   1   0 102 105   0]
 [  0   0   1   1   0 108 109   0]
 [  0   1   3   1   0 110 113   0]
 [  0   1   1   1   0 116 117   0]
 [  0   2   1   1   0 118 119   0]
 [  1   0   6   1   0  90  96   0]
 [  1   0   3   1   0 102 105   0]
 [  1   0   1   1   0 108 109   0]
 [  1   1   3   1   0 110 113   0]
 [  1   1   1   1   0 116 117   0]
 [  1   2   1   1   0 118 119   0]
 [  2   0   6   1   0  90  96   0]
 [  2   0   3   1   0 102 105   0]
 [  2   0   1   1   0 108 109   0]
 [  2   1   3   1   0 110 113   0]
 [  2   1   1   1   0 116 117   0]
 [  2   2   1   1   0 118 119   0]
 [  3   0   6   1   0  90  96   0]
 [  3   0   3   1   0 102 105   0]
 [  3   0   1   1   0 108 109   0]
 [  3   1   3   1   0 110 113   0]
 [  3   1   1   1   0 116 117   0]
 [  3   2   1   1   0 118 119   0]
 [  4   0   6   1   0  90  96   0]
 [  4   0   3   1   0 102 105   0]
 [  4   0   1   1   0 108 109   0]
 [  4   1   3   1   0 110 113   0]
 [  4   1   1   1   0 116 117   0]
 [  4   2   1   1   0 118 119   0]
 [  5   0   3   1   0  80  83   0]
 [  5   0   1   1   0  86  87   0]
 [  5   1   1   1   0  88  89   0]
 [  6   0   3   1   0  80  83   0]
 [  6   0   1   1   0  86  87   0]
 [  6   1   1   1   0  88  89   0]
 [  7   0   3   1   0  80  83   0]
 [  7   0   1   1   0  86  87   0]
 [  7   1   1   1   0  88  89   0]
 [  8   0   3   1   0  80  83   0]
 [  8   0   1   1   0  86  87   0]
 [  8   1   1   1   0  88  89   0]
 [  9   0   3   1   0  80  83   0]
 [  9   0   1   1   0  86  87   0]
 [  9   1   1   1   0  88  89   0]
 [ 10   0   3   1   0  80  83   0]
 [ 10   0   1   1   0  86  87   0]
 [ 10   1   1   1   0  88  89   0]
 [ 11   0   3   1   0  80  83   0]
 [ 11   0   1   1   0  86  87   0]
 [ 11   1   1   1   0  88  89   0]
 [ 12   0   3   1   0  80  83   0]
 [ 12   0   1   1   0  86  87   0]
 [ 12   1   1   1   0  88  89   0]
 [ 13   0   3   1   0  80  83   0]
 [ 13   0   1   1   0  86  87   0]
 [ 13   1   1   1   0  88  89   0]
 [ 14   0   3   1   0  80  83   0]
 [ 14   0   1   1   0  86  87   0]
 [ 14   1   1   1   0  88  89   0]]
arg.env = [ 1.37036000e+02  0.00000000e+00  0.00000000e+00  0.00000000e+00
  0.00000000e+00  0.00000000e+00  0.00000000e+00  0.00000000e+00
  0.00000000e+00  0.00000000e+00  0.00000000e+00  0.00000000e+00
  0.00000000e+00  0.00000000e+00  0.00000000e+00  0.00000000e+00
  0.00000000e+00  0.00000000e+00  0.00000000e+00  0.00000000e+00
  1.37010511e+01 -1.86319947e+01 -2.47619431e+01  0.00000000e+00
  1.05265153e+01 -2.41129828e+01 -2.02839555e+01  0.00000000e+00
  7.63287216e+00 -2.12107811e+01 -2.41968281e+01  0.00000000e+00
  1.00906745e+01 -2.11880666e+01 -2.92426009e+01  0.00000000e+00
  8.77070649e+00 -1.53791165e+01 -2.39449937e+01  0.00000000e+00
  1.34560972e+01 -1.93157846e+01 -2.64185526e+01  0.00000000e+00
  1.38733941e+01 -2.00816358e+01 -2.36938794e+01  0.00000000e+00
  8.77344660e+00 -2.42410798e+01 -1.98570305e+01  0.00000000e+00
  1.13076525e+01 -2.34423738e+01 -1.87966655e+01  0.00000000e+00
  8.55071592e+00 -2.27666815e+01 -2.41037950e+01  0.00000000e+00
  8.37549106e+00 -2.03288025e+01 -2.55905880e+01  0.00000000e+00
  1.11117370e+01 -1.97640295e+01 -2.96914619e+01  0.00000000e+00
  1.03737593e+01 -2.23851288e+01 -3.05688107e+01  0.00000000e+00
  8.68859978e+00 -1.37421677e+01 -2.31797548e+01  0.00000000e+00
  1.05380540e+01 -1.57573055e+01 -2.40183567e+01  0.00000000e+00
  1.87311370e+01  2.82539370e+00  6.40121700e-01  7.61926220e-01
  1.29237100e+00  1.47131900e+00  1.61277800e-01  6.42977783e-01
  1.10000000e+00  3.28643653e+00  5.48467170e+03  8.25234950e+02
  1.88046960e+02  5.29645000e+01  1.68975700e+01  5.79963530e+00
  2.94842455e+00  5.42657124e+00  8.78126489e+00  1.15432129e+01
  9.90055015e+00  3.38516599e+00  1.55396160e+01  3.59993360e+00
  1.01376180e+00 -2.19051792e+00 -9.77405528e-01  2.88629094e+00
  2.70005800e-01  9.46334873e-01  1.55396160e+01  3.59993360e+00
  1.01376180e+00  6.37930734e+00  4.91490975e+00  2.15791055e+00
  2.70005800e-01  5.67807022e-01  8.00000000e-01  1.76578110e+00]
ecpbas  = []


******** <class 'pyscf.qmmm.itrf.mm_charge.<locals>.QMMM'> ********
method = QMMM-RHF
initial guess = minao
damping factor = 0
level shift factor = 0
DIIS = <class 'pyscf.scf.diis.CDIIS'>
DIIS start cycle = 1
DIIS space = 8
SCF tol = 1e-09
SCF gradient tol = None
max. SCF cycles = 50
direct_scf = True
direct_scf_tol = 1e-13
chkfile to save SCF result = /home/liwei01/wsr/dftpart/test_2body/w32/tmpsrnxba6h
max_memory 4000 MB (current use 335 MB)
** Add background charges for <class 'pyscf.scf.hf.RHF'> **
Charge      Location
-1.056075    [ 15.8591958  -22.32322322 -21.16584533]
0.523264    [ 15.44903263 -23.69303655 -20.05800473]
0.517699    [ 17.48403712 -21.75849557 -20.60647128]
-1.035697    [ 20.23144001 -20.50137794 -19.07019386]
0.520608    [ 21.7723038  -21.39222885 -18.74761761]
0.515624    [ 19.97024207 -19.49608333 -17.58928542]
-1.009926    [ 16.42785407 -26.58707085 -18.04142885]
0.499922    [ 15.53371882 -25.95112132 -16.60336995]
0.507893    [ 16.16245338 -28.37548309 -17.98600129]
-1.032359    [ 13.1641969  -17.47579981 -19.41562257]
0.514165    [ 13.18112696 -18.60438393 -20.82910748]
0.518479    [ 14.52136419 -16.32434621 -19.73837456]
-1.052762    [ 13.11969196 -22.35429031 -15.81898054]
0.521035    [ 14.16458201 -22.84877684 -14.42771692]
0.525545    [ 13.80909996 -20.77345693 -16.36451423]
-1.002885    [ 18.40539199 -27.51482622 -24.72543362]
0.521542    [ 17.83274639 -26.30664305 -23.50711585]
0.49877    [ 20.13069872 -27.06649815 -25.03241585]
-1.054902    [ 19.05772167 -18.14703431 -25.87868434]
0.517977    [ 18.59105569 -18.66655214 -27.54728983]
0.522623    [ 17.51229609 -18.19498233 -24.93991564]
-0.997115    [ 17.90283445 -15.11249509 -20.63210731]
0.530073    [ 18.89257472 -16.62132612 -20.50652934]
0.49195    [ 18.18557149 -14.25298717 -19.06582671]
-1.032188    [ 15.97118286 -20.09833149 -29.6421136 ]
0.47982    [ 15.3540909  -19.66610766 -31.28659296]
0.534069    [ 17.50300052 -21.00734455 -29.95701189]
-1.012936    [ 10.55365553 -29.46492154 -21.67488842]
0.504954    [  8.84108934 -29.00412127 -22.03084479]
0.525721    [ 11.34418277 -27.91794449 -21.17105153]
-0.985176    [ 16.63195772 -23.48150439 -12.27810621]
0.500614    [ 17.11266814 -22.20236011 -11.09293235]
0.508291    [ 16.89319913 -25.03868407 -11.39557387]
-0.979947    [ 19.94097588 -17.12125506 -14.67509908]
0.500341    [ 18.95312155 -17.86288753 -13.35371942]
0.493696    [ 19.00620207 -15.6543646  -15.17143564]
-0.982261    [ 16.04742575 -26.75780005 -29.6895325 ]
0.479882    [ 16.71262824 -28.42851069 -29.88488293]
0.495008    [ 16.8532352  -26.12000803 -28.20097066]
-0.983713    [ 20.17321188 -22.53529584 -29.89394228]
0.505479    [ 21.06170253 -23.16751127 -28.4507471 ]
0.512532    [ 20.35114661 -23.83370776 -31.14069287]
-1.011239    [ 14.66303696 -31.18986921 -25.03135193]
0.492592    [ 13.80996545 -30.6346091  -23.53606456]
0.497341    [ 16.13314373 -30.14067248 -25.13086491]
-0.999332    [ 25.43111026 -22.24828235 -18.47023794]
0.512801    [ 26.28398524 -20.77981964 -19.09325419]
0.507583    [ 26.7410892  -23.47726762 -18.25698991]
-1.016163    [ 10.56617686 -29.35403808 -16.44102735]
0.483053    [ 11.92280935 -30.36927076 -15.8079521 ]
0.523726    [ 10.34862781 -29.90290525 -18.15080431]
-0.977833    [ 24.5589393  -27.80514674 -21.18389789]
0.50587    [ 23.21796885 -28.65180829 -20.31390388]
0.463809    [ 25.76766104 -27.42438582 -19.8931866 ]
-0.992057    [ 16.93410036 -32.15697813 -17.52810554]
0.50918    [ 16.39069828 -32.53931319 -15.84570882]
0.510293    [ 15.6895513  -32.92540692 -18.59231236]
-0.998393    [ 24.35861321 -18.31258187 -25.98586582]
0.466984    [ 25.48944989 -18.60606579 -24.60492389]
0.51604    [ 22.70911474 -18.4111103  -25.25008395]
-1.010464    [  9.27281806 -14.9477601  -17.25327322]
0.476424    [  7.6789399  -15.16789619 -18.07972415]
0.517552    [ 10.24747455 -16.38576609 -17.75736144]
-0.991473    [  5.5836248  -24.00414405 -18.66237963]
0.501887    [  5.79022289 -25.52045085 -17.69798247]
0.510487    [  5.17491673 -22.73885336 -17.43603619]
-1.029267    [  7.95719829 -25.19119252 -14.2761212 ]
0.497876    [  9.38018663 -24.0850659  -14.1227926 ]
0.519667    [  8.66153702 -26.76190075 -14.83174226]
-1.001943    [ 16.13613705 -11.83176802 -24.46883904]
0.509813    [ 16.78082846 -12.94299123 -23.1954641 ]
0.477312    [ 17.5304658  -11.57071369 -25.59117007]
-1.019724    [ 21.67798379 -29.0173418  -14.20699124]
0.475311    [ 20.53074618 -29.01816194 -15.60548117]
0.514632    [ 22.50198564 -27.40961194 -14.29731259]
-0.9959    [ 24.21450458 -24.60133719 -13.9203349 ]
0.499354    [ 23.58737251 -23.46499007 -12.66043371]
0.511038    [ 23.91476757 -23.75039163 -15.48812918]
-1.001922    [ 21.40011279 -32.14724982 -20.33868764]
0.487648    [ 22.14106118 -33.75675602 -19.97480576]
0.509505    [ 19.73399418 -32.24696878 -19.64152988]
Set gradient conv threshold to 3.16228e-05
Nelec from initial guess = 49.94389450780757
cond(S) = 119.98420831944141
E1 = -897.0004860108378  E_coul = 327.9959185796148
init E= -379.308419692525
    CPU time for initialize scf      2.14 sec, wall time      0.27 sec
  HOMO = -0.432676294949876  LUMO = 0.102989681829232
  mo_energy =
[-20.78741096 -20.77807278 -20.77351966 -20.76907695 -20.75562306
  -1.61549249  -1.60176744  -1.58768104  -1.58402869  -1.56869117
  -0.74628386  -0.73359572  -0.72484404  -0.71013407  -0.70074683
  -0.58425435  -0.57221169  -0.5712819   -0.55337247  -0.52714872
  -0.47370837  -0.45985716  -0.44848349  -0.43634188  -0.43267629
   0.10298968   0.16569191   0.17328271   0.20874101   0.23702204
   0.26937933   0.29119302   0.30634444   0.31154893   0.36048639
   0.89608077   0.94757667   0.95733019   0.97984786   0.99014597
   1.01050545   1.01309807   1.02348138   1.04269767   1.05318323
   1.06355977   1.0813576    1.09989661   1.10334777   1.12664849
   1.14339933   1.17106917   1.19330192   1.20903354   1.24009859
   1.24434098   1.26686126   1.28242836   1.30451034   1.38390617
   1.52631865   1.53427881   1.53844621   1.61371072   1.68835577
   1.74533583   1.74869747   1.74970859   1.75210611   1.75592582
   1.76284926   1.76770509   1.77551422   1.82416359   1.84418958
   1.85027185   1.85270694   1.86660371   1.89158033   1.91769806
   2.50427942   2.51580436   2.52369647   2.53563107   2.54863738
   2.58966345   2.59733136   2.61002113   2.61245011   2.63121214
   2.75170948   2.75810424   2.7695552    2.78399103   2.80216859
   2.94042777   2.94159449   2.94982917   2.9544658    2.95852858
   2.96702579   2.97073486   2.98410139   2.98824894   3.00506791
   3.34670265   3.35811311   3.3703898    3.37613459   3.39281531
   3.72922693   3.74364904   3.74908179   3.77037862   3.77888018
   3.88790077   3.89968064   3.90829031   3.92306395   3.93562896]
E1 = -910.3707498531579  E_coul = 340.66174202407836
cycle= 1 E= -380.012860090382  delta_E= -0.704  |g|= 0.977  |ddm|= 2.63
    CPU time for cycle= 1      0.30 sec, wall time      0.04 sec
diis-norm(errvec)=1.77293
diis-c [-3.14327971  1.        ]
  HOMO = -0.304508057149324  LUMO = 0.215408079032573
  mo_energy =
[-20.33629544 -20.30669097 -20.29198811 -20.23772555 -20.20678276
  -1.27491447  -1.25337301  -1.24595972  -1.1939236   -1.16100007
  -0.65826792  -0.63109226  -0.62496884  -0.57920549  -0.54726792
  -0.49476404  -0.4783049   -0.47342072  -0.41816025  -0.41245004
  -0.40181621  -0.39641669  -0.37755155  -0.33851796  -0.30450806
   0.21540808   0.27172129   0.29738998   0.31344695   0.33832012
   0.38076451   0.40741862   0.43247426   0.44625335   0.48065324
   1.02990314   1.04074422   1.06270689   1.08261263   1.11003734
   1.12438807   1.14860917   1.15907568   1.19466683   1.20757437
   1.21669851   1.24792392   1.25575259   1.28663519   1.31165253
   1.32945131   1.35130092   1.35963916   1.37514207   1.41605005
   1.43074768   1.44864082   1.47891144   1.51402554   1.53263556
   1.67167184   1.68314216   1.69857857   1.79326877   1.84414429
   1.86526736   1.8701844    1.88066525   1.89693894   1.91177008
   1.92116586   1.93949342   1.95286927   1.9607369    1.97222365
   2.01441295   2.04285664   2.0545521    2.06731465   2.10377879
   2.57266863   2.59851389   2.60916767   2.63290942   2.65671953
   2.66247019   2.66399832   2.70222576   2.73326412   2.75463859
   2.85537958   2.87124273   2.88865004   2.92721878   2.98438314
   2.99824957   3.00402585   3.02902217   3.03379614   3.04010357
   3.04414883   3.06735429   3.08886014   3.11065498   3.13138463
   3.40665552   3.43024227   3.43498438   3.48415468   3.52102076
   3.78437395   3.81112056   3.83591359   3.87324025   3.92372306
   3.9872045    4.01313631   4.03667692   4.08449034   4.13592975]
E1 = -902.2723625593644  E_coul = 332.4229706203181
cycle= 2 E= -380.153244200349  delta_E= -0.14  |g|= 0.481  |ddm|= 0.781
    CPU time for cycle= 2      0.31 sec, wall time      0.04 sec
diis-norm(errvec)=0.800262
diis-c [-0.1380044  0.2902131  0.7097869]
  HOMO = -0.40691761861148  LUMO = 0.209534025258239
  mo_energy =
[-20.5764683  -20.56240112 -20.55916671 -20.51827481 -20.49111239
  -1.34023187  -1.3269816   -1.32392527  -1.28102459  -1.25539752
  -0.70635095  -0.68671304  -0.68499483  -0.64674182  -0.62174574
  -0.56853356  -0.55743785  -0.5556464   -0.50723546  -0.49280582
  -0.48515092  -0.4813233   -0.47648879  -0.43549509  -0.40691762
   0.20953403   0.2614028    0.28586706   0.30395608   0.3300454
   0.35940606   0.39355141   0.41338811   0.42943067   0.44695929
   1.01069583   1.01174571   1.04195176   1.05288166   1.08519609
   1.10388207   1.11952443   1.12767346   1.1403399    1.14709864
   1.17962414   1.1888738    1.19544016   1.22259424   1.22998733
   1.26080921   1.28575812   1.29856082   1.31610553   1.36238656
   1.36468995   1.38035825   1.41291208   1.43686874   1.47851465
   1.62197306   1.63241335   1.6447505    1.73550433   1.79890464
   1.82608496   1.83306656   1.83896416   1.84908434   1.86517403
   1.86830112   1.89542098   1.90117974   1.90594958   1.93072181
   1.95999499   1.98133631   1.99171746   2.0154506    2.03674584
   2.5803035    2.59304026   2.60635387   2.61285513   2.61519048
   2.61916225   2.64860374   2.67892669   2.68697847   2.69535915
   2.82364152   2.835524     2.84872799   2.87754577   2.92981429
   2.98556672   2.99152171   3.00645461   3.01114931   3.02261398
   3.03208196   3.04124606   3.05818006   3.07819674   3.09028519
   3.39330712   3.41122651   3.41397374   3.45385361   3.48265002
   3.76695942   3.78221314   3.80960366   3.83738397   3.87992837
   3.94764216   3.96749301   3.99112595   4.0265553    4.07011114]
E1 = -905.8188693941235  E_coul = 335.9294250723831
cycle= 3 E= -380.193296583043  delta_E= -0.0401  |g|= 0.0686  |ddm|= 0.313
    CPU time for cycle= 3      0.30 sec, wall time      0.04 sec
diis-norm(errvec)=0.12865
diis-c [-0.00744388 -0.02116743  0.07309758  0.94806985]
  HOMO = -0.399182312381597  LUMO = 0.216199063234829
  mo_energy =
[-20.54139781 -20.52957027 -20.52634554 -20.4843386  -20.4609625
  -1.32479456  -1.31298288  -1.31003715  -1.2682633   -1.24482071
  -0.69245235  -0.67383974  -0.67241745  -0.63558579  -0.61234457
  -0.55771828  -0.54728104  -0.54553149  -0.49839877  -0.4813951
  -0.47442965  -0.470477    -0.46860109  -0.42578074  -0.39918231
   0.21619906   0.26691247   0.29141204   0.31032449   0.33697964
   0.36434782   0.39962531   0.41922785   0.43699813   0.45165184
   1.01795066   1.02080867   1.05055133   1.06066607   1.0945182
   1.11582606   1.12946851   1.13829125   1.14983447   1.15561366
   1.18897337   1.19709702   1.20331925   1.23089019   1.23783553
   1.26811967   1.29521983   1.30824595   1.32558645   1.3712654
   1.37303193   1.38866592   1.42165841   1.44382179   1.48847408
   1.63264836   1.6430071    1.65470179   1.74499692   1.80922962
   1.83768229   1.84478104   1.85026      1.85966453   1.87545436
   1.87730942   1.90486995   1.91221369   1.91509996   1.94271027
   1.96957808   1.98985459   2.00038498   2.02521876   2.04428414
   2.59253988   2.60520315   2.61755771   2.62382941   2.62626114
   2.63037109   2.65803005   2.68837151   2.69505895   2.70361994
   2.83689766   2.84832925   2.86088402   2.88833034   2.93898001
   2.99740009   3.00342411   3.01667567   3.0212812    3.03291321
   3.04299796   3.05075308   3.06630529   3.08578141   3.09680682
   3.40507994   3.42157922   3.42431445   3.46254792   3.4898331
   3.78303121   3.7963553    3.82361685   3.85030098   3.89096839
   3.96143283   3.98016249   4.00355045   4.03745218   4.07898398]
E1 = -905.4238745488719  E_coul = 335.5333749966392
cycle= 4 E= -380.194351813535  delta_E= -0.00106  |g|= 0.0111  |ddm|= 0.0412
    CPU time for cycle= 4      0.30 sec, wall time      0.04 sec
diis-norm(errvec)=0.0230775
diis-c [-1.31455013e-04 -9.60162103e-03 -4.01336225e-02 -1.75507715e-01
  1.22524296e+00]
  HOMO = -0.400425857472582  LUMO = 0.216222329480094
  mo_energy =
[-20.54385913 -20.53059115 -20.5267141  -20.48609076 -20.46161356
  -1.32569125  -1.31340311  -1.31023664  -1.26917053  -1.24541731
  -0.6924032   -0.67361291  -0.67208489  -0.63571333  -0.61229318
  -0.55826565  -0.54741873  -0.54554683  -0.49893151  -0.48263319
  -0.47534805  -0.47125984  -0.46917266  -0.4272078   -0.40042586
   0.21622233   0.26694362   0.29138821   0.31046323   0.33734746
   0.36433534   0.40001111   0.41956555   0.43722455   0.45202406
   1.01799468   1.0209602    1.05061094   1.06068762   1.09433877
   1.11576817   1.12930992   1.13827798   1.14953618   1.15527104
   1.18881548   1.19680664   1.20313115   1.23049332   1.2368397
   1.26776919   1.29497743   1.30836663   1.32546884   1.3711177
   1.37305472   1.38846963   1.42146152   1.44368614   1.48826361
   1.63227292   1.64279447   1.65442898   1.74465152   1.80914165
   1.83769928   1.84479524   1.8504007    1.85989524   1.87515557
   1.87727974   1.90471279   1.9120205    1.9149518    1.94243787
   1.9696564    1.98964026   2.00006985   2.02515838   2.04406638
   2.59305579   2.6051925    2.61785938   2.62427383   2.62653201
   2.63048826   2.65815022   2.68830994   2.69509064   2.70370537
   2.8371659    2.84863279   2.86133865   2.88837847   2.93918806
   2.99779065   3.00381815   3.01718071   3.02171371   3.03330571
   3.04323932   3.05091061   3.06636612   3.0859229    3.09704501
   3.40557823   3.42204233   3.42484081   3.46276802   3.49014241
   3.78330258   3.79676775   3.82389162   3.85037032   3.89116804
   3.96176958   3.98073537   4.00407683   4.03764118   4.07935935]
E1 = -905.4321858705835  E_coul = 335.541631711248
cycle= 5 E= -380.194406420638  delta_E= -5.46e-05  |g|= 0.00193  |ddm|= 0.0134
    CPU time for cycle= 5      0.30 sec, wall time      0.04 sec
diis-norm(errvec)=0.00366726
diis-c [-7.67157490e-06  2.12197045e-03  6.53833739e-03  9.34923161e-03
 -2.04866176e-01  1.18685664e+00]
  HOMO = -0.400932051143718  LUMO = 0.216194885258559
  mo_energy =
[-20.5425893  -20.53069793 -20.5272871  -20.48579907 -20.46233187
  -1.32536556  -1.31349719  -1.3104738   -1.26917455  -1.24577244
  -0.69207025  -0.6735351   -0.67210771  -0.63560401  -0.61241414
  -0.55807983  -0.54759264  -0.54578537  -0.4990109   -0.48258582
  -0.47553311  -0.47154276  -0.46950596  -0.42736055  -0.40093205
   0.21619489   0.26687953   0.29133734   0.31046014   0.33738565
   0.36423221   0.3999566    0.41950862   0.43720372   0.45189394
   1.01781328   1.02088259   1.05056065   1.06053478   1.09420815
   1.11580236   1.12920742   1.1380996    1.14936882   1.15502689
   1.18870643   1.19666054   1.20298609   1.23037026   1.23672763
   1.26758114   1.29492981   1.30825188   1.32541515   1.37107057
   1.37292243   1.38831008   1.4213409    1.44352008   1.48821884
   1.63228601   1.64270562   1.65438032   1.74454826   1.80905067
   1.83758501   1.84478395   1.85021959   1.85970027   1.87507981
   1.87711147   1.90457899   1.91202328   1.91477727   1.94261183
   1.96944128   1.98946578   1.99996178   2.02502428   2.04382548
   2.59300935   2.60526919   2.61777628   2.62415773   2.62631558
   2.6303733    2.65804504   2.6881852    2.69487521   2.70346697
   2.83719301   2.84856997   2.86114287   2.88827591   2.93890898
   2.99787094   3.00383659   3.01702278   3.0215989    3.03316475
   3.04315866   3.05086204   3.06622614   3.0857359    3.09676483
   3.40561795   3.42191395   3.42469915   3.462657     3.48991259
   3.78342907   3.79658768   3.82376862   3.8502967    3.89094769
   3.96188759   3.98058023   4.00392426   4.03754973   4.07903658]
E1 = -905.4288531092618  E_coul = 335.538297206284
cycle= 6 E= -380.19440816428  delta_E= -1.74e-06  |g|= 0.000761  |ddm|= 0.00281
    CPU time for cycle= 6      0.29 sec, wall time      0.04 sec
diis-norm(errvec)=0.00133191
diis-c [-8.22851046e-07  1.04376804e-03  3.91967941e-03  1.04895763e-02
 -1.13262329e-01  2.69681538e-01  8.28127768e-01]
  HOMO = -0.400870260286486  LUMO = 0.216163798097143
  mo_energy =
[-20.54322879 -20.53057787 -20.52691506 -20.48592724 -20.46195279
  -1.32558179  -1.31347439  -1.31036486  -1.26923357  -1.24567869
  -0.6921772   -0.67349807  -0.67202106  -0.63562184  -0.61233925
  -0.55825194  -0.54757924  -0.54572627  -0.49907621  -0.48276042
  -0.47556325  -0.47150433  -0.46945587  -0.42744642  -0.40087026
   0.2161638    0.26687747   0.29132487   0.31044329   0.33737368
   0.36423565   0.39998139   0.41950815   0.43719962   0.45189999
   1.01781542   1.02085957   1.05051978   1.06054141   1.09419563
   1.11572977   1.12918878   1.1381247    1.1493636    1.15506154
   1.18868895   1.19664341   1.20296708   1.23034119   1.23664531
   1.26757771   1.29489093   1.30828956   1.32537902   1.37104118
   1.3729409    1.38832355   1.42134012   1.44352843   1.48819714
   1.63224501   1.64272524   1.65436864   1.74454176   1.8090287
   1.83758345   1.84472489   1.85026208   1.85975611   1.87503601
   1.87710588   1.90456472   1.91195612   1.91477981   1.9424635
   1.96949416   1.98947237   1.99993298   2.02503302   2.04384821
   2.59298276   2.60515673   2.61776109   2.62416676   2.62637509
   2.63036202   2.65801971   2.68815716   2.69488068   2.70348123
   2.8371156    2.84854318   2.86119192   2.88824085   2.93894564
   2.99777661   3.00378185   3.01705964   3.02159416   3.03319341
   3.04315192   3.05083012   3.0661996    3.08575287   3.09678007
   3.40554444   3.42192512   3.42472229   3.46262986   3.4899265
   3.78332163   3.79663649   3.82378097   3.85027135   3.89097465
   3.96176529   3.98061682   4.00395216   4.03751068   4.07909183]
E1 = -905.4282868615524  E_coul = 335.53773080286015
cycle= 7 E= -380.194408319994  delta_E= -1.56e-07  |g|= 0.000193  |ddm|= 0.000707
    CPU time for cycle= 7      0.30 sec, wall time      0.04 sec
diis-norm(errvec)=0.000355821
diis-c [-2.31910113e-08 -2.31397099e-04 -6.48322534e-04 -1.83967110e-03
  2.33843714e-02 -1.37130849e-01  1.09815059e-02  1.10548436e+00]
  HOMO = -0.400905584455467  LUMO = 0.2161704632496
  mo_energy =
[-20.54308504 -20.53057525 -20.52694324 -20.48588405 -20.46199815
  -1.32553665  -1.31347439  -1.31037605  -1.26922564  -1.24569884
  -0.69213477  -0.67348247  -0.67201456  -0.63560555  -0.61233787
  -0.55822029  -0.5475879   -0.5457422   -0.4990741   -0.48274315
  -0.47556972  -0.4715201   -0.46947732  -0.42744997  -0.40090558
   0.21617046   0.2668786    0.29132605   0.31044924   0.33738775
   0.36423326   0.39998504   0.41951663   0.43720771   0.45190818
   1.01781827   1.02087074   1.05053278   1.06054334   1.09419712
   1.11574918   1.1291927    1.13812287   1.14936071   1.15505168
   1.18869195   1.19664482   1.20297342   1.23034315   1.2366492
   1.2675727    1.29490385   1.30829396   1.32539358   1.37105172
   1.37294295   1.38832179   1.4213434    1.44353411   1.48820933
   1.63225973   1.64272801   1.65437474   1.74454474   1.80903633
   1.83758513   1.84473938   1.85025871   1.85975068   1.87503967
   1.87710729   1.90456543   1.91197028   1.9147784    1.94249566
   1.96948699   1.98946845   1.99993508   2.02503292   2.04384188
   2.59299706   2.60518241   2.61776813   2.62417218   2.62636984
   2.63036714   2.65802285   2.68816103   2.69487748   2.70347831
   2.83713803   2.84855518   2.86119135   2.88824748   2.93894005
   2.99780249   3.00379948   3.01705851   3.02160068   3.03319349
   3.04315524   3.0508324    3.06620372   3.08574292   3.09678271
   3.40556814   3.4219286    3.42472503   3.46263497   3.4899253
   3.783354     3.7966375    3.82378473   3.85027632   3.89097118
   3.9617986    3.98061952   4.00395491   4.0375203    4.07908578]
E1 = -905.4278802880918  E_coul = 335.5373242152121
cycle= 8 E= -380.194408334182  delta_E= -1.42e-08  |g|= 2.38e-05  |ddm|= 0.000252
    CPU time for cycle= 8      0.30 sec, wall time      0.04 sec
diis-norm(errvec)=4.46777e-05
diis-c [-1.15858364e-09 -3.16631637e-05 -1.16397086e-04 -3.50435435e-04
  3.44103396e-03 -7.11564438e-03 -2.57473570e-02 -2.01026162e-02
  1.05002308e+00]
  HOMO = -0.400903619297488  LUMO = 0.216169990794348
  mo_energy =
[-20.54308831 -20.53056813 -20.52694338 -20.485879   -20.46199026
  -1.32553765  -1.31347191  -1.31037547  -1.2692236   -1.24569655
  -0.69213381  -0.67347976  -0.67201255  -0.63560266  -0.61233506
  -0.55822118  -0.54758707  -0.54574197  -0.49907381  -0.48274436
  -0.47556908  -0.47151864  -0.46947557  -0.42744849  -0.40090362
   0.21616999   0.26687866   0.29132632   0.31044968   0.33738794
   0.36423409   0.39998591   0.41951659   0.43720824   0.45190766
   1.01781812   1.02087062   1.05053242   1.0605438    1.09419779
   1.11574865   1.1291936    1.1381225    1.14936108   1.1550518
   1.18869243   1.196645     1.20297265   1.2303437    1.23664905
   1.26757358   1.29490447   1.30829499   1.32539351   1.3710526
   1.37294432   1.38832314   1.4213446    1.44353486   1.48820985
   1.63225947   1.64272869   1.65437561   1.74454562   1.80903653
   1.83758633   1.84473949   1.85025902   1.8597512    1.87504058
   1.8771076    1.90456637   1.91197053   1.91477913   1.94249455
   1.96948744   1.98946941   1.99993594   2.02503393   2.04384251
   2.59299712   2.60518189   2.61776881   2.6241726    2.62637041
   2.63036813   2.65802355   2.68816181   2.69487831   2.70347897
   2.83713818   2.84855603   2.86119203   2.8882486    2.93894121
   2.99780195   3.00379929   3.01705908   3.02160118   3.03319405
   3.04315625   3.05083445   3.06620302   3.08574571   3.09678075
   3.40556788   3.4219297    3.42472587   3.46263571   3.48992597
   3.78335352   3.79663788   3.82378588   3.850278     3.8909727
   3.96179807   3.98062049   4.00395639   4.03752115   4.07908666]
E1 = -905.4278585184311  E_coul = 335.53730244524377
cycle= 9 E= -380.19440833449  delta_E= -3.08e-10  |g|= 8.03e-06  |ddm|= 3.89e-05
    CPU time for cycle= 9      0.30 sec, wall time      0.04 sec
  HOMO = -0.400903579758842  LUMO = 0.21616993487227
  mo_energy =
[-20.54308797 -20.53057106 -20.52694094 -20.48588126 -20.46199248
  -1.32553732  -1.31347263  -1.31037452  -1.26922397  -1.24569681
  -0.69213384  -0.67348004  -0.67201221  -0.635603    -0.61233522
  -0.55822096  -0.54758756  -0.54574178  -0.49907446  -0.48274411
  -0.47556871  -0.47151816  -0.4694757   -0.42744854  -0.40090358
   0.21616993   0.26687865   0.2913262    0.31044947   0.33738788
   0.3642341    0.39998598   0.41951657   0.4372081    0.45190785
   1.01781813   1.02087045   1.0505323    1.06054379   1.09419769
   1.11574846   1.12919329   1.1381226    1.14936068   1.15505212
   1.18869224   1.19664494   1.20297293   1.23034357   1.23664897
   1.26757327   1.29490438   1.30829537   1.32539355   1.37105249
   1.37294416   1.38832307   1.42134447   1.44353475   1.48820974
   1.6322597    1.64272878   1.65437565   1.74454542   1.80903647
   1.83758595   1.84473935   1.85025943   1.85975171   1.87504032
   1.87710751   1.90456623   1.91197043   1.91477913   1.94249478
   1.96948787   1.98946937   1.99993577   2.02503353   2.04384249
   2.59299693   2.60518194   2.6177686    2.62417256   2.62637092
   2.63036778   2.65802338   2.68816162   2.69487825   2.70347894
   2.837138     2.84855576   2.8611923    2.8882483    2.93894108
   2.99780195   3.00379914   3.01705931   3.02160093   3.03319417
   3.04315595   3.05083405   3.06620304   3.08574552   3.09678102
   3.40556785   3.42192948   3.42472589   3.46263553   3.48992599
   3.78335344   3.79663801   3.82378551   3.85027754   3.8909725
   3.96179806   3.98062061   4.0039561    4.03752083   4.07908654]
E1 = -905.4278745772967  E_coul = 335.53731850407104
Extra cycle  E= -380.194408334528  delta_E= -3.84e-11  |g|= 3.98e-06  |ddm|= 1.32e-05
    CPU time for scf_cycle      5.13 sec, wall time      0.65 sec
    CPU time for SCF      5.27 sec, wall time      0.67 sec
converged SCF energy = -380.194408334528
