 Entering Gaussian System, Link 0=g16
 Input=w32_25.gjf
 Output=w32_25.log
 Initial command:
 /home/soft/g16/l1.exe "/tmp/liwei01/gaussian/wsr/Gau-6218.inp" -scrdir="/tmp/liwei01/gaussian/wsr/"
 Entering Link 1 = /home/soft/g16/l1.exe PID=      6219.
  
 Copyright (c) 1988,1990,1992,1993,1995,1998,2003,2009,2016,
            Gaussian, Inc.  All Rights Reserved.
  
 This is part of the Gaussian(R) 16 program.  It is based on
 the Gaussian(R) 09 system (copyright 2009, Gaussian, Inc.),
 the Gaussian(R) 03 system (copyright 2003, Gaussian, Inc.),
 the Gaussian(R) 98 system (copyright 1998, Gaussian, Inc.),
 the Gaussian(R) 94 system (copyright 1995, Gaussian, Inc.),
 the Gaussian 92(TM) system (copyright 1992, Gaussian, Inc.),
 the Gaussian 90(TM) system (copyright 1990, Gaussian, Inc.),
 the Gaussian 88(TM) system (copyright 1988, Gaussian, Inc.),
 the Gaussian 86(TM) system (copyright 1986, Carnegie Mellon
 University), and the Gaussian 82(TM) system (copyright 1983,
 Carnegie Mellon University). Gaussian is a federally registered
 trademark of Gaussian, Inc.
  
 This software contains proprietary and confidential information,
 including trade secrets, belonging to Gaussian, Inc.
  
 This software is provided under written license and may be
 used, copied, transmitted, or stored only in accord with that
 written license.
  
 The following legend is applicable only to US Government
 contracts under FAR:
  
                    RESTRICTED RIGHTS LEGEND
  
 Use, reproduction and disclosure by the US Government is
 subject to restrictions as set forth in subparagraphs (a)
 and (c) of the Commercial Computer Software - Restricted
 Rights clause in FAR 52.227-19.
  
 Gaussian, Inc.
 340 Quinnipiac St., Bldg. 40, Wallingford CT 06492
  
  
 ---------------------------------------------------------------
 Warning -- This program may not be used in any manner that
 competes with the business of Gaussian, Inc. or will provide
 assistance to any competitor of Gaussian, Inc.  The licensee
 of this program is prohibited from giving any competitor of
 Gaussian, Inc. access to this program.  By using this program,
 the user acknowledges that Gaussian, Inc. is engaged in the
 business of creating and licensing software in the field of
 computational chemistry and represents and warrants to the
 licensee that it is not a competitor of Gaussian, Inc. and that
 it will not use this program in any manner prohibited above.
 ---------------------------------------------------------------
  

 Cite this work as:
 Gaussian 16, Revision A.03,
 M. J. Frisch, G. W. Trucks, H. B. Schlegel, G. E. Scuseria, 
 M. A. Robb, J. R. Cheeseman, G. Scalmani, V. Barone, 
 G. A. Petersson, H. Nakatsuji, X. Li, M. Caricato, A. V. Marenich, 
 J. Bloino, B. G. Janesko, R. Gomperts, B. Mennucci, H. P. Hratchian, 
 J. V. Ortiz, A. F. Izmaylov, J. L. Sonnenberg, D. Williams-Young, 
 F. Ding, F. Lipparini, F. Egidi, J. Goings, B. Peng, A. Petrone, 
 T. Henderson, D. Ranasinghe, V. G. Zakrzewski, J. Gao, N. Rega, 
 G. Zheng, W. Liang, M. Hada, M. Ehara, K. Toyota, R. Fukuda, 
 J. Hasegawa, M. Ishida, T. Nakajima, Y. Honda, O. Kitao, H. Nakai, 
 T. Vreven, K. Throssell, J. A. Montgomery, Jr., J. E. Peralta, 
 F. Ogliaro, M. J. Bearpark, J. J. Heyd, E. N. Brothers, K. N. Kudin, 
 V. N. Staroverov, T. A. Keith, R. Kobayashi, J. Normand, 
 K. Raghavachari, A. P. Rendell, J. C. Burant, S. S. Iyengar, 
 J. Tomasi, M. Cossi, J. M. Millam, M. Klene, C. Adamo, R. Cammi, 
 J. W. Ochterski, R. L. Martin, K. Morokuma, O. Farkas, 
 J. B. Foresman, and D. J. Fox, Gaussian, Inc., Wallingford CT, 2016.
 
 ******************************************
 Gaussian 16:  ES64L-G16RevA.03 25-Dec-2016
                15-May-2020 
 ******************************************
 %chk=w32_25.chk
 %nproc=4
 Will use up to    4 processors via shared memory.
 %mem=1gb
 -----------------------------------------
 #p hf/6-31g** 5d 7f pop=npa charge nosymm
 -----------------------------------------
 1/18=10,28=-2,38=1,125=101,172=1/1;
 2/12=2,15=1,17=6,18=5,40=1/2;
 3/5=1,6=6,7=101,8=11,11=9,25=1,30=1/1,2,3;
 4//1;
 5/5=2,38=5/2;
 6/7=2,8=2,9=2,10=2,28=1,40=-1/1,7;
 99/5=1,9=1/99;
 Leave Link    1 at Fri May 15 22:35:25 2020, MaxMem=   134217728 cpu:               0.3 elap:               0.1
 (Enter /home/soft/g16/l101.exe)
 --------------
 Atom number=12
 --------------
 Symbolic Z-matrix:
 Charge =  0 Multiplicity = 1
 o                     10.70602  -10.84886  -10.09151 
 o                     13.45756  -11.77328  -9.77403 
 o                     11.4715  -15.35532  -7.51802 
 o                     12.81376  -13.01847  -7.36632 
 h                     11.52141  -11.32028  -9.92081 
 h                     10.5678  -10.31688  -9.30785 
 h                     13.90889  -10.99621  -10.10371 
 h                     14.15077  -12.42364  -9.66118 
 h                     10.8644  -15.35575  -8.25807 
 h                     11.90754  -14.50454  -7.56581 
 h                     12.4819  -12.41714  -6.69961 
 h                     12.65515  -12.56817  -8.19596 
 
 ITRead=  0  0  0  0  0  0  0  0  0  0  0  0
 MicOpt= -1 -1 -1 -1 -1 -1 -1 -1 -1 -1 -1 -1
 NAtoms=     12 NQM=       12 NQMF=       0 NMMI=      0 NMMIF=      0
                NMic=       0 NMicF=      0.
                    Isotopes and Nuclear Properties:
 (Nuclear quadrupole moments (NQMom) in fm**2, nuclear magnetic moments (NMagM)
  in nuclear magnetons)

  Atom         1           2           3           4           5           6           7           8           9          10
 IAtWgt=          16          16          16          16           1           1           1           1           1           1
 AtmWgt=  15.9949146  15.9949146  15.9949146  15.9949146   1.0078250   1.0078250   1.0078250   1.0078250   1.0078250   1.0078250
 NucSpn=           0           0           0           0           1           1           1           1           1           1
 AtZEff=  -0.0000000  -0.0000000  -0.0000000  -0.0000000  -0.0000000  -0.0000000  -0.0000000  -0.0000000  -0.0000000  -0.0000000
 NQMom=    0.0000000   0.0000000   0.0000000   0.0000000   0.0000000   0.0000000   0.0000000   0.0000000   0.0000000   0.0000000
 NMagM=    0.0000000   0.0000000   0.0000000   0.0000000   2.7928460   2.7928460   2.7928460   2.7928460   2.7928460   2.7928460
 AtZNuc=   8.0000000   8.0000000   8.0000000   8.0000000   1.0000000   1.0000000   1.0000000   1.0000000   1.0000000   1.0000000

  Atom        11          12
 IAtWgt=           1           1
 AtmWgt=   1.0078250   1.0078250
 NucSpn=           1           1
 AtZEff=  -0.0000000  -0.0000000
 NQMom=    0.0000000   0.0000000
 NMagM=    2.7928460   2.7928460
 AtZNuc=   1.0000000   1.0000000
 Background charge distribution read from input stream:
 Point Charges:
 XYZ=    8.3923  -11.8129  -11.2005 Q=   -1.0561 A=    0.0000 R=    0.0000 C=    0.0000
 XYZ=    8.1753  -12.5378  -10.6142 Q=    0.5233 A=    0.0000 R=    0.0000 C=    0.0000
 XYZ=    9.2522  -11.5141  -10.9045 Q=    0.5177 A=    0.0000 R=    0.0000 C=    0.0000
 XYZ=    8.6932  -14.0693   -9.5471 Q=   -1.0099 A=    0.0000 R=    0.0000 C=    0.0000
 XYZ=    8.2201  -13.7327   -8.7861 Q=    0.4999 A=    0.0000 R=    0.0000 C=    0.0000
 XYZ=    8.5528  -15.0157   -9.5178 Q=    0.5079 A=    0.0000 R=    0.0000 C=    0.0000
 XYZ=    7.2503   -9.8596  -13.1035 Q=   -1.0243 A=    0.0000 R=    0.0000 C=    0.0000
 XYZ=    7.1207  -10.2215  -13.9801 Q=    0.5152 A=    0.0000 R=    0.0000 C=    0.0000
 XYZ=    7.3415  -10.6267  -12.5383 Q=    0.5154 A=    0.0000 R=    0.0000 C=    0.0000
 XYZ=    5.5704  -12.7600  -10.7338 Q=   -1.0500 A=    0.0000 R=    0.0000 C=    0.0000
 XYZ=    4.6427  -12.8278  -10.5079 Q=    0.5214 A=    0.0000 R=    0.0000 C=    0.0000
 XYZ=    5.9838  -12.4052   -9.9468 Q=    0.5064 A=    0.0000 R=    0.0000 C=    0.0000
 XYZ=    6.9662   -9.2478  -10.2743 Q=   -1.0324 A=    0.0000 R=    0.0000 C=    0.0000
 XYZ=    6.9752   -9.8450  -11.0223 Q=    0.5142 A=    0.0000 R=    0.0000 C=    0.0000
 XYZ=    7.6844   -8.6385  -10.4451 Q=    0.5185 A=    0.0000 R=    0.0000 C=    0.0000
 XYZ=    6.9426  -11.8294   -8.3710 Q=   -1.0528 A=    0.0000 R=    0.0000 C=    0.0000
 XYZ=    7.4956  -12.0911   -7.6348 Q=    0.5210 A=    0.0000 R=    0.0000 C=    0.0000
 XYZ=    7.3075  -10.9928   -8.6597 Q=    0.5255 A=    0.0000 R=    0.0000 C=    0.0000
 XYZ=    9.7397  -14.5602  -13.0841 Q=   -1.0029 A=    0.0000 R=    0.0000 C=    0.0000
 XYZ=    9.4367  -13.9209  -12.4394 Q=    0.5215 A=    0.0000 R=    0.0000 C=    0.0000
 XYZ=   10.6527  -14.3230  -13.2466 Q=    0.4988 A=    0.0000 R=    0.0000 C=    0.0000
 XYZ=   10.0849   -9.6030  -13.6944 Q=   -1.0549 A=    0.0000 R=    0.0000 C=    0.0000
 XYZ=    9.8380   -9.8779  -14.5774 Q=    0.5180 A=    0.0000 R=    0.0000 C=    0.0000
 XYZ=    9.2671   -9.6284  -13.1976 Q=    0.5226 A=    0.0000 R=    0.0000 C=    0.0000
 XYZ=    9.4738   -7.9972  -10.9180 Q=   -0.9971 A=    0.0000 R=    0.0000 C=    0.0000
 XYZ=    9.9975   -8.7956  -10.8516 Q=    0.5301 A=    0.0000 R=    0.0000 C=    0.0000
 XYZ=    9.6234   -7.5424  -10.0892 Q=    0.4920 A=    0.0000 R=    0.0000 C=    0.0000
 XYZ=    8.4516  -10.6356  -15.6859 Q=   -1.0322 A=    0.0000 R=    0.0000 C=    0.0000
 XYZ=    8.1250  -10.4069  -16.5562 Q=    0.4798 A=    0.0000 R=    0.0000 C=    0.0000
 XYZ=    9.2622  -11.1166  -15.8526 Q=    0.5341 A=    0.0000 R=    0.0000 C=    0.0000
 XYZ=    4.0391  -11.2243  -12.8044 Q=   -0.9921 A=    0.0000 R=    0.0000 C=    0.0000
 XYZ=    4.5248  -12.0476  -12.7552 Q=    0.4802 A=    0.0000 R=    0.0000 C=    0.0000
 XYZ=    4.4321  -10.7575  -13.5420 Q=    0.5046 A=    0.0000 R=    0.0000 C=    0.0000
 XYZ=    5.5848  -15.5922  -11.4699 Q=   -1.0129 A=    0.0000 R=    0.0000 C=    0.0000
 XYZ=    4.6785  -15.3483  -11.6582 Q=    0.5050 A=    0.0000 R=    0.0000 C=    0.0000
 XYZ=    6.0031  -14.7735  -11.2032 Q=    0.5257 A=    0.0000 R=    0.0000 C=    0.0000
 XYZ=    8.8013  -12.4259   -6.4973 Q=   -0.9852 A=    0.0000 R=    0.0000 C=    0.0000
 XYZ=    9.0556  -11.7490   -5.8701 Q=    0.5006 A=    0.0000 R=    0.0000 C=    0.0000
 XYZ=    8.9395  -13.2499   -6.0303 Q=    0.5083 A=    0.0000 R=    0.0000 C=    0.0000
 XYZ=   10.5523   -9.0602   -7.7657 Q=   -0.9799 A=    0.0000 R=    0.0000 C=    0.0000
 XYZ=   10.0296   -9.4526   -7.0665 Q=    0.5003 A=    0.0000 R=    0.0000 C=    0.0000
 XYZ=   10.0576   -8.2839   -8.0284 Q=    0.4937 A=    0.0000 R=    0.0000 C=    0.0000
 XYZ=    8.4919  -14.1596  -15.7110 Q=   -0.9823 A=    0.0000 R=    0.0000 C=    0.0000
 XYZ=    8.8439  -15.0437  -15.8144 Q=    0.4799 A=    0.0000 R=    0.0000 C=    0.0000
 XYZ=    8.9183  -13.8221  -14.9233 Q=    0.4950 A=    0.0000 R=    0.0000 C=    0.0000
 XYZ=   10.6752  -11.9252  -15.8192 Q=   -0.9837 A=    0.0000 R=    0.0000 C=    0.0000
 XYZ=   11.1454  -12.2597  -15.0555 Q=    0.5055 A=    0.0000 R=    0.0000 C=    0.0000
 XYZ=   10.7694  -12.6123  -16.4789 Q=    0.5125 A=    0.0000 R=    0.0000 C=    0.0000
 XYZ=    7.7593  -16.5050  -13.2460 Q=   -1.0112 A=    0.0000 R=    0.0000 C=    0.0000
 XYZ=    7.3079  -16.2111  -12.4547 Q=    0.4926 A=    0.0000 R=    0.0000 C=    0.0000
 XYZ=    8.5373  -15.9498  -13.2987 Q=    0.4973 A=    0.0000 R=    0.0000 C=    0.0000
 XYZ=    5.5914  -15.5335   -8.7002 Q=   -1.0162 A=    0.0000 R=    0.0000 C=    0.0000
 XYZ=    6.3093  -16.0707   -8.3652 Q=    0.4831 A=    0.0000 R=    0.0000 C=    0.0000
 XYZ=    5.4763  -15.8239   -9.6050 Q=    0.5237 A=    0.0000 R=    0.0000 C=    0.0000
 XYZ=    5.3398  -11.2122  -15.4745 Q=   -0.9760 A=    0.0000 R=    0.0000 C=    0.0000
 XYZ=    5.8801  -10.4587  -15.7120 Q=    0.4863 A=    0.0000 R=    0.0000 C=    0.0000
 XYZ=    5.4896  -11.8457  -16.1763 Q=    0.4965 A=    0.0000 R=    0.0000 C=    0.0000
 XYZ=   12.9960  -14.7139  -11.2100 Q=   -0.9778 A=    0.0000 R=    0.0000 C=    0.0000
 XYZ=   12.2864  -15.1619  -10.7497 Q=    0.5059 A=    0.0000 R=    0.0000 C=    0.0000
 XYZ=   13.6357  -14.5124  -10.5270 Q=    0.4638 A=    0.0000 R=    0.0000 C=    0.0000
 XYZ=    4.6413   -8.1383  -12.6711 Q=   -0.9897 A=    0.0000 R=    0.0000 C=    0.0000
 XYZ=    4.5978   -7.2720  -12.2662 Q=    0.4876 A=    0.0000 R=    0.0000 C=    0.0000
 XYZ=    5.5765   -8.3384  -12.7100 Q=    0.4969 A=    0.0000 R=    0.0000 C=    0.0000
 XYZ=    8.9611  -17.0167   -9.2755 Q=   -0.9921 A=    0.0000 R=    0.0000 C=    0.0000
 XYZ=    8.6736  -17.2191   -8.3852 Q=    0.5092 A=    0.0000 R=    0.0000 C=    0.0000
 XYZ=    8.3026  -17.4234   -9.8386 Q=    0.5103 A=    0.0000 R=    0.0000 C=    0.0000
 XYZ=   12.8900   -9.6906  -13.7511 Q=   -0.9984 A=    0.0000 R=    0.0000 C=    0.0000
 XYZ=   13.4884   -9.8459  -13.0204 Q=    0.4670 A=    0.0000 R=    0.0000 C=    0.0000
 XYZ=   12.0171   -9.7427  -13.3618 Q=    0.5160 A=    0.0000 R=    0.0000 C=    0.0000
 XYZ=    4.9070   -7.9100   -9.1300 Q=   -1.0105 A=    0.0000 R=    0.0000 C=    0.0000
 XYZ=    4.0635   -8.0265   -9.5674 Q=    0.4764 A=    0.0000 R=    0.0000 C=    0.0000
 XYZ=    5.4227   -8.6710   -9.3968 Q=    0.5176 A=    0.0000 R=    0.0000 C=    0.0000
 XYZ=    2.9547  -12.7024   -9.8757 Q=   -0.9915 A=    0.0000 R=    0.0000 C=    0.0000
 XYZ=    3.0641  -13.5048   -9.3654 Q=    0.5019 A=    0.0000 R=    0.0000 C=    0.0000
 XYZ=    2.7384  -12.0329   -9.2268 Q=    0.5105 A=    0.0000 R=    0.0000 C=    0.0000
 XYZ=    4.2108  -13.3306   -7.5546 Q=   -1.0293 A=    0.0000 R=    0.0000 C=    0.0000
 XYZ=    4.9638  -12.7453   -7.4735 Q=    0.4979 A=    0.0000 R=    0.0000 C=    0.0000
 XYZ=    4.5835  -14.1618   -7.8486 Q=    0.5197 A=    0.0000 R=    0.0000 C=    0.0000
 XYZ=    8.5389   -6.2611  -12.9484 Q=   -1.0019 A=    0.0000 R=    0.0000 C=    0.0000
 XYZ=    8.8800   -6.8491  -12.2745 Q=    0.5098 A=    0.0000 R=    0.0000 C=    0.0000
 XYZ=    9.2767   -6.1230  -13.5423 Q=    0.4773 A=    0.0000 R=    0.0000 C=    0.0000
 XYZ=   11.3245  -17.0116  -10.7628 Q=   -1.0019 A=    0.0000 R=    0.0000 C=    0.0000
 XYZ=   11.7165  -17.8633  -10.5702 Q=    0.4876 A=    0.0000 R=    0.0000 C=    0.0000
 XYZ=   10.4428  -17.0644  -10.3939 Q=    0.5095 A=    0.0000 R=    0.0000 C=    0.0000
 Pt Chg Charge=             -0.0063 electrons
 Pt Chg Dipole moment (Debye):
    X=             13.1100    Y=            -12.2826    Z=             17.0105  Tot=             24.7405
 Pt Chg Quadrupole moment (Debye-Ang):
   XX=            170.5932   YY=            317.1547   ZZ=           -287.2763
   XY=           -245.4671   XZ=              6.5570   YZ=            -88.4151
 Pt Chg Traceless Quadrupole moment (Debye-Ang):
   XX=            103.7694   YY=            250.3308   ZZ=           -354.1002
   XY=           -245.4671   XZ=              6.5570   YZ=            -88.4151
 Pt Chg Octapole moment (Debye-Ang**2):
  XXX=           1688.2978  YYY=          -6451.0532  ZZZ=           3344.4499  XYY=           4255.1162
  XXY=          -2767.5850  XXZ=           -431.5212  XZZ=           -947.2825  YZZ=           2366.5221
  YYZ=           -220.4084  XYZ=            755.2909
 Pt Chg Hexadecapole moment (Debye-Ang**3):
 XXXX=          15140.5062 YYYY=         122530.1726 ZZZZ=         -24871.1947 XXXY=         -27243.8952
 XXXZ=          -4070.9732 YYYX=         -72894.3698 YYYZ=          20017.2565 ZZZX=          11893.0810
 ZZZY=         -29965.1932 XXYY=          44919.0113 XXZZ=          -4223.8890 YYZZ=         -19653.8736
 XXYZ=          12680.7838 YYXZ=         -19144.2499 ZZXY=           2752.2618
 Leave Link  101 at Fri May 15 22:35:25 2020, MaxMem=   134217728 cpu:               0.5 elap:               0.1
 (Enter /home/soft/g16/l202.exe)
                          Input orientation:                          
 ---------------------------------------------------------------------
 Center     Atomic      Atomic             Coordinates (Angstroms)
 Number     Number       Type             X           Y           Z
 ---------------------------------------------------------------------
      1          8           0       10.706017  -10.848862  -10.091512
      2          8           0       13.457564  -11.773284   -9.774029
      3          8           0       11.471495  -15.355316   -7.518016
      4          8           0       12.813764  -13.018467   -7.366324
      5          1           0       11.521407  -11.320280   -9.920812
      6          1           0       10.567797  -10.316883   -9.307849
      7          1           0       13.908886  -10.996207  -10.103715
      8          1           0       14.150775  -12.423635   -9.661183
      9          1           0       10.864403  -15.355750   -8.258065
     10          1           0       11.907538  -14.504542   -7.565812
     11          1           0       12.481900  -12.417138   -6.699613
     12          1           0       12.655150  -12.568166   -8.195965
 ---------------------------------------------------------------------
                    Distance matrix (angstroms):
                    1          2          3          4          5
     1  O    0.000000
     2  O    2.919994   0.000000
     3  O    5.245662   4.676004   0.000000
     4  O    4.071417   2.786037   2.699178   0.000000
     5  H    0.957201   1.993856   4.696534   3.328578   0.000000
     6  H    0.957201   3.269431   5.422728   4.014031   1.513903
     7  H    3.206280   0.957201   5.623926   3.575211   2.416306
     8  H    3.812014   0.957200   4.512921   2.721728   2.863281
     9  H    4.868126   4.675114   0.957201   3.171451   4.413774
    10  H    4.602913   3.839085   0.957201   1.751987   3.979277
    11  H    4.137418   3.289149   3.213035   0.957201   3.535784
    12  H    3.216866   1.940616   3.103040   0.957201   2.411989
                    6          7          8          9         10
     6  H    0.000000
     7  H    3.501108   0.000000
     8  H    4.171448   1.513901   0.000000
     9  H    5.155599   5.628580   4.622367   0.000000
    10  H    4.729280   4.770195   3.708486   1.513902   0.000000
    11  H    3.857169   3.955154   3.399424   3.698717   2.331834
    12  H    3.265211   2.771718   2.098725   3.313798   2.169232
                   11         12
    11  H    0.000000
    12  H    1.513900   0.000000
 Symmetry turned off by external request.
 Stoichiometry    H8O4
 Framework group  C1[X(H8O4)]
 Deg. of freedom    30
 Full point group                 C1      NOp   1
 Rotational constants (GHZ):           4.4511853           1.6130163           1.3394626
 Leave Link  202 at Fri May 15 22:35:25 2020, MaxMem=   134217728 cpu:               0.1 elap:               0.0
 (Enter /home/soft/g16/l301.exe)
 Standard basis: 6-31G(d,p) (5D, 7F)
 Ernie: Thresh=  0.10000D-02 Tol=  0.10000D-05 Strict=F.
    96 basis functions,   168 primitive gaussians,   100 cartesian basis functions
    20 alpha electrons       20 beta electrons
       nuclear repulsion energy       129.2111447476 Hartrees.
 IExCor=    0 DFT=F Ex=HF Corr=None ExCW=0 ScaHFX=  1.000000
 ScaDFX=  1.000000  1.000000  1.000000  1.000000 ScalE2=  1.000000  1.000000
 IRadAn=      5 IRanWt=     -1 IRanGd=            0 ICorTp=0 IEmpDi=  4
 NAtoms=   12 NActive=   12 NUniq=   12 SFac= 1.00D+00 NAtFMM=   60 NAOKFM=F Big=F
 Integral buffers will be    131072 words long.
 Raffenetti 1 integral format.
 Two-electron integral symmetry is turned off.
 Background charge distribution read from rwf.
 PtFMM for NChg=        96 BoxLen=    40.00 Levels= 1 LMax=20 SMax=    22.2 ICnFMM=     1:
 Self energy of the charges =       -13.6145392068 a.u.
 MM   energy of the charges =         0.0000000000 a.u.
 Nuclei-charges interaction =         1.6062122066 a.u.
 Nuclear repulsion after external point charges =      117.2028177474 Hartrees.
 Leave Link  301 at Fri May 15 22:35:25 2020, MaxMem=   134217728 cpu:               0.2 elap:               0.1
 (Enter /home/soft/g16/l302.exe)
 NPDir=0 NMtPBC=     1 NCelOv=     1 NCel=       1 NClECP=     1 NCelD=      1
         NCelK=      1 NCelE2=     1 NClLst=     1 CellRange=     0.0.
 One-electron integrals computed using PRISM.
 NBasis=    96 RedAO= T EigKep=  2.13D-02  NBF=    96
 NBsUse=    96 1.00D-06 EigRej= -1.00D+00 NBFU=    96
 Leave Link  302 at Fri May 15 22:35:25 2020, MaxMem=   134217728 cpu:               0.5 elap:               0.2
 (Enter /home/soft/g16/l303.exe)
 DipDrv:  MaxL=1.
 Leave Link  303 at Fri May 15 22:35:25 2020, MaxMem=   134217728 cpu:               0.1 elap:               0.0
 (Enter /home/soft/g16/l401.exe)
 ExpMin= 1.61D-01 ExpMax= 5.48D+03 ExpMxC= 8.25D+02 IAcc=3 IRadAn=         5 AccDes= 0.00D+00
 Harris functional with IExCor=  205 and IRadAn=       5 diagonalized for initial guess.
 HarFok:  IExCor=  205 AccDes= 0.00D+00 IRadAn=         5 IDoV= 1 UseB2=F ITyADJ=14
 ICtDFT=  3500011 ScaDFX=  1.000000  1.000000  1.000000  1.000000
 FoFCou: FMM=F IPFlag=           0 FMFlag=      100000 FMFlg1=           0
         NFxFlg=           0 DoJE=T BraDBF=F KetDBF=T FulRan=T
         wScrn=  0.000000 ICntrl=       500 IOpCl=  0 I1Cent=   200000004 NGrid=           0
         NMat0=    1 NMatS0=      1 NMatT0=    0 NMatD0=    1 NMtDS0=    0 NMtDT0=    0
 Symmetry not used in FoFCou.
 Harris En= -318.119523901336    
 JPrj=0 DoOrth=F DoCkMO=F.
 Leave Link  401 at Fri May 15 22:35:26 2020, MaxMem=   134217728 cpu:               1.8 elap:               0.5
 (Enter /home/soft/g16/l502.exe)
 Keep R1 ints in memory in canonical form, NReq=11711665.
 FoFCou: FMM=F IPFlag=           0 FMFlag=           0 FMFlg1=           0
         NFxFlg=           0 DoJE=F BraDBF=F KetDBF=F FulRan=T
         wScrn=  0.000000 ICntrl=       600 IOpCl=  0 I1Cent=           0 NGrid=           0
         NMat0=    1 NMatS0=   4656 NMatT0=    0 NMatD0=    1 NMtDS0=    0 NMtDT0=    0
 Symmetry not used in FoFCou.
 Two-electron integral symmetry not used.
 Closed shell SCF:
 Using DIIS extrapolation, IDIIS=  1040.
 NGot=   134217728 LenX=   123354636 LenY=   123344195
 Requested convergence on RMS density matrix=1.00D-08 within 128 cycles.
 Requested convergence on MAX density matrix=1.00D-06.
 Requested convergence on             energy=1.00D-06.
 No special actions if energy rises.

 Cycle   1  Pass 1  IDiag  1:
 E= -317.454719076697    
 DIIS: error= 4.89D-02 at cycle   1 NSaved=   1.
 NSaved= 1 IEnMin= 1 EnMin= -317.454719076697     IErMin= 1 ErrMin= 4.89D-02
 ErrMax= 4.89D-02  0.00D+00 EMaxC= 1.00D-01 BMatC= 4.53D-01 BMatP= 4.53D-01
 IDIUse=3 WtCom= 5.11D-01 WtEn= 4.89D-01
 Coeff-Com:  0.100D+01
 Coeff-En:   0.100D+01
 Coeff:      0.100D+01
 Gap=     0.629 Goal=   None    Shift=    0.000
 GapD=    0.629 DampG=2.000 DampE=0.500 DampFc=1.0000 IDamp=-1.
 RMSDP=5.71D-03 MaxDP=1.26D-01              OVMax= 1.19D-01

 Cycle   2  Pass 1  IDiag  1:
 E= -317.665351043742     Delta-E=       -0.210631967044 Rises=F Damp=F
 DIIS: error= 2.73D-02 at cycle   2 NSaved=   2.
 NSaved= 2 IEnMin= 2 EnMin= -317.665351043742     IErMin= 2 ErrMin= 2.73D-02
 ErrMax= 2.73D-02  0.00D+00 EMaxC= 1.00D-01 BMatC= 1.31D-01 BMatP= 4.53D-01
 IDIUse=3 WtCom= 7.27D-01 WtEn= 2.73D-01
 Coeff-Com:  0.337D+00 0.663D+00
 Coeff-En:   0.568D-01 0.943D+00
 Coeff:      0.260D+00 0.740D+00
 Gap=     0.630 Goal=   None    Shift=    0.000
 RMSDP=2.53D-03 MaxDP=4.86D-02 DE=-2.11D-01 OVMax= 4.68D-02

 Cycle   3  Pass 1  IDiag  1:
 E= -317.752497607118     Delta-E=       -0.087146563377 Rises=F Damp=F
 DIIS: error= 4.68D-03 at cycle   3 NSaved=   3.
 NSaved= 3 IEnMin= 3 EnMin= -317.752497607118     IErMin= 3 ErrMin= 4.68D-03
 ErrMax= 4.68D-03  0.00D+00 EMaxC= 1.00D-01 BMatC= 3.45D-03 BMatP= 1.31D-01
 IDIUse=3 WtCom= 9.53D-01 WtEn= 4.68D-02
 Coeff-Com: -0.327D-01 0.931D-01 0.940D+00
 Coeff-En:   0.000D+00 0.000D+00 0.100D+01
 Coeff:     -0.312D-01 0.887D-01 0.942D+00
 Gap=     0.618 Goal=   None    Shift=    0.000
 RMSDP=3.71D-04 MaxDP=8.03D-03 DE=-8.71D-02 OVMax= 8.66D-03

 Cycle   4  Pass 1  IDiag  1:
 E= -317.755187548859     Delta-E=       -0.002689941741 Rises=F Damp=F
 DIIS: error= 4.12D-04 at cycle   4 NSaved=   4.
 NSaved= 4 IEnMin= 4 EnMin= -317.755187548859     IErMin= 4 ErrMin= 4.12D-04
 ErrMax= 4.12D-04  0.00D+00 EMaxC= 1.00D-01 BMatC= 2.91D-05 BMatP= 3.45D-03
 IDIUse=3 WtCom= 9.96D-01 WtEn= 4.12D-03
 Coeff-Com:  0.757D-02-0.457D-01-0.320D+00 0.136D+01
 Coeff-En:   0.000D+00 0.000D+00 0.000D+00 0.100D+01
 Coeff:      0.754D-02-0.455D-01-0.319D+00 0.136D+01
 Gap=     0.621 Goal=   None    Shift=    0.000
 RMSDP=9.64D-05 MaxDP=1.41D-03 DE=-2.69D-03 OVMax= 2.32D-03

 Cycle   5  Pass 1  IDiag  1:
 E= -317.755246102335     Delta-E=       -0.000058553476 Rises=F Damp=F
 DIIS: error= 9.02D-05 at cycle   5 NSaved=   5.
 NSaved= 5 IEnMin= 5 EnMin= -317.755246102335     IErMin= 5 ErrMin= 9.02D-05
 ErrMax= 9.02D-05  0.00D+00 EMaxC= 1.00D-01 BMatC= 1.02D-06 BMatP= 2.91D-05
 IDIUse=1 WtCom= 1.00D+00 WtEn= 0.00D+00
 Coeff-Com:  0.110D-02-0.357D-02-0.295D-01-0.849D-02 0.104D+01
 Coeff:      0.110D-02-0.357D-02-0.295D-01-0.849D-02 0.104D+01
 Gap=     0.622 Goal=   None    Shift=    0.000
 RMSDP=1.74D-05 MaxDP=2.28D-04 DE=-5.86D-05 OVMax= 4.22D-04

 Cycle   6  Pass 1  IDiag  1:
 E= -317.755247986593     Delta-E=       -0.000001884257 Rises=F Damp=F
 DIIS: error= 3.86D-05 at cycle   6 NSaved=   6.
 NSaved= 6 IEnMin= 6 EnMin= -317.755247986593     IErMin= 6 ErrMin= 3.86D-05
 ErrMax= 3.86D-05  0.00D+00 EMaxC= 1.00D-01 BMatC= 1.41D-07 BMatP= 1.02D-06
 IDIUse=1 WtCom= 1.00D+00 WtEn= 0.00D+00
 Coeff-Com: -0.462D-03 0.350D-02 0.244D-01-0.133D+00 0.208D+00 0.897D+00
 Coeff:     -0.462D-03 0.350D-02 0.244D-01-0.133D+00 0.208D+00 0.897D+00
 Gap=     0.622 Goal=   None    Shift=    0.000
 RMSDP=5.39D-06 MaxDP=8.88D-05 DE=-1.88D-06 OVMax= 1.25D-04

 Cycle   7  Pass 1  IDiag  1:
 E= -317.755248175154     Delta-E=       -0.000000188561 Rises=F Damp=F
 DIIS: error= 5.78D-06 at cycle   7 NSaved=   7.
 NSaved= 7 IEnMin= 7 EnMin= -317.755248175154     IErMin= 7 ErrMin= 5.78D-06
 ErrMax= 5.78D-06  0.00D+00 EMaxC= 1.00D-01 BMatC= 5.58D-09 BMatP= 1.41D-07
 IDIUse=1 WtCom= 1.00D+00 WtEn= 0.00D+00
 Coeff-Com: -0.816D-04 0.296D-03 0.244D-02-0.130D-02-0.738D-01 0.231D-01
 Coeff-Com:  0.105D+01
 Coeff:     -0.816D-04 0.296D-03 0.244D-02-0.130D-02-0.738D-01 0.231D-01
 Coeff:      0.105D+01
 Gap=     0.622 Goal=   None    Shift=    0.000
 RMSDP=1.27D-06 MaxDP=2.06D-05 DE=-1.89D-07 OVMax= 3.22D-05

 Cycle   8  Pass 1  IDiag  1:
 E= -317.755248185060     Delta-E=       -0.000000009906 Rises=F Damp=F
 DIIS: error= 1.39D-06 at cycle   8 NSaved=   8.
 NSaved= 8 IEnMin= 8 EnMin= -317.755248185060     IErMin= 8 ErrMin= 1.39D-06
 ErrMax= 1.39D-06  0.00D+00 EMaxC= 1.00D-01 BMatC= 2.71D-10 BMatP= 5.58D-09
 IDIUse=1 WtCom= 1.00D+00 WtEn= 0.00D+00
 Coeff-Com:  0.431D-04-0.248D-03-0.186D-02 0.684D-02 0.117D-01-0.451D-01
 Coeff-Com: -0.307D+00 0.134D+01
 Coeff:      0.431D-04-0.248D-03-0.186D-02 0.684D-02 0.117D-01-0.451D-01
 Coeff:     -0.307D+00 0.134D+01
 Gap=     0.622 Goal=   None    Shift=    0.000
 RMSDP=3.12D-07 MaxDP=4.91D-06 DE=-9.91D-09 OVMax= 7.88D-06

 Cycle   9  Pass 1  IDiag  1:
 E= -317.755248185695     Delta-E=       -0.000000000635 Rises=F Damp=F
 DIIS: error= 2.62D-07 at cycle   9 NSaved=   9.
 NSaved= 9 IEnMin= 9 EnMin= -317.755248185695     IErMin= 9 ErrMin= 2.62D-07
 ErrMax= 2.62D-07  0.00D+00 EMaxC= 1.00D-01 BMatC= 1.08D-11 BMatP= 2.71D-10
 IDIUse=1 WtCom= 1.00D+00 WtEn= 0.00D+00
 Coeff-Com:  0.433D-05-0.184D-04-0.143D-03 0.177D-03 0.349D-02-0.160D-02
 Coeff-Com: -0.508D-01 0.469D-01 0.100D+01
 Coeff:      0.433D-05-0.184D-04-0.143D-03 0.177D-03 0.349D-02-0.160D-02
 Coeff:     -0.508D-01 0.469D-01 0.100D+01
 Gap=     0.622 Goal=   None    Shift=    0.000
 RMSDP=4.68D-08 MaxDP=1.05D-06 DE=-6.35D-10 OVMax= 1.26D-06

 Cycle  10  Pass 1  IDiag  1:
 E= -317.755248185711     Delta-E=       -0.000000000016 Rises=F Damp=F
 DIIS: error= 1.23D-07 at cycle  10 NSaved=  10.
 NSaved=10 IEnMin=10 EnMin= -317.755248185711     IErMin=10 ErrMin= 1.23D-07
 ErrMax= 1.23D-07  0.00D+00 EMaxC= 1.00D-01 BMatC= 1.73D-12 BMatP= 1.08D-11
 IDIUse=1 WtCom= 1.00D+00 WtEn= 0.00D+00
 Coeff-Com: -0.342D-05 0.213D-04 0.159D-03-0.675D-03-0.328D-03 0.418D-02
 Coeff-Com:  0.181D-01-0.121D+00 0.226D+00 0.873D+00
 Coeff:     -0.342D-05 0.213D-04 0.159D-03-0.675D-03-0.328D-03 0.418D-02
 Coeff:      0.181D-01-0.121D+00 0.226D+00 0.873D+00
 Gap=     0.622 Goal=   None    Shift=    0.000
 RMSDP=1.52D-08 MaxDP=2.67D-07 DE=-1.62D-11 OVMax= 4.02D-07

 Cycle  11  Pass 1  IDiag  1:
 E= -317.755248185713     Delta-E=       -0.000000000002 Rises=F Damp=F
 DIIS: error= 1.66D-08 at cycle  11 NSaved=  11.
 NSaved=11 IEnMin=11 EnMin= -317.755248185713     IErMin=11 ErrMin= 1.66D-08
 ErrMax= 1.66D-08  0.00D+00 EMaxC= 1.00D-01 BMatC= 7.40D-14 BMatP= 1.73D-12
 IDIUse=1 WtCom= 1.00D+00 WtEn= 0.00D+00
 Coeff-Com: -0.232D-06 0.827D-06 0.658D-05 0.442D-05-0.264D-03-0.122D-04
 Coeff-Com:  0.325D-02 0.162D-02-0.934D-01-0.424D-01 0.113D+01
 Coeff:     -0.232D-06 0.827D-06 0.658D-05 0.442D-05-0.264D-03-0.122D-04
 Coeff:      0.325D-02 0.162D-02-0.934D-01-0.424D-01 0.113D+01
 Gap=     0.622 Goal=   None    Shift=    0.000
 RMSDP=5.33D-09 MaxDP=7.40D-08 DE=-2.27D-12 OVMax= 1.29D-07

 SCF Done:  E(RHF) =  -317.755248186     A.U. after   11 cycles
            NFock= 11  Conv=0.53D-08     -V/T= 2.0463
 KE= 3.036967753765D+02 PE=-9.822511949581D+02 EE= 2.435963536485D+02
 Leave Link  502 at Fri May 15 22:35:26 2020, MaxMem=   134217728 cpu:               1.4 elap:               0.5
 (Enter /home/soft/g16/l601.exe)
 Copying SCF densities to generalized density rwf, IOpCl= 0 IROHF=0.

 **********************************************************************

            Population analysis using the SCF density.

 **********************************************************************

 Alpha  occ. eigenvalues --  -20.64714 -20.61708 -20.60499 -20.54633  -1.43269
 Alpha  occ. eigenvalues --   -1.40472  -1.38902  -1.33443  -0.80166  -0.76876
 Alpha  occ. eigenvalues --   -0.75184  -0.71587  -0.66967  -0.62818  -0.62142
 Alpha  occ. eigenvalues --   -0.58759  -0.57869  -0.54970  -0.53829  -0.49279
 Alpha virt. eigenvalues --    0.12884   0.18833   0.22127   0.23988   0.24528
 Alpha virt. eigenvalues --    0.30747   0.39135   0.44684   0.91793   0.95852
 Alpha virt. eigenvalues --    0.97496   1.00533   1.01574   1.02735   1.05198
 Alpha virt. eigenvalues --    1.07540   1.09839   1.11396   1.13167   1.14423
 Alpha virt. eigenvalues --    1.18824   1.20674   1.24900   1.28619   1.29244
 Alpha virt. eigenvalues --    1.30515   1.34368   1.34635   1.50407   1.64559
 Alpha virt. eigenvalues --    1.66988   1.71562   1.73813   1.74616   1.76745
 Alpha virt. eigenvalues --    1.77311   1.78684   1.82180   1.84198   1.86554
 Alpha virt. eigenvalues --    1.89463   1.93056   1.96295   2.00330   2.46928
 Alpha virt. eigenvalues --    2.49192   2.53012   2.54131   2.56529   2.60147
 Alpha virt. eigenvalues --    2.61883   2.71614   2.72537   2.77563   2.79362
 Alpha virt. eigenvalues --    2.86694   2.89340   2.91207   2.94175   2.96134
 Alpha virt. eigenvalues --    2.97787   2.98723   3.03888   3.05523   3.30594
 Alpha virt. eigenvalues --    3.33742   3.35749   3.40058   3.68505   3.72684
 Alpha virt. eigenvalues --    3.74710   3.79658   3.87464   3.91779   3.98277
 Alpha virt. eigenvalues --    4.00074
          Condensed to atoms (all electrons):
               1          2          3          4          5          6
     1  O    8.167483  -0.006696   0.000000  -0.000102   0.315129   0.317009
     2  O   -0.006696   8.065786  -0.000003  -0.010998   0.015310   0.000415
     3  O    0.000000  -0.000003   8.163210  -0.022424  -0.000001   0.000000
     4  O   -0.000102  -0.010998  -0.022424   8.103518   0.000149  -0.000006
     5  H    0.315129   0.015310  -0.000001   0.000149   0.291161  -0.024439
     6  H    0.317009   0.000415   0.000000  -0.000006  -0.024439   0.329608
     7  H    0.000882   0.312443   0.000000   0.000411  -0.001817   0.000004
     8  H    0.000237   0.310044   0.000000   0.002936  -0.000474  -0.000015
     9  H    0.000001  -0.000000   0.311408   0.001110   0.000002  -0.000000
    10  H   -0.000006   0.000011   0.306005   0.028085  -0.000011  -0.000002
    11  H   -0.000017   0.000597   0.001002   0.311763   0.000051   0.000008
    12  H    0.001181   0.016021   0.001035   0.295834   0.001987   0.000221
               7          8          9         10         11         12
     1  O    0.000882   0.000237   0.000001  -0.000006  -0.000017   0.001181
     2  O    0.312443   0.310044  -0.000000   0.000011   0.000597   0.016021
     3  O    0.000000   0.000000   0.311408   0.306005   0.001002   0.001035
     4  O    0.000411   0.002936   0.001110   0.028085   0.311763   0.295834
     5  H   -0.001817  -0.000474   0.000002  -0.000011   0.000051   0.001987
     6  H    0.000004  -0.000015  -0.000000  -0.000002   0.000008   0.000221
     7  H    0.337656  -0.019381  -0.000000  -0.000001  -0.000023  -0.000524
     8  H   -0.019381   0.342759  -0.000002   0.000037  -0.000085  -0.005019
     9  H   -0.000000  -0.000002   0.380845  -0.025638  -0.000036   0.000115
    10  H   -0.000001   0.000037  -0.025638   0.304140  -0.002190  -0.001844
    11  H   -0.000023  -0.000085  -0.000036  -0.002190   0.362175  -0.020631
    12  H   -0.000524  -0.005019   0.000115  -0.001844  -0.020631   0.333531
 Mulliken charges:
               1
     1  O   -0.795101
     2  O   -0.702931
     3  O   -0.760232
     4  O   -0.710278
     5  H    0.402952
     6  H    0.377196
     7  H    0.370350
     8  H    0.368961
     9  H    0.332195
    10  H    0.391414
    11  H    0.347384
    12  H    0.378091
 Sum of Mulliken charges =  -0.00000
 Mulliken charges with hydrogens summed into heavy atoms:
               1
     1  O   -0.014953
     2  O    0.036380
     3  O   -0.036624
     4  O    0.015197
 Electronic spatial extent (au):  <R**2>=          55757.9570
 Charge=             -0.0000 electrons
 Dipole moment (field-independent basis, Debye):
    X=              3.3161    Y=              4.6407    Z=             -0.4672  Tot=              5.7229
 Quadrupole moment (field-independent basis, Debye-Ang):
   XX=             58.3679   YY=           -149.9186   ZZ=            -22.9787
   XY=             19.3629   XZ=            -42.8770   YZ=            -22.1114
 Traceless Quadrupole moment (field-independent basis, Debye-Ang):
   XX=             96.5444   YY=           -111.7421   ZZ=             15.1978
   XY=             19.3629   XZ=            -42.8770   YZ=            -22.1114
 Octapole moment (field-independent basis, Debye-Ang**2):
  XXX=            681.4314  YYY=           3512.4279  ZZZ=            715.2046  XYY=          -1409.2014
  XXY=             69.4720  XXZ=           -784.3632  XZZ=            133.8936  YZZ=            437.0431
  YYZ=            898.1991  XYZ=            140.9489
 Hexadecapole moment (field-independent basis, Debye-Ang**3):
 XXXX=           5033.0857 YYYY=         -71902.2151 ZZZZ=         -13481.2800 XXXY=           2014.4806
 XXXZ=         -10683.1390 YYYX=          38087.3113 YYYZ=         -22760.5204 ZZZX=           4146.0757
 ZZZY=          -9391.5229 XXYY=         -15832.7550 XXZZ=           4957.0554 YYZZ=          -9680.1781
 XXYZ=           4331.0333 YYXZ=           6434.0296 ZZXY=            787.8008
 N-N= 1.172028177474D+02 E-N=-9.822511947818D+02  KE= 3.036967753765D+02
 No NMR shielding tensors so no spin-rotation constants.
 Leave Link  601 at Fri May 15 22:35:26 2020, MaxMem=   134217728 cpu:               0.3 elap:               0.1
 (Enter /home/soft/g16/l607.exe)
 ******************************Gaussian NBO Version 3.1******************************
             N A T U R A L   A T O M I C   O R B I T A L   A N D
          N A T U R A L   B O N D   O R B I T A L   A N A L Y S I S
 ******************************Gaussian NBO Version 3.1******************************
       /RESON  / : Allow strongly delocalized NBO set

 Analyzing the SCF density

 Job title: Atom number=12                                                  

 Storage needed:     28188 in NPA ( 134216936 available)
 GSVD:  LWork=        4224 too small for GESVD, short by        5328 words or        5328 for optimal perf.


 NATURAL POPULATIONS:  Natural atomic orbital occupancies 
                                                          
   NAO  Atom  No  lang   Type(AO)    Occupancy      Energy
 ----------------------------------------------------------
     1    O    1  S      Cor( 1S)     1.99985     -20.43522
     2    O    1  S      Val( 2S)     1.75076      -1.21153
     3    O    1  S      Ryd( 3S)     0.00068       1.85900
     4    O    1  px     Val( 2p)     1.74450      -0.47237
     5    O    1  px     Ryd( 3p)     0.00122       1.17949
     6    O    1  py     Val( 2p)     1.78423      -0.47534
     7    O    1  py     Ryd( 3p)     0.00124       1.20383
     8    O    1  pz     Val( 2p)     1.75789      -0.47354
     9    O    1  pz     Ryd( 3p)     0.00067       1.17158
    10    O    1  dxy    Ryd( 3d)     0.00070       2.59961
    11    O    1  dxz    Ryd( 3d)     0.00120       2.37214
    12    O    1  dyz    Ryd( 3d)     0.00133       2.64041
    13    O    1  dx2y2  Ryd( 3d)     0.00051       2.39949
    14    O    1  dz2    Ryd( 3d)     0.00163       2.55811

    15    O    2  S      Cor( 1S)     1.99986     -20.48652
    16    O    2  S      Val( 2S)     1.75188      -1.24707
    17    O    2  S      Ryd( 3S)     0.00116       1.62004
    18    O    2  px     Val( 2p)     1.74558      -0.51248
    19    O    2  px     Ryd( 3p)     0.00058       1.32970
    20    O    2  py     Val( 2p)     1.55936      -0.44113
    21    O    2  py     Ryd( 3p)     0.00165       1.25528
    22    O    2  pz     Val( 2p)     1.94276      -0.56637
    23    O    2  pz     Ryd( 3p)     0.00053       1.19599
    24    O    2  dxy    Ryd( 3d)     0.00167       3.02566
    25    O    2  dxz    Ryd( 3d)     0.00139       2.22263
    26    O    2  dyz    Ryd( 3d)     0.00025       2.35865
    27    O    2  dx2y2  Ryd( 3d)     0.00082       2.40259
    28    O    2  dz2    Ryd( 3d)     0.00095       2.39518

    29    O    3  S      Cor( 1S)     1.99984     -20.36974
    30    O    3  S      Val( 2S)     1.74552      -1.15120
    31    O    3  S      Ryd( 3S)     0.00080       1.95809
    32    O    3  px     Val( 2p)     1.75048      -0.40488
    33    O    3  px     Ryd( 3p)     0.00150       1.25758
    34    O    3  py     Val( 2p)     1.74627      -0.41687
    35    O    3  py     Ryd( 3p)     0.00099       1.24210
    36    O    3  pz     Val( 2p)     1.76607      -0.41505
    37    O    3  pz     Ryd( 3p)     0.00090       1.22574
    38    O    3  dxy    Ryd( 3d)     0.00108       2.64346
    39    O    3  dxz    Ryd( 3d)     0.00125       2.74635
    40    O    3  dyz    Ryd( 3d)     0.00154       2.36216
    41    O    3  dx2y2  Ryd( 3d)     0.00109       2.56738
    42    O    3  dz2    Ryd( 3d)     0.00146       2.55509

    43    O    4  S      Cor( 1S)     1.99985     -20.44566
    44    O    4  S      Val( 2S)     1.74661      -1.22072
    45    O    4  S      Ryd( 3S)     0.00102       1.82990
    46    O    4  px     Val( 2p)     1.93971      -0.54059
    47    O    4  px     Ryd( 3p)     0.00074       1.15384
    48    O    4  py     Val( 2p)     1.77921      -0.49234
    49    O    4  py     Ryd( 3p)     0.00073       1.31138
    50    O    4  pz     Val( 2p)     1.52035      -0.40074
    51    O    4  pz     Ryd( 3p)     0.00227       1.27279
    52    O    4  dxy    Ryd( 3d)     0.00187       2.36028
    53    O    4  dxz    Ryd( 3d)     0.00054       2.39405
    54    O    4  dyz    Ryd( 3d)     0.00143       2.97155
    55    O    4  dx2y2  Ryd( 3d)     0.00170       2.24780
    56    O    4  dz2    Ryd( 3d)     0.00038       2.61435

    57    H    5  S      Val( 1S)     0.47271       0.33512
    58    H    5  S      Ryd( 2S)     0.00091       0.82405
    59    H    5  px     Ryd( 2p)     0.00140       3.19160
    60    H    5  py     Ryd( 2p)     0.00084       2.79552
    61    H    5  pz     Ryd( 2p)     0.00064       2.63649

    62    H    6  S      Val( 1S)     0.48393       0.31832
    63    H    6  S      Ryd( 2S)     0.00053       0.68837
    64    H    6  px     Ryd( 2p)     0.00055       2.61391
    65    H    6  py     Ryd( 2p)     0.00106       2.81353
    66    H    6  pz     Ryd( 2p)     0.00148       3.10164

    67    H    7  S      Val( 1S)     0.47939       0.28212
    68    H    7  S      Ryd( 2S)     0.00092       0.65050
    69    H    7  px     Ryd( 2p)     0.00080       2.76876
    70    H    7  py     Ryd( 2p)     0.00123       3.09467
    71    H    7  pz     Ryd( 2p)     0.00097       2.61751

    72    H    8  S      Val( 1S)     0.48102       0.27672
    73    H    8  S      Ryd( 2S)     0.00113       0.68086
    74    H    8  px     Ryd( 2p)     0.00118       2.96774
    75    H    8  py     Ryd( 2p)     0.00100       2.94863
    76    H    8  pz     Ryd( 2p)     0.00083       2.54164

    77    H    9  S      Val( 1S)     0.51865       0.32058
    78    H    9  S      Ryd( 2S)     0.00091       0.73847
    79    H    9  px     Ryd( 2p)     0.00113       2.92418
    80    H    9  py     Ryd( 2p)     0.00069       2.64552
    81    H    9  pz     Ryd( 2p)     0.00140       3.07376

    82    H   10  S      Val( 1S)     0.48169       0.37134
    83    H   10  S      Ryd( 2S)     0.00109       0.84880
    84    H   10  px     Ryd( 2p)     0.00099       2.82793
    85    H   10  py     Ryd( 2p)     0.00151       3.28996
    86    H   10  pz     Ryd( 2p)     0.00070       2.67554

    87    H   11  S      Val( 1S)     0.49869       0.27898
    88    H   11  S      Ryd( 2S)     0.00084       0.67791
    89    H   11  px     Ryd( 2p)     0.00095       2.65035
    90    H   11  py     Ryd( 2p)     0.00110       2.87978
    91    H   11  pz     Ryd( 2p)     0.00108       2.97299

    92    H   12  S      Val( 1S)     0.48127       0.30656
    93    H   12  S      Ryd( 2S)     0.00173       0.85768
    94    H   12  px     Ryd( 2p)     0.00080       2.65648
    95    H   12  py     Ryd( 2p)     0.00090       2.78123
    96    H   12  pz     Ryd( 2p)     0.00135       3.23626


 Summary of Natural Population Analysis:                  
                                                          
                                       Natural Population 
                Natural  -----------------------------------------------
    Atom  No    Charge         Core      Valence    Rydberg      Total
 -----------------------------------------------------------------------
      O    1   -1.04640      1.99985     7.03738    0.00917     9.04640
      O    2   -1.00844      1.99986     6.99959    0.00899     9.00844
      O    3   -1.01880      1.99984     7.00834    0.01062     9.01880
      O    4   -0.99640      1.99985     6.98587    0.01067     8.99640
      H    5    0.52350      0.00000     0.47271    0.00379     0.47650
      H    6    0.51245      0.00000     0.48393    0.00362     0.48755
      H    7    0.51669      0.00000     0.47939    0.00392     0.48331
      H    8    0.51484      0.00000     0.48102    0.00414     0.48516
      H    9    0.47722      0.00000     0.51865    0.00414     0.52278
      H   10    0.51403      0.00000     0.48169    0.00429     0.48597
      H   11    0.49736      0.00000     0.49869    0.00396     0.50264
      H   12    0.51394      0.00000     0.48127    0.00479     0.48606
 =======================================================================
   * Total *   -0.00000      7.99939    31.92852    0.07209    40.00000

                                 Natural Population      
 --------------------------------------------------------
   Core                       7.99939 ( 99.9924% of   8)
   Valence                   31.92852 ( 99.7766% of  32)
   Natural Minimal Basis     39.92791 ( 99.8198% of  40)
   Natural Rydberg Basis      0.07209 (  0.1802% of  40)
 --------------------------------------------------------

    Atom  No          Natural Electron Configuration
 ----------------------------------------------------------------------------
      O    1      [core]2S( 1.75)2p( 5.29)3d( 0.01)
      O    2      [core]2S( 1.75)2p( 5.25)3d( 0.01)
      O    3      [core]2S( 1.75)2p( 5.26)3d( 0.01)
      O    4      [core]2S( 1.75)2p( 5.24)3d( 0.01)
      H    5            1S( 0.47)
      H    6            1S( 0.48)
      H    7            1S( 0.48)
      H    8            1S( 0.48)
      H    9            1S( 0.52)
      H   10            1S( 0.48)
      H   11            1S( 0.50)
      H   12            1S( 0.48)


 NBO analysis skipped by request.
 Leave Link  607 at Fri May 15 22:35:27 2020, MaxMem=   134217728 cpu:               0.6 elap:               0.2
 (Enter /home/soft/g16/l9999.exe)

 Test job not archived.
 1\1\GINC-MASTER\SP\RHF\6-31G(d,p)\H8O4\LIWEI01\15-May-2020\0\\#p hf/6-
 31g** 5d 7f pop=npa charge nosymm\\Atom number=12\\0,1\O,0,10.706017,-
 10.848862,-10.091512\O,0,13.457564,-11.773284,-9.774029\O,0,11.471495,
 -15.355316,-7.518016\O,0,12.813764,-13.018467,-7.366324\H,0,11.521407,
 -11.32028,-9.920812\H,0,10.567797,-10.316883,-9.307849\H,0,13.908886,-
 10.996207,-10.103715\H,0,14.150775,-12.423635,-9.661183\H,0,10.864403,
 -15.35575,-8.258065\H,0,11.907538,-14.504542,-7.565812\H,0,12.4819,-12
 .417138,-6.699613\H,0,12.65515,-12.568166,-8.195965\\Version=ES64L-G16
 RevA.03\HF=-317.7552482\RMSD=5.328e-09\Dipole=1.3046728,1.8257974,-0.1
 838289\Quadrupole=71.7783629,-83.0775306,11.2991677,14.3958509,-31.877
 9691,-16.4392482\PG=C01 [X(H8O4)]\\@


 CHARLIE BROWN.."I CAN'T GET THAT STUPID KITE IN THE
 AIR... I CAN'T... I C A N N O T..."
 LUCY.."OH COME NOW CHARLIE BROWN...THAT'S NO WAY TO TALK...
 THE TROUBLE WITH YOU IS YOU DON'T BELIEVE IN YOURSELF... YOU
 DON'T BELIEVE IN YOUR OWN ABILITIES...  YOU'VE GOT TO SAY TO
 YOURSELF...'I BELIEVE I CAN FLY THIS KITE.'... GO AHEAD SAY
 IT...."
 CHARLIE BROWN.."I BELIEVE THAT I CAN FLY THIS STUPID
 KITE.....I BELIEVE THAT I CAN FLY THIS KITE........
 I  A C T U A L L Y  B E L I E V E  T H A T  I  C A N ******"
 LUCY.."I'LL BET YOU TEN-TO-ONE YOU'RE WRONG......."    SCHULZ
 Job cpu time:       0 days  0 hours  0 minutes  6.0 seconds.
 Elapsed time:       0 days  0 hours  0 minutes  1.8 seconds.
 File lengths (MBytes):  RWF=     72 Int=      0 D2E=      0 Chk=      8 Scr=      8
 Normal termination of Gaussian 16 at Fri May 15 22:35:27 2020.
