Atom number=12                                                          
SP        RHF                                                         6-31G(d,p)          
Number of atoms                            I               12
Info1-9                                    I   N=           9
         107         106           0           0           0         111
           1           1           2
Full Title                                 C   N=           2
Atom number=12          
Route                                      C   N=           4
#p hf/6-31g** 5d 7f pop=npa charge nosymm       
Charge                                     I                0
Multiplicity                               I                1
Number of electrons                        I               40
Number of alpha electrons                  I               20
Number of beta electrons                   I               20
Number of basis functions                  I               96
Number of independent functions            I               96
Number of point charges in /Mol/           I                0
Number of translation vectors              I                0
Atomic numbers                             I   N=          12
           8           8           8           8           1           1
           1           1           1           1           1           1
Nuclear charges                            R   N=          12
  8.00000000E+00  8.00000000E+00  8.00000000E+00  8.00000000E+00  1.00000000E+00
  1.00000000E+00  1.00000000E+00  1.00000000E+00  1.00000000E+00  1.00000000E+00
  1.00000000E+00  1.00000000E+00
Current cartesian coordinates              R   N=          36
  1.37010511E+01 -1.86319947E+01 -2.47619431E+01  7.63287216E+00 -2.12107811E+01
 -2.41968281E+01  1.00906745E+01 -2.11880666E+01 -2.92426009E+01  8.77070649E+00
 -1.53791165E+01 -2.39449937E+01  1.34560972E+01 -1.93157846E+01 -2.64185526E+01
  1.38733941E+01 -2.00816358E+01 -2.36938794E+01  8.55071592E+00 -2.27666815E+01
 -2.41037950E+01  8.37549106E+00 -2.03288025E+01 -2.55905880E+01  1.11117370E+01
 -1.97640295E+01 -2.96914619E+01  1.03737593E+01 -2.23851288E+01 -3.05688107E+01
  8.68859978E+00 -1.37421677E+01 -2.31797548E+01  1.05380540E+01 -1.57573055E+01
 -2.40183567E+01
Number of symbols in /Mol/                 I                0
Force Field                                I                0
Atom Types                                 C   N=          12
                                                            
                                                            
                        
Int Atom Types                             I   N=          12
           0           0           0           0           0           0
           0           0           0           0           0           0
MM charges                                 R   N=          12
  0.00000000E+00  0.00000000E+00  0.00000000E+00  0.00000000E+00  0.00000000E+00
  0.00000000E+00  0.00000000E+00  0.00000000E+00  0.00000000E+00  0.00000000E+00
  0.00000000E+00  0.00000000E+00
Integer atomic weights                     I   N=          12
          16          16          16          16           1           1
           1           1           1           1           1           1
Real atomic weights                        R   N=          12
  1.59949146E+01  1.59949146E+01  1.59949146E+01  1.59949146E+01  1.00782504E+00
  1.00782504E+00  1.00782504E+00  1.00782504E+00  1.00782504E+00  1.00782504E+00
  1.00782504E+00  1.00782504E+00
Atom fragment info                         I   N=          12
           0           0           0           0           0           0
           0           0           0           0           0           0
Atom residue num                           I   N=          12
           0           0           0           0           0           0
           0           0           0           0           0           0
Nuclear spins                              I   N=          12
           0           0           0           0           1           1
           1           1           1           1           1           1
Nuclear ZEff                               R   N=          12
 -5.60000000E+00 -5.60000000E+00 -5.60000000E+00 -5.60000000E+00 -1.00000000E+00
 -1.00000000E+00 -1.00000000E+00 -1.00000000E+00 -1.00000000E+00 -1.00000000E+00
 -1.00000000E+00 -1.00000000E+00
Nuclear ZNuc                               R   N=          12
  8.00000000E+00  8.00000000E+00  8.00000000E+00  8.00000000E+00  1.00000000E+00
  1.00000000E+00  1.00000000E+00  1.00000000E+00  1.00000000E+00  1.00000000E+00
  1.00000000E+00  1.00000000E+00
Nuclear QMom                               R   N=          12
  0.00000000E+00  0.00000000E+00  0.00000000E+00  0.00000000E+00  0.00000000E+00
  0.00000000E+00  0.00000000E+00  0.00000000E+00  0.00000000E+00  0.00000000E+00
  0.00000000E+00  0.00000000E+00
Nuclear GFac                               R   N=          12
  0.00000000E+00  0.00000000E+00  0.00000000E+00  0.00000000E+00  2.79284600E+00
  2.79284600E+00  2.79284600E+00  2.79284600E+00  2.79284600E+00  2.79284600E+00
  2.79284600E+00  2.79284600E+00
MicOpt                                     I   N=          12
          -1          -1          -1          -1          -1          -1
          -1          -1          -1          -1          -1          -1
Number of residues                         I                0
Number of secondary structures             I                0
Number of contracted shells                I               40
Number of primitive shells                 I               84
Pure/Cartesian d shells                    I                0
Pure/Cartesian f shells                    I                0
Highest angular momentum                   I                2
Largest degree of contraction              I                6
Shell types                                I   N=          40
           0          -1          -1          -2           0          -1
          -1          -2           0          -1          -1          -2
           0          -1          -1          -2           0           0
           1           0           0           1           0           0
           1           0           0           1           0           0
           1           0           0           1           0           0
           1           0           0           1
Number of primitives per shell             I   N=          40
           6           3           1           1           6           3
           1           1           6           3           1           1
           6           3           1           1           3           1
           1           3           1           1           3           1
           1           3           1           1           3           1
           1           3           1           1           3           1
           1           3           1           1
Shell to atom map                          I   N=          40
           1           1           1           1           2           2
           2           2           3           3           3           3
           4           4           4           4           5           5
           5           6           6           6           7           7
           7           8           8           8           9           9
           9          10          10          10          11          11
          11          12          12          12
Primitive exponents                        R   N=          84
  5.48467166E+03  8.25234946E+02  1.88046958E+02  5.29645000E+01  1.68975704E+01
  5.79963534E+00  1.55396162E+01  3.59993359E+00  1.01376175E+00  2.70005823E-01
  8.00000000E-01  5.48467166E+03  8.25234946E+02  1.88046958E+02  5.29645000E+01
  1.68975704E+01  5.79963534E+00  1.55396162E+01  3.59993359E+00  1.01376175E+00
  2.70005823E-01  8.00000000E-01  5.48467166E+03  8.25234946E+02  1.88046958E+02
  5.29645000E+01  1.68975704E+01  5.79963534E+00  1.55396162E+01  3.59993359E+00
  1.01376175E+00  2.70005823E-01  8.00000000E-01  5.48467166E+03  8.25234946E+02
  1.88046958E+02  5.29645000E+01  1.68975704E+01  5.79963534E+00  1.55396162E+01
  3.59993359E+00  1.01376175E+00  2.70005823E-01  8.00000000E-01  1.87311370E+01
  2.82539436E+00  6.40121692E-01  1.61277759E-01  1.10000000E+00  1.87311370E+01
  2.82539436E+00  6.40121692E-01  1.61277759E-01  1.10000000E+00  1.87311370E+01
  2.82539436E+00  6.40121692E-01  1.61277759E-01  1.10000000E+00  1.87311370E+01
  2.82539436E+00  6.40121692E-01  1.61277759E-01  1.10000000E+00  1.87311370E+01
  2.82539436E+00  6.40121692E-01  1.61277759E-01  1.10000000E+00  1.87311370E+01
  2.82539436E+00  6.40121692E-01  1.61277759E-01  1.10000000E+00  1.87311370E+01
  2.82539436E+00  6.40121692E-01  1.61277759E-01  1.10000000E+00  1.87311370E+01
  2.82539436E+00  6.40121692E-01  1.61277759E-01  1.10000000E+00
Contraction coefficients                   R   N=          84
  1.83107443E-03  1.39501722E-02  6.84450781E-02  2.32714336E-01  4.70192898E-01
  3.58520853E-01 -1.10777550E-01 -1.48026263E-01  1.13076702E+00  1.00000000E+00
  1.00000000E+00  1.83107443E-03  1.39501722E-02  6.84450781E-02  2.32714336E-01
  4.70192898E-01  3.58520853E-01 -1.10777550E-01 -1.48026263E-01  1.13076702E+00
  1.00000000E+00  1.00000000E+00  1.83107443E-03  1.39501722E-02  6.84450781E-02
  2.32714336E-01  4.70192898E-01  3.58520853E-01 -1.10777550E-01 -1.48026263E-01
  1.13076702E+00  1.00000000E+00  1.00000000E+00  1.83107443E-03  1.39501722E-02
  6.84450781E-02  2.32714336E-01  4.70192898E-01  3.58520853E-01 -1.10777550E-01
 -1.48026263E-01  1.13076702E+00  1.00000000E+00  1.00000000E+00  3.34946043E-02
  2.34726953E-01  8.13757326E-01  1.00000000E+00  1.00000000E+00  3.34946043E-02
  2.34726953E-01  8.13757326E-01  1.00000000E+00  1.00000000E+00  3.34946043E-02
  2.34726953E-01  8.13757326E-01  1.00000000E+00  1.00000000E+00  3.34946043E-02
  2.34726953E-01  8.13757326E-01  1.00000000E+00  1.00000000E+00  3.34946043E-02
  2.34726953E-01  8.13757326E-01  1.00000000E+00  1.00000000E+00  3.34946043E-02
  2.34726953E-01  8.13757326E-01  1.00000000E+00  1.00000000E+00  3.34946043E-02
  2.34726953E-01  8.13757326E-01  1.00000000E+00  1.00000000E+00  3.34946043E-02
  2.34726953E-01  8.13757326E-01  1.00000000E+00  1.00000000E+00
P(S=P) Contraction coefficients            R   N=          84
  0.00000000E+00  0.00000000E+00  0.00000000E+00  0.00000000E+00  0.00000000E+00
  0.00000000E+00  7.08742682E-02  3.39752839E-01  7.27158577E-01  1.00000000E+00
  0.00000000E+00  0.00000000E+00  0.00000000E+00  0.00000000E+00  0.00000000E+00
  0.00000000E+00  0.00000000E+00  7.08742682E-02  3.39752839E-01  7.27158577E-01
  1.00000000E+00  0.00000000E+00  0.00000000E+00  0.00000000E+00  0.00000000E+00
  0.00000000E+00  0.00000000E+00  0.00000000E+00  7.08742682E-02  3.39752839E-01
  7.27158577E-01  1.00000000E+00  0.00000000E+00  0.00000000E+00  0.00000000E+00
  0.00000000E+00  0.00000000E+00  0.00000000E+00  0.00000000E+00  7.08742682E-02
  3.39752839E-01  7.27158577E-01  1.00000000E+00  0.00000000E+00  0.00000000E+00
  0.00000000E+00  0.00000000E+00  0.00000000E+00  0.00000000E+00  0.00000000E+00
  0.00000000E+00  0.00000000E+00  0.00000000E+00  0.00000000E+00  0.00000000E+00
  0.00000000E+00  0.00000000E+00  0.00000000E+00  0.00000000E+00  0.00000000E+00
  0.00000000E+00  0.00000000E+00  0.00000000E+00  0.00000000E+00  0.00000000E+00
  0.00000000E+00  0.00000000E+00  0.00000000E+00  0.00000000E+00  0.00000000E+00
  0.00000000E+00  0.00000000E+00  0.00000000E+00  0.00000000E+00  0.00000000E+00
  0.00000000E+00  0.00000000E+00  0.00000000E+00  0.00000000E+00  0.00000000E+00
  0.00000000E+00  0.00000000E+00  0.00000000E+00  0.00000000E+00
Coordinates of each shell                  R   N=         120
  1.37010511E+01 -1.86319947E+01 -2.47619431E+01  1.37010511E+01 -1.86319947E+01
 -2.47619431E+01  1.37010511E+01 -1.86319947E+01 -2.47619431E+01  1.37010511E+01
 -1.86319947E+01 -2.47619431E+01  7.63287216E+00 -2.12107811E+01 -2.41968281E+01
  7.63287216E+00 -2.12107811E+01 -2.41968281E+01  7.63287216E+00 -2.12107811E+01
 -2.41968281E+01  7.63287216E+00 -2.12107811E+01 -2.41968281E+01  1.00906745E+01
 -2.11880666E+01 -2.92426009E+01  1.00906745E+01 -2.11880666E+01 -2.92426009E+01
  1.00906745E+01 -2.11880666E+01 -2.92426009E+01  1.00906745E+01 -2.11880666E+01
 -2.92426009E+01  8.77070649E+00 -1.53791165E+01 -2.39449937E+01  8.77070649E+00
 -1.53791165E+01 -2.39449937E+01  8.77070649E+00 -1.53791165E+01 -2.39449937E+01
  8.77070649E+00 -1.53791165E+01 -2.39449937E+01  1.34560972E+01 -1.93157846E+01
 -2.64185526E+01  1.34560972E+01 -1.93157846E+01 -2.64185526E+01  1.34560972E+01
 -1.93157846E+01 -2.64185526E+01  1.38733941E+01 -2.00816358E+01 -2.36938794E+01
  1.38733941E+01 -2.00816358E+01 -2.36938794E+01  1.38733941E+01 -2.00816358E+01
 -2.36938794E+01  8.55071592E+00 -2.27666815E+01 -2.41037950E+01  8.55071592E+00
 -2.27666815E+01 -2.41037950E+01  8.55071592E+00 -2.27666815E+01 -2.41037950E+01
  8.37549106E+00 -2.03288025E+01 -2.55905880E+01  8.37549106E+00 -2.03288025E+01
 -2.55905880E+01  8.37549106E+00 -2.03288025E+01 -2.55905880E+01  1.11117370E+01
 -1.97640295E+01 -2.96914619E+01  1.11117370E+01 -1.97640295E+01 -2.96914619E+01
  1.11117370E+01 -1.97640295E+01 -2.96914619E+01  1.03737593E+01 -2.23851288E+01
 -3.05688107E+01  1.03737593E+01 -2.23851288E+01 -3.05688107E+01  1.03737593E+01
 -2.23851288E+01 -3.05688107E+01  8.68859978E+00 -1.37421677E+01 -2.31797548E+01
  8.68859978E+00 -1.37421677E+01 -2.31797548E+01  8.68859978E+00 -1.37421677E+01
 -2.31797548E+01  1.05380540E+01 -1.57573055E+01 -2.40183567E+01  1.05380540E+01
 -1.57573055E+01 -2.40183567E+01  1.05380540E+01 -1.57573055E+01 -2.40183567E+01
Num ILSW                                   I              100
ILSW                                       I   N=         100
           0           0           0           0           2           0
           0           0           0           0           0          -1
           5           0           0           0           0           0
           0           0           0           0           0           0
           1           1           0           0           0           0
           0           0      100000           0          -1           0
           0           0           0           0           0           0
           0           0           0           1           0           0
           0 -2000000000           1           0           0           0
           0           0           4          52           0           0
           0           1           0           0           0           0
           0           0           0          12           0           1
           0           0           0           0           0           0
           0           0           0           0           0           0
           0           0           0           0           0           0
           0           0           0           0           0           0
           0           0           0           0
Num RLSW                                   I               52
RLSW                                       R   N=          52
  1.00000000E+00  1.00000000E+00  1.00000000E+00  1.00000000E+00  1.00000000E+00
  0.00000000E+00  0.00000000E+00  1.00000000E+00  0.00000000E+00  0.00000000E+00
  0.00000000E+00  0.00000000E+00  1.00000000E+00  0.00000000E+00  0.00000000E+00
  0.00000000E+00  0.00000000E+00  1.00000000E+00  0.00000000E+00  0.00000000E+00
  0.00000000E+00  0.00000000E+00  1.00000000E+00  0.00000000E+00  0.00000000E+00
  0.00000000E+00  0.00000000E+00  1.00000000E+00  0.00000000E+00  0.00000000E+00
  0.00000000E+00  0.00000000E+00  1.00000000E+00  0.00000000E+00  0.00000000E+00
  0.00000000E+00  0.00000000E+00  0.00000000E+00  1.00000000E+00  1.00000000E+00
  0.00000000E+00  1.00000000E+00  0.00000000E+00  0.00000000E+00  0.00000000E+00
  0.00000000E+00  0.00000000E+00  0.00000000E+00  0.00000000E+00  0.00000000E+00
  0.00000000E+00  0.00000000E+00
MxBond                                     I                2
NBond                                      I   N=          12
           2           2           2           2           1           1
           1           1           1           1           1           1
IBond                                      I   N=          24
           5           6           7           8           9          10
          11          12           1           0           1           0
           2           0           2           0           3           0
           3           0           4           0           4           0
RBond                                      R   N=          24
  1.00000000E+00  1.00000000E+00  1.00000000E+00  1.00000000E+00  1.00000000E+00
  1.00000000E+00  1.00000000E+00  1.00000000E+00  1.00000000E+00  0.00000000E+00
  1.00000000E+00  0.00000000E+00  1.00000000E+00  0.00000000E+00  1.00000000E+00
  0.00000000E+00  1.00000000E+00  0.00000000E+00  1.00000000E+00  0.00000000E+00
  1.00000000E+00  0.00000000E+00  1.00000000E+00  0.00000000E+00
Virial Ratio                               R      2.046850942022496E+00
SCF Energy                                 R     -3.178392958019624E+02
Total Energy                               R     -3.178392958019624E+02
RMS Density                                R      7.201163500959625E-09
Job Status                                 I                1
Nuclear derivative order                   I                0
External E-field                           R   N=          35
  0.00000000E+00  0.00000000E+00  0.00000000E+00  0.00000000E+00  0.00000000E+00
  0.00000000E+00  0.00000000E+00  0.00000000E+00  0.00000000E+00  0.00000000E+00
  0.00000000E+00  0.00000000E+00  0.00000000E+00  0.00000000E+00  0.00000000E+00
  0.00000000E+00  0.00000000E+00  0.00000000E+00  0.00000000E+00  0.00000000E+00
  0.00000000E+00  0.00000000E+00  0.00000000E+00  0.00000000E+00  0.00000000E+00
  0.00000000E+00  0.00000000E+00  0.00000000E+00  0.00000000E+00  0.00000000E+00
  0.00000000E+00  0.00000000E+00  0.00000000E+00  0.00000000E+00  0.00000000E+00
IOpCl                                      I                0
IROHF                                      I                0
Alpha Orbital Energies                     R   N=          96
 -2.05398822E+01 -2.05262954E+01 -2.04830949E+01 -2.04572259E+01 -1.32232027E+00
 -1.30919661E+00 -1.26643145E+00 -1.24050126E+00 -6.88737823E-01 -6.69034148E-01
 -6.32724799E-01 -6.06753582E-01 -5.53921413E-01 -5.43017911E-01 -4.96159563E-01
 -4.79097343E-01 -4.70122037E-01 -4.65353759E-01 -4.24664550E-01 -3.97223190E-01
  2.20348794E-01  2.85326743E-01  3.11727448E-01  3.28359743E-01  3.59333174E-01
  4.20098891E-01  4.39730645E-01  4.55355146E-01  1.02365595E+00  1.04188926E+00
  1.05823370E+00  1.10335257E+00  1.11811833E+00  1.13563041E+00  1.15262153E+00
  1.17637947E+00  1.19509026E+00  1.20405648E+00  1.23745481E+00  1.23975297E+00
  1.27819133E+00  1.29877520E+00  1.33703444E+00  1.36577047E+00  1.37637499E+00
  1.40710378E+00  1.44423474E+00  1.47749791E+00  1.63362018E+00  1.64867069E+00
  1.74429857E+00  1.81121629E+00  1.84203347E+00  1.84829812E+00  1.87779838E+00
  1.88088644E+00  1.90478756E+00  1.91484405E+00  1.91683111E+00  1.94576512E+00
  1.98776867E+00  2.00247453E+00  2.02895566E+00  2.04776168E+00  2.59592659E+00
  2.60902373E+00  2.62241103E+00  2.63374181E+00  2.66072896E+00  2.69090239E+00
  2.69934375E+00  2.70597738E+00  2.84038180E+00  2.85374221E+00  2.88943097E+00
  2.92905244E+00  3.00096293E+00  3.00713679E+00  3.02587714E+00  3.04653351E+00
  3.05351963E+00  3.06912161E+00  3.08440196E+00  3.10139870E+00  3.40916853E+00
  3.42704715E+00  3.46550149E+00  3.49339810E+00  3.78607183E+00  3.82016777E+00
  3.85149055E+00  3.88177420E+00  3.96455657E+00  3.99709740E+00  4.04008752E+00
  4.07468720E+00
Alpha MO coefficients                      R   N=        9216
  3.75931308E-05  4.82735988E-05 -1.11405032E-05  1.88069131E-06 -1.35387465E-06
 -1.56183635E-04  5.73488384E-05  4.44164272E-05  1.39918767E-04 -2.81216476E-05
 -1.79545815E-05 -3.62553838E-05 -6.98477054E-07 -1.68442479E-05  3.46937327E-05
  1.60487235E-04 -9.37526178E-06  2.25740328E-05  1.17198625E-05 -6.62706043E-04
 -1.12028295E-04 -2.28114399E-04  2.53457244E-04 -4.78327122E-05  4.94406005E-05
  4.77426657E-05 -1.18814702E-05 -3.28122820E-05  9.95705523E-01  2.20212459E-02
  1.21963069E-03  2.37926483E-04 -1.62088920E-03 -5.92279087E-03 -4.60124140E-04
 -2.08028333E-04  4.95550081E-04 -5.81281124E-05 -1.46232838E-04  2.28093618E-04
 -2.67775760E-04  2.22842789E-04  5.05763468E-06  1.29969987E-06 -7.68345293E-06
 -2.21901704E-05 -1.31016287E-05  8.87200975E-05  3.49599123E-05  1.32313281E-04
  6.79498914E-05 -1.80802169E-06  2.91431430E-06  1.36890016E-05 -1.49611159E-05
  5.17079445E-06  4.33141372E-05  1.26986482E-04  4.40953580E-06  8.51945471E-06
  6.93088490E-05  3.96750373E-06 -4.87595168E-05 -5.29788260E-06 -1.57955713E-05
 -4.22904216E-06 -2.68399659E-05 -4.32045884E-05  8.92561310E-06  2.80701301E-06
 -3.80314614E-06  1.33861150E-05  8.50094387E-04 -4.03467152E-05 -1.00003848E-04
  6.19536160E-05 -4.98482466E-04  1.17987348E-03  6.70726451E-04  9.12483771E-04
 -3.16428430E-04 -6.16983961E-04  1.15301758E-03  2.19292077E-04 -7.62882992E-04
 -9.00822765E-04 -7.08485193E-05 -4.43196841E-05 -5.52108209E-06  2.26860183E-05
  9.06995328E-06  3.96851856E-05 -1.12800292E-04  7.68573846E-06 -1.76925217E-05
 -9.49349722E-06  9.95706030E-01  2.21315125E-02 -8.82152203E-05 -1.88415812E-03
 -4.78135487E-04 -6.30162976E-03  1.98698776E-04  7.67857120E-04  4.16686143E-04
  2.97301496E-04  1.17920524E-04 -1.52922263E-04 -2.53246874E-04 -6.50397341E-06
  1.66170704E-05  5.22683667E-05  5.05162039E-06  1.01400086E-05  4.62754920E-06
 -1.77390428E-04 -5.46788994E-05 -1.37115307E-04  1.03050134E-04 -1.86967204E-05
  2.20790189E-05  2.44759579E-05 -8.19398417E-06 -2.45014202E-05 -3.68678136E-05
  1.42250792E-05  3.33889912E-05 -4.02696318E-06  5.54638974E-05  1.84922220E-04
 -3.73345702E-05  3.74254375E-05 -2.54591852E-04  3.49292289E-06 -2.80171846E-05
  7.96557761E-06 -2.54181723E-05 -1.02848294E-05  8.34885906E-05  1.75951975E-04
  9.88413856E-06 -1.02103404E-05 -9.23314870E-06 -6.75607816E-04 -4.24160955E-04
  1.60523353E-04  5.88137358E-05  5.79026237E-05  9.45612610E-06 -7.60579254E-06
 -7.93677763E-05  4.71145520E-05 -4.70805818E-04  1.63390966E-03 -1.76055047E-04
 -4.39284221E-04 -9.64201206E-04 -5.31738805E-04  1.09925688E-03  8.65399802E-05
 -9.79845997E-04  6.56007350E-04  6.12857383E-06 -1.26452658E-04  1.42142653E-05
 -1.52589799E-05 -2.65979203E-06  2.09602873E-05  2.71235738E-04 -3.24838574E-05
 -3.82498346E-05  3.98342964E-05  9.86288651E-05 -5.24295931E-04  1.20346758E-05
  3.76064822E-05 -2.48356200E-05 -7.61813961E-05  9.10352261E-06  2.48761642E-05
 -2.11224192E-05 -4.17030574E-06  5.20312841E-05 -2.05831221E-04  1.35185462E-05
  1.10517728E-05  4.06250968E-06  6.31711788E-05  8.83847811E-04 -1.46007263E-04
 -8.07568423E-06 -4.96325796E-06 -7.12710878E-05  1.03176892E-04 -6.71681150E-05
  7.46724092E-05  2.27714309E-05 -4.75733749E-05  2.55824171E-04 -3.67978535E-04
 -7.98997525E-05  2.65310304E-05  1.40879601E-05 -1.74388012E-05 -4.15460640E-05
  3.63344608E-05  1.75895267E-05  5.37534503E-05 -2.67783889E-06 -7.58088582E-06
 -5.40674955E-06 -2.51445185E-04 -6.27257653E-05 -2.54715704E-06  9.20899855E-05
  2.88754397E-07  1.22184812E-05  9.82327604E-06  7.69195742E-06  8.64509011E-06
 -7.73294069E-06  1.17410512E-05 -1.23302773E-05  5.49724043E-06  1.04647764E-05
 -5.57102688E-06  4.56371053E-05 -4.09819558E-05 -6.57458796E-05  3.41852693E-07
  3.46300346E-06  6.37927613E-06 -8.44434713E-07 -1.40576710E-06  9.95713671E-01
  2.20643492E-02  1.57029717E-03  1.22716171E-03  6.49104755E-04 -6.28398585E-03
 -9.66050717E-04 -4.33398793E-04 -2.55148488E-04 -2.45848109E-04 -5.09720278E-05
  2.60997788E-04 -3.00022715E-05 -1.72973805E-04 -7.57542098E-06 -1.50609179E-04
 -3.90536480E-05  2.96144842E-05 -3.85093271E-05 -6.18084080E-05 -1.32892376E-04
 -2.54814994E-05 -9.13318087E-06  5.52371115E-05  4.82569987E-05  1.07855912E-07
 -8.54868223E-06  1.61691984E-05 -7.27273469E-06 -2.86848407E-05  2.74319945E-04
 -1.94885577E-05 -4.18377669E-05  2.90970341E-05  3.85254532E-06  7.38165421E-06
 -2.71934197E-06  5.90153052E-06  1.15115567E-05 -2.79267975E-05 -3.28529172E-05
 -3.74452039E-06 -8.78841599E-06 -6.39923316E-06 -5.19803753E-04  1.13241187E-03
  1.94794607E-05  1.08417242E-03  5.11106611E-04 -4.68984055E-04  1.74748202E-03
  1.05009306E-03 -1.84776536E-04 -2.21124483E-05 -1.12327757E-05  4.00610765E-05
 -3.33218886E-05 -9.32304508E-06 -1.85513163E-06 -5.55840422E-05  1.07100170E-04
  5.00865346E-05  2.85221297E-05 -3.42561653E-06 -1.10031460E-05 -7.70146281E-06
 -4.93013678E-06 -2.02907143E-05  9.95717438E-01  2.21120997E-02  1.55115581E-03
 -6.55279922E-04 -1.22199767E-03 -6.52642138E-03 -8.25272871E-04  8.32010470E-05
  8.29281798E-04 -8.07849563E-05 -1.25090879E-04 -2.49658956E-04 -2.07179221E-04
 -1.82113594E-04 -2.14216188E-05  1.13686442E-04 -4.33174114E-05  2.84081461E-05
  8.32261227E-05 -1.14811883E-04  1.84779774E-04 -2.64871163E-04 -4.93884310E-04
  3.85274490E-06  1.78793650E-05  4.40357729E-05 -9.06171558E-06 -2.96583198E-05
 -1.14873424E-05  3.30302993E-05 -4.22551822E-06 -2.31767938E-05 -2.77621419E-05
 -2.18742915E-05 -6.36505827E-06  1.55657459E-04  1.06655306E-04  1.03759011E-05
  4.00977982E-06 -3.92278043E-07 -8.85128994E-06  5.52094718E-06  7.50516316E-05
 -5.67176852E-05 -8.58501596E-06 -2.64828074E-06  3.09746069E-06  3.62556535E-05
 -4.65833321E-05 -1.18399336E-05 -6.25940186E-06 -4.23169409E-06 -5.27664561E-04
  1.18039977E-03  6.41281455E-04 -9.91887868E-04 -9.44533027E-07 -4.90537449E-04
  2.04687849E-03  4.67407562E-04  4.28630481E-04 -8.14200809E-04  9.59221389E-05
 -8.19157740E-05 -2.80977169E-05  2.29280931E-05  6.15943024E-05 -1.66436456E-04
 -2.08485943E-04 -3.56447045E-06 -5.36281388E-05 -3.54193608E-05 -5.61175845E-05
 -5.70839480E-05 -1.26975346E-06  1.64448907E-05 -1.66050928E-07  4.86197427E-05
 -4.07689755E-05 -5.40663849E-06 -9.64152805E-06 -1.45524073E-05 -2.80128886E-02
  6.17722266E-02 -6.37974812E-04 -1.04827545E-02 -3.76098157E-03  5.77446322E-02
 -6.47750750E-04 -3.86818477E-03 -7.63120485E-04  2.93241752E-04  1.82365494E-04
  3.00069533E-04 -3.10842519E-04  5.39902066E-05 -7.94849770E-03  1.66907656E-02
  2.91355023E-03 -4.18539771E-04 -3.27194597E-03  1.74978773E-02  1.74840831E-03
  6.28849051E-04 -2.98355260E-03  4.16136420E-04 -5.86283143E-04 -2.10615133E-04
  1.06618993E-04  9.59263879E-05 -2.10187148E-01  4.66108162E-01  4.83883907E-02
  9.18448286E-03 -6.47092035E-02  4.36889389E-01  1.89414103E-02  5.94666375E-03
 -2.33178160E-02  1.60342550E-03 -3.22855305E-03  9.55806978E-04 -7.12257842E-04
  1.98260883E-03 -1.37171906E-03  3.01268596E-03  5.69244926E-04  1.75354242E-04
  1.27742296E-04  2.51579129E-03  1.64015715E-04 -4.26332769E-04 -2.40828489E-04
 -3.45747488E-05 -1.11947570E-05 -2.34715513E-05  7.71281998E-05 -3.45758793E-05
  2.03672825E-02  3.95069540E-03 -1.23705095E-04  8.72007877E-04  2.80259120E-03
  1.82904963E-02  8.59989164E-04 -3.80060789E-04  2.74626616E-03 -2.22751344E-03
  5.09293243E-03  1.74785195E-03 -4.71517920E-04  9.43470122E-04 -2.21988651E-04
  8.20062247E-03 -1.20148567E-03  3.38699358E-05 -3.85145845E-04  7.34893634E-05
  1.43477585E-01  9.34113617E-03 -1.37932560E-02 -2.14925293E-02  4.43098934E-03
  1.42819083E-01  9.89505678E-03 -2.72375678E-03  1.87517107E-02  1.78152294E-02
  1.01122815E-03  2.47622325E-04  3.07986895E-05 -2.04272865E-04 -8.70474545E-05
  1.14036081E-03  6.24846728E-04 -1.15563167E-04  4.53511895E-05  2.67544317E-05
 -2.11006208E-01  4.64746056E-01 -1.40448411E-03 -7.69940373E-02 -1.90174642E-02
  4.48094414E-01  1.68543357E-03 -2.74407416E-02 -3.54637500E-03  1.26460898E-03
  8.28350237E-04  4.69153652E-04 -2.36813502E-03 -4.39432404E-04 -1.36569555E-03
  3.19263968E-03  6.10743955E-04  3.13969744E-06 -2.46762330E-04  1.44735922E-03
  6.91686746E-04  3.04040769E-04  5.46800518E-04 -1.00307391E-04  2.68368223E-05
  8.13382923E-07  1.01594283E-04  3.92299130E-05  2.89912767E-02 -6.44033459E-02
 -6.10788401E-03 -6.27961006E-04  9.76912670E-03 -6.21888044E-02 -1.47854352E-03
 -7.44165390E-04  5.63088517E-03 -2.88043287E-04  7.57527841E-04 -1.68724516E-04
  2.71169584E-04 -6.94938108E-05 -9.86182713E-03  2.14693268E-02  4.08262555E-03
  1.41195744E-03  9.46348592E-04  2.03445971E-02  2.34365857E-03 -2.97516714E-05
  1.48809715E-04 -3.21832036E-04 -1.09657473E-05  9.37653603E-05  3.82191556E-04
 -1.88120093E-04  1.39530709E-01  3.36464072E-03  2.97386800E-03  7.92208152E-03
  2.44422522E-02  1.40321940E-01  7.12614695E-03 -3.25210632E-03  2.04000329E-02
 -1.68047733E-02  7.40401307E-04  9.78830630E-04 -1.63097619E-04  2.06565985E-04
 -3.64058132E-05  7.84722427E-04  1.87100995E-03  1.99413060E-05 -7.83558532E-05
  3.49844941E-04 -1.97914032E-02  3.39982016E-03  1.92967745E-03  2.82962905E-03
 -2.71559442E-04 -1.97965029E-02 -1.66184366E-03  2.76156990E-04 -2.52392346E-03
 -2.44201527E-03  6.27970505E-03  7.09880996E-04  1.18961711E-04 -1.08663806E-03
 -5.02869014E-04  9.04485418E-03  1.35454965E-03 -5.56869297E-04 -3.09454102E-05
 -3.69053797E-06  1.09467196E-02 -2.49969033E-02 -1.36608290E-03  5.46725379E-03
  1.39019974E-03 -2.28504329E-02 -3.20826291E-03  4.72298376E-03  1.01265267E-03
 -3.52184464E-04 -1.74485191E-04  8.52502306E-05  4.59735829E-04 -4.03670698E-04
 -9.97676197E-03  2.18312402E-02  3.03945826E-03 -3.41809067E-04 -2.34961929E-03
  2.05066090E-02  1.08409036E-03  7.15760729E-04 -4.13767963E-04 -7.79169611E-05
 -1.51888217E-04 -1.60313765E-05 -1.43386506E-04  5.87394491E-05  4.91955398E-04
 -9.71504202E-04 -2.41204602E-04 -4.72050326E-06  3.76238291E-04 -1.30490168E-03
 -3.05353218E-04 -1.34502923E-04 -7.66315043E-05  1.88397148E-05 -7.27759267E-06