Atom number=12                                                          
SP        RHF                                                         6-31G(d,p)          
Number of atoms                            I               12
Info1-9                                    I   N=           9
         107         106           0           0           0         111
           1           1           2
Full Title                                 C   N=           2
Atom number=12          
Route                                      C   N=           4
#p hf/6-31g** 5d 7f pop=npa charge nosymm       
Charge                                     I                0
Multiplicity                               I                1
Number of electrons                        I               40
Number of alpha electrons                  I               20
Number of beta electrons                   I               20
Number of basis functions                  I               96
Number of independent functions            I               96
Number of point charges in /Mol/           I                0
Number of translation vectors              I                0
Atomic numbers                             I   N=          12
           8           8           8           8           1           1
           1           1           1           1           1           1
Nuclear charges                            R   N=          12
  8.00000000E+00  8.00000000E+00  8.00000000E+00  8.00000000E+00  1.00000000E+00
  1.00000000E+00  1.00000000E+00  1.00000000E+00  1.00000000E+00  1.00000000E+00
  1.00000000E+00  1.00000000E+00
Current cartesian coordinates              R   N=          36
  1.58591958E+01 -2.23232232E+01 -2.11658453E+01  1.37010511E+01 -1.86319947E+01
 -2.47619431E+01  1.79028344E+01 -1.51124951E+01 -2.06321073E+01  1.61361371E+01
 -1.18317680E+01 -2.44688390E+01  1.54490326E+01 -2.36930366E+01 -2.00580047E+01
  1.74840371E+01 -2.17584956E+01 -2.06064713E+01  1.34560972E+01 -1.93157846E+01
 -2.64185526E+01  1.38733941E+01 -2.00816358E+01 -2.36938794E+01  1.88925747E+01
 -1.66213261E+01 -2.05065293E+01  1.81855715E+01 -1.42529872E+01 -1.90658267E+01
  1.67808285E+01 -1.29429912E+01 -2.31954641E+01  1.75304658E+01 -1.15707137E+01
 -2.55911701E+01
Number of symbols in /Mol/                 I                0
Force Field                                I                0
Atom Types                                 C   N=          12
                                                            
                                                            
                        
Int Atom Types                             I   N=          12
           0           0           0           0           0           0
           0           0           0           0           0           0
MM charges                                 R   N=          12
  0.00000000E+00  0.00000000E+00  0.00000000E+00  0.00000000E+00  0.00000000E+00
  0.00000000E+00  0.00000000E+00  0.00000000E+00  0.00000000E+00  0.00000000E+00
  0.00000000E+00  0.00000000E+00
Integer atomic weights                     I   N=          12
          16          16          16          16           1           1
           1           1           1           1           1           1
Real atomic weights                        R   N=          12
  1.59949146E+01  1.59949146E+01  1.59949146E+01  1.59949146E+01  1.00782504E+00
  1.00782504E+00  1.00782504E+00  1.00782504E+00  1.00782504E+00  1.00782504E+00
  1.00782504E+00  1.00782504E+00
Atom fragment info                         I   N=          12
           0           0           0           0           0           0
           0           0           0           0           0           0
Atom residue num                           I   N=          12
           0           0           0           0           0           0
           0           0           0           0           0           0
Nuclear spins                              I   N=          12
           0           0           0           0           1           1
           1           1           1           1           1           1
Nuclear ZEff                               R   N=          12
 -5.60000000E+00 -5.60000000E+00 -5.60000000E+00 -5.60000000E+00 -1.00000000E+00
 -1.00000000E+00 -1.00000000E+00 -1.00000000E+00 -1.00000000E+00 -1.00000000E+00
 -1.00000000E+00 -1.00000000E+00
Nuclear ZNuc                               R   N=          12
  8.00000000E+00  8.00000000E+00  8.00000000E+00  8.00000000E+00  1.00000000E+00
  1.00000000E+00  1.00000000E+00  1.00000000E+00  1.00000000E+00  1.00000000E+00
  1.00000000E+00  1.00000000E+00
Nuclear QMom                               R   N=          12
  0.00000000E+00  0.00000000E+00  0.00000000E+00  0.00000000E+00  0.00000000E+00
  0.00000000E+00  0.00000000E+00  0.00000000E+00  0.00000000E+00  0.00000000E+00
  0.00000000E+00  0.00000000E+00
Nuclear GFac                               R   N=          12
  0.00000000E+00  0.00000000E+00  0.00000000E+00  0.00000000E+00  2.79284600E+00
  2.79284600E+00  2.79284600E+00  2.79284600E+00  2.79284600E+00  2.79284600E+00
  2.79284600E+00  2.79284600E+00
MicOpt                                     I   N=          12
          -1          -1          -1          -1          -1          -1
          -1          -1          -1          -1          -1          -1
Number of residues                         I                0
Number of secondary structures             I                0
Number of contracted shells                I               40
Number of primitive shells                 I               84
Pure/Cartesian d shells                    I                0
Pure/Cartesian f shells                    I                0
Highest angular momentum                   I                2
Largest degree of contraction              I                6
Shell types                                I   N=          40
           0          -1          -1          -2           0          -1
          -1          -2           0          -1          -1          -2
           0          -1          -1          -2           0           0
           1           0           0           1           0           0
           1           0           0           1           0           0
           1           0           0           1           0           0
           1           0           0           1
Number of primitives per shell             I   N=          40
           6           3           1           1           6           3
           1           1           6           3           1           1
           6           3           1           1           3           1
           1           3           1           1           3           1
           1           3           1           1           3           1
           1           3           1           1           3           1
           1           3           1           1
Shell to atom map                          I   N=          40
           1           1           1           1           2           2
           2           2           3           3           3           3
           4           4           4           4           5           5
           5           6           6           6           7           7
           7           8           8           8           9           9
           9          10          10          10          11          11
          11          12          12          12
Primitive exponents                        R   N=          84
  5.48467166E+03  8.25234946E+02  1.88046958E+02  5.29645000E+01  1.68975704E+01
  5.79963534E+00  1.55396162E+01  3.59993359E+00  1.01376175E+00  2.70005823E-01
  8.00000000E-01  5.48467166E+03  8.25234946E+02  1.88046958E+02  5.29645000E+01
  1.68975704E+01  5.79963534E+00  1.55396162E+01  3.59993359E+00  1.01376175E+00
  2.70005823E-01  8.00000000E-01  5.48467166E+03  8.25234946E+02  1.88046958E+02
  5.29645000E+01  1.68975704E+01  5.79963534E+00  1.55396162E+01  3.59993359E+00
  1.01376175E+00  2.70005823E-01  8.00000000E-01  5.48467166E+03  8.25234946E+02
  1.88046958E+02  5.29645000E+01  1.68975704E+01  5.79963534E+00  1.55396162E+01
  3.59993359E+00  1.01376175E+00  2.70005823E-01  8.00000000E-01  1.87311370E+01
  2.82539436E+00  6.40121692E-01  1.61277759E-01  1.10000000E+00  1.87311370E+01
  2.82539436E+00  6.40121692E-01  1.61277759E-01  1.10000000E+00  1.87311370E+01
  2.82539436E+00  6.40121692E-01  1.61277759E-01  1.10000000E+00  1.87311370E+01
  2.82539436E+00  6.40121692E-01  1.61277759E-01  1.10000000E+00  1.87311370E+01
  2.82539436E+00  6.40121692E-01  1.61277759E-01  1.10000000E+00  1.87311370E+01
  2.82539436E+00  6.40121692E-01  1.61277759E-01  1.10000000E+00  1.87311370E+01
  2.82539436E+00  6.40121692E-01  1.61277759E-01  1.10000000E+00  1.87311370E+01
  2.82539436E+00  6.40121692E-01  1.61277759E-01  1.10000000E+00
Contraction coefficients                   R   N=          84
  1.83107443E-03  1.39501722E-02  6.84450781E-02  2.32714336E-01  4.70192898E-01
  3.58520853E-01 -1.10777550E-01 -1.48026263E-01  1.13076702E+00  1.00000000E+00
  1.00000000E+00  1.83107443E-03  1.39501722E-02  6.84450781E-02  2.32714336E-01
  4.70192898E-01  3.58520853E-01 -1.10777550E-01 -1.48026263E-01  1.13076702E+00
  1.00000000E+00  1.00000000E+00  1.83107443E-03  1.39501722E-02  6.84450781E-02
  2.32714336E-01  4.70192898E-01  3.58520853E-01 -1.10777550E-01 -1.48026263E-01
  1.13076702E+00  1.00000000E+00  1.00000000E+00  1.83107443E-03  1.39501722E-02
  6.84450781E-02  2.32714336E-01  4.70192898E-01  3.58520853E-01 -1.10777550E-01
 -1.48026263E-01  1.13076702E+00  1.00000000E+00  1.00000000E+00  3.34946043E-02
  2.34726953E-01  8.13757326E-01  1.00000000E+00  1.00000000E+00  3.34946043E-02
  2.34726953E-01  8.13757326E-01  1.00000000E+00  1.00000000E+00  3.34946043E-02
  2.34726953E-01  8.13757326E-01  1.00000000E+00  1.00000000E+00  3.34946043E-02
  2.34726953E-01  8.13757326E-01  1.00000000E+00  1.00000000E+00  3.34946043E-02
  2.34726953E-01  8.13757326E-01  1.00000000E+00  1.00000000E+00  3.34946043E-02
  2.34726953E-01  8.13757326E-01  1.00000000E+00  1.00000000E+00  3.34946043E-02
  2.34726953E-01  8.13757326E-01  1.00000000E+00  1.00000000E+00  3.34946043E-02
  2.34726953E-01  8.13757326E-01  1.00000000E+00  1.00000000E+00
P(S=P) Contraction coefficients            R   N=          84
  0.00000000E+00  0.00000000E+00  0.00000000E+00  0.00000000E+00  0.00000000E+00
  0.00000000E+00  7.08742682E-02  3.39752839E-01  7.27158577E-01  1.00000000E+00
  0.00000000E+00  0.00000000E+00  0.00000000E+00  0.00000000E+00  0.00000000E+00
  0.00000000E+00  0.00000000E+00  7.08742682E-02  3.39752839E-01  7.27158577E-01
  1.00000000E+00  0.00000000E+00  0.00000000E+00  0.00000000E+00  0.00000000E+00
  0.00000000E+00  0.00000000E+00  0.00000000E+00  7.08742682E-02  3.39752839E-01
  7.27158577E-01  1.00000000E+00  0.00000000E+00  0.00000000E+00  0.00000000E+00
  0.00000000E+00  0.00000000E+00  0.00000000E+00  0.00000000E+00  7.08742682E-02
  3.39752839E-01  7.27158577E-01  1.00000000E+00  0.00000000E+00  0.00000000E+00
  0.00000000E+00  0.00000000E+00  0.00000000E+00  0.00000000E+00  0.00000000E+00
  0.00000000E+00  0.00000000E+00  0.00000000E+00  0.00000000E+00  0.00000000E+00
  0.00000000E+00  0.00000000E+00  0.00000000E+00  0.00000000E+00  0.00000000E+00
  0.00000000E+00  0.00000000E+00  0.00000000E+00  0.00000000E+00  0.00000000E+00
  0.00000000E+00  0.00000000E+00  0.00000000E+00  0.00000000E+00  0.00000000E+00
  0.00000000E+00  0.00000000E+00  0.00000000E+00  0.00000000E+00  0.00000000E+00
  0.00000000E+00  0.00000000E+00  0.00000000E+00  0.00000000E+00  0.00000000E+00
  0.00000000E+00  0.00000000E+00  0.00000000E+00  0.00000000E+00
Coordinates of each shell                  R   N=         120
  1.58591958E+01 -2.23232232E+01 -2.11658453E+01  1.58591958E+01 -2.23232232E+01
 -2.11658453E+01  1.58591958E+01 -2.23232232E+01 -2.11658453E+01  1.58591958E+01
 -2.23232232E+01 -2.11658453E+01  1.37010511E+01 -1.86319947E+01 -2.47619431E+01
  1.37010511E+01 -1.86319947E+01 -2.47619431E+01  1.37010511E+01 -1.86319947E+01
 -2.47619431E+01  1.37010511E+01 -1.86319947E+01 -2.47619431E+01  1.79028344E+01
 -1.51124951E+01 -2.06321073E+01  1.79028344E+01 -1.51124951E+01 -2.06321073E+01
  1.79028344E+01 -1.51124951E+01 -2.06321073E+01  1.79028344E+01 -1.51124951E+01
 -2.06321073E+01  1.61361371E+01 -1.18317680E+01 -2.44688390E+01  1.61361371E+01
 -1.18317680E+01 -2.44688390E+01  1.61361371E+01 -1.18317680E+01 -2.44688390E+01
  1.61361371E+01 -1.18317680E+01 -2.44688390E+01  1.54490326E+01 -2.36930366E+01
 -2.00580047E+01  1.54490326E+01 -2.36930366E+01 -2.00580047E+01  1.54490326E+01
 -2.36930366E+01 -2.00580047E+01  1.74840371E+01 -2.17584956E+01 -2.06064713E+01
  1.74840371E+01 -2.17584956E+01 -2.06064713E+01  1.74840371E+01 -2.17584956E+01
 -2.06064713E+01  1.34560972E+01 -1.93157846E+01 -2.64185526E+01  1.34560972E+01
 -1.93157846E+01 -2.64185526E+01  1.34560972E+01 -1.93157846E+01 -2.64185526E+01
  1.38733941E+01 -2.00816358E+01 -2.36938794E+01  1.38733941E+01 -2.00816358E+01
 -2.36938794E+01  1.38733941E+01 -2.00816358E+01 -2.36938794E+01  1.88925747E+01
 -1.66213261E+01 -2.05065293E+01  1.88925747E+01 -1.66213261E+01 -2.05065293E+01
  1.88925747E+01 -1.66213261E+01 -2.05065293E+01  1.81855715E+01 -1.42529872E+01
 -1.90658267E+01  1.81855715E+01 -1.42529872E+01 -1.90658267E+01  1.81855715E+01
 -1.42529872E+01 -1.90658267E+01  1.67808285E+01 -1.29429912E+01 -2.31954641E+01
  1.67808285E+01 -1.29429912E+01 -2.31954641E+01  1.67808285E+01 -1.29429912E+01
 -2.31954641E+01  1.75304658E+01 -1.15707137E+01 -2.55911701E+01  1.75304658E+01
 -1.15707137E+01 -2.55911701E+01  1.75304658E+01 -1.15707137E+01 -2.55911701E+01
Num ILSW                                   I              100
ILSW                                       I   N=         100
           0           0           0           0           2           0
           0           0           0           0           0          -1
           5           0           0           0           0           0
           0           0           0           0           0           0
           1           1           0           0           0           0
           0           0      100000           0          -1           0
           0           0           0           0           0           0
           0           0           0           1           0           0
           0 -2000000000           1           0           0           0
           0           0           4          52           0           0
           0           1           0           0           0           0
           0           0           0          12           0           1
           0           0           0           0           0           0
           0           0           0           0           0           0
           0           0           0           0           0           0
           0           0           0           0           0           0
           0           0           0           0
Num RLSW                                   I               52
RLSW                                       R   N=          52
  1.00000000E+00  1.00000000E+00  1.00000000E+00  1.00000000E+00  1.00000000E+00
  0.00000000E+00  0.00000000E+00  1.00000000E+00  0.00000000E+00  0.00000000E+00
  0.00000000E+00  0.00000000E+00  1.00000000E+00  0.00000000E+00  0.00000000E+00
  0.00000000E+00  0.00000000E+00  1.00000000E+00  0.00000000E+00  0.00000000E+00
  0.00000000E+00  0.00000000E+00  1.00000000E+00  0.00000000E+00  0.00000000E+00
  0.00000000E+00  0.00000000E+00  1.00000000E+00  0.00000000E+00  0.00000000E+00
  0.00000000E+00  0.00000000E+00  1.00000000E+00  0.00000000E+00  0.00000000E+00
  0.00000000E+00  0.00000000E+00  0.00000000E+00  1.00000000E+00  1.00000000E+00
  0.00000000E+00  1.00000000E+00  0.00000000E+00  0.00000000E+00  0.00000000E+00
  0.00000000E+00  0.00000000E+00  0.00000000E+00  0.00000000E+00  0.00000000E+00
  0.00000000E+00  0.00000000E+00
MxBond                                     I                2
NBond                                      I   N=          12
           2           2           2           2           1           1
           1           1           1           1           1           1
IBond                                      I   N=          24
           5           6           7           8           9          10
          11          12           1           0           1           0
           2           0           2           0           3           0
           3           0           4           0           4           0
RBond                                      R   N=          24
  1.00000000E+00  1.00000000E+00  1.00000000E+00  1.00000000E+00  1.00000000E+00
  1.00000000E+00  1.00000000E+00  1.00000000E+00  1.00000000E+00  0.00000000E+00
  1.00000000E+00  0.00000000E+00  1.00000000E+00  0.00000000E+00  1.00000000E+00
  0.00000000E+00  1.00000000E+00  0.00000000E+00  1.00000000E+00  0.00000000E+00
  1.00000000E+00  0.00000000E+00  1.00000000E+00  0.00000000E+00
Virial Ratio                               R      2.046480323970677E+00
SCF Energy                                 R     -3.177396014863579E+02
Total Energy                               R     -3.177396014863579E+02
RMS Density                                R      6.119489070763974E-09
Job Status                                 I                1
Nuclear derivative order                   I                0
External E-field                           R   N=          35
  0.00000000E+00  0.00000000E+00  0.00000000E+00  0.00000000E+00  0.00000000E+00
  0.00000000E+00  0.00000000E+00  0.00000000E+00  0.00000000E+00  0.00000000E+00
  0.00000000E+00  0.00000000E+00  0.00000000E+00  0.00000000E+00  0.00000000E+00
  0.00000000E+00  0.00000000E+00  0.00000000E+00  0.00000000E+00  0.00000000E+00
  0.00000000E+00  0.00000000E+00  0.00000000E+00  0.00000000E+00  0.00000000E+00
  0.00000000E+00  0.00000000E+00  0.00000000E+00  0.00000000E+00  0.00000000E+00
  0.00000000E+00  0.00000000E+00  0.00000000E+00  0.00000000E+00  0.00000000E+00
IOpCl                                      I                0
IROHF                                      I                0
Alpha Orbital Energies                     R   N=          96
 -2.06111005E+01 -2.05444628E+01 -2.05272433E+01 -2.05032957E+01 -1.39450168E+00
 -1.32839042E+00 -1.31122315E+00 -1.28908036E+00 -7.53465248E-01 -6.88357112E-01
 -6.78629236E-01 -6.74183824E-01 -6.11179427E-01 -5.68819460E-01 -5.56495431E-01
 -5.38303188E-01 -5.14268840E-01 -4.90789499E-01 -4.73671898E-01 -4.46369339E-01
  1.69309811E-01  2.41153173E-01  2.85209625E-01  2.88050982E-01  3.10566169E-01
  3.97372752E-01  4.17892711E-01  4.54026157E-01  9.50866561E-01  1.01085785E+00
  1.04401076E+00  1.04970058E+00  1.06675302E+00  1.10606864E+00  1.11929017E+00
  1.13500553E+00  1.13935624E+00  1.16418894E+00  1.18231224E+00  1.19895187E+00
  1.23741021E+00  1.24496222E+00  1.26445636E+00  1.29869694E+00  1.32628164E+00
  1.34665242E+00  1.37858073E+00  1.38571301E+00  1.56162345E+00  1.61272023E+00
  1.74111511E+00  1.75543589E+00  1.76174774E+00  1.82008828E+00  1.82537100E+00
  1.83173512E+00  1.85484731E+00  1.86101012E+00  1.86311996E+00  1.91502579E+00
  1.94254114E+00  1.97614896E+00  1.99550430E+00  2.01599301E+00  2.52690948E+00
  2.54514467E+00  2.60477165E+00  2.61053726E+00  2.61946152E+00  2.63621547E+00
  2.66685603E+00  2.73682643E+00  2.76349551E+00  2.83134538E+00  2.85500803E+00
  2.91193112E+00  2.92939140E+00  2.96963491E+00  3.00006214E+00  3.01167513E+00
  3.02194076E+00  3.03228688E+00  3.04542586E+00  3.05483466E+00  3.34473849E+00
  3.41146032E+00  3.42100067E+00  3.43457397E+00  3.72190174E+00  3.79263007E+00
  3.81053836E+00  3.82360256E+00  3.89942425E+00  3.95277825E+00  3.99984063E+00
  4.02595933E+00
Alpha MO coefficients                      R   N=        9216
 -1.56189108E-05 -3.63233669E-05 -4.93829526E-06  6.29405206E-06 -5.82189776E-08
  1.79221811E-04  1.07033129E-04  1.07924448E-05  3.91902771E-05 -7.03494713E-06
  1.09248582E-05 -1.71851225E-06  1.36063799E-05  1.34941559E-05  5.95585672E-06
  1.64879599E-05  5.83702425E-06  9.70601516E-06  3.22049679E-06 -2.40774997E-05
 -1.94231527E-05 -2.90749047E-05 -2.25254062E-05  2.07867543E-06 -1.07556190E-06
  7.31248343E-07 -1.64711090E-06 -2.04088741E-06  9.95704544E-01  2.21309916E-02
  1.08382339E-03 -5.08454577E-04  1.52137130E-03 -6.10906389E-03 -2.81197110E-04
 -1.08856128E-04 -2.75293777E-04  9.57316049E-06  8.79530645E-05  3.00992264E-04
 -2.07041305E-04 -2.73587512E-04  7.62634827E-05  3.24558111E-04  3.26492621E-06
 -4.15536985E-05  6.12332426E-05 -1.11368472E-03 -1.43019971E-04  4.32790248E-04
 -5.61879508E-04 -2.93315874E-05 -6.13302431E-05  9.39354072E-05  2.68443357E-05
  5.19127720E-05 -2.82387417E-05  4.12752917E-05 -5.92909456E-06 -9.19581698E-07
  7.46548910E-07  6.23290246E-07 -2.54776933E-04  4.17132024E-05  8.88264482E-06
  1.38877041E-05 -4.26396817E-06 -2.27054450E-05  1.47298753E-06  3.31309451E-06
 -5.58775739E-06 -7.96870419E-06  3.28300899E-05  4.91590025E-06  3.32725283E-06
  4.69585570E-06 -6.48488197E-04  1.13596067E-03  6.66606401E-04 -9.72821322E-04
  8.82832194E-05 -5.26222616E-04  1.07461905E-03  2.02182661E-04  5.84550470E-04
  1.03053303E-03  1.50267402E-04  1.55740920E-03 -1.40766761E-05  1.10220998E-05
 -3.32675852E-06  5.72625251E-05 -3.12250440E-04  2.99021285E-05 -9.13194443E-06
 -1.35280045E-06  9.95698865E-01  2.20812230E-02  1.02875085E-03 -6.51182271E-04
  1.43442788E-03 -6.01626930E-03 -3.23110084E-04  1.04032667E-04 -4.26505767E-04
 -1.29905215E-04  5.63654681E-05 -2.35978759E-04  5.77387060E-05  3.54746315E-04
  2.13722301E-04  2.19941792E-04 -1.37003302E-05 -1.64963959E-05  2.65203516E-05
 -8.22369720E-04 -3.57958312E-05  3.78793539E-04 -3.67637125E-04 -8.99968401E-06
 -2.36554799E-05  8.89114411E-05  5.90165653E-05  2.65210001E-05  8.39700676E-06
 -3.67111981E-05 -9.45747513E-06 -2.51324300E-06  5.98932503E-07  1.83018363E-04
  8.25248793E-05 -8.23816262E-05  1.11008059E-05 -7.84944235E-06  4.38348540E-06
  8.07474299E-07 -8.24339394E-06 -2.07636186E-05  1.79619154E-06  2.58162494E-06
 -1.85498138E-07 -1.11933910E-06  1.49966000E-07 -7.49018580E-06  6.10674918E-07
  3.59340616E-06 -1.82853391E-06 -3.40922927E-07  2.71105605E-07  1.99414026E-07
  3.99746957E-07 -2.59315275E-07 -5.77116752E-04  1.12242899E-03 -2.43454518E-04
 -8.77055592E-04  7.33581414E-04 -5.54346237E-04  1.22256690E-03  1.03105400E-03
  3.50226567E-04  3.74869787E-04  6.30571771E-05 -2.32720750E-04 -6.82564491E-06
 -1.74958601E-05 -4.36379448E-06  7.40818912E-05  1.12797792E-03  4.88615652E-05
  1.03695352E-04 -3.90330397E-05 -3.51845313E-08 -2.61342954E-04  2.86017565E-05
 -3.32675173E-05  2.06716998E-06 -2.32740867E-05  4.04702662E-05 -5.55513036E-06
  2.68622635E-06  1.78671366E-06  3.94522453E-06  1.17619620E-05 -5.26821304E-07
 -2.39340750E-06  3.00301753E-06  4.15007989E-07 -2.05810124E-06 -2.56717805E-07
 -1.63255367E-07 -4.32574452E-07 -1.98589441E-04  1.42284137E-04 -7.83569642E-05
  5.96121488E-05 -8.20242794E-05 -1.35540760E-04  4.25906508E-04 -2.80392843E-04
  4.39030988E-04 -1.62839495E-05 -9.49012779E-06  2.97561845E-05  2.59507720E-05
  5.97294192E-05  9.95711586E-01  2.21542063E-02 -5.54744862E-05 -1.93699865E-03
 -4.78654053E-04 -6.57551687E-03 -1.72667206E-06  1.20954404E-03 -6.47037800E-05
  3.22046034E-04  1.10198306E-04 -2.88233847E-05 -1.82437754E-04 -7.12300055E-06
 -4.74356588E-06  2.37632993E-05 -3.35168889E-06  1.90831262E-06 -6.05473088E-06
 -6.27092902E-05  5.37930473E-06  4.82844482E-06  2.92919628E-05  2.09572285E-06
 -2.86615415E-06  2.20181602E-06  4.31467882E-06  4.23555030E-06  2.30553218E-05
  2.48226117E-05 -3.40538881E-07 -7.26533152E-07  2.96555312E-06 -9.47338055E-05
 -1.49230671E-05  3.86021153E-05 -5.07103618E-05 -2.97862389E-06 -7.34116059E-06
  1.12613474E-05  3.18012585E-06  6.16597412E-06 -6.12116299E-05 -1.38716971E-04
 -6.69136153E-05 -1.61256730E-05 -1.40165443E-05 -1.13918532E-04 -1.88667901E-04
  4.59187231E-05  6.50454409E-05 -1.88192896E-05 -4.64612949E-04  1.06048189E-03
 -1.56847626E-04 -5.09949801E-04 -1.02466994E-03 -4.54187543E-04  2.15271158E-03
  1.19368147E-04 -8.55111641E-04  5.68502064E-04  2.96182172E-06  3.49003753E-05
 -6.10142623E-06  6.05949443E-06 -3.01167457E-06  5.00032840E-06 -2.09163837E-05
 -5.02284798E-07  2.28559038E-06 -8.54107183E-08  8.77487497E-06  1.24733493E-04
 -7.53515032E-06  1.30174865E-05 -1.43549076E-05  5.22150221E-06 -2.63562882E-05
  3.37806530E-06 -1.12834931E-06  5.94056102E-07 -8.14396011E-07  6.15975014E-06
  2.47168261E-06 -3.08450757E-06  1.45006886E-06 -4.18544689E-05 -3.07731584E-05
  5.81107050E-06 -1.80170595E-05  1.50345308E-06 -1.92235093E-06  8.67483764E-07
 -2.87133302E-06 -4.05068460E-06 -2.30386263E-05  5.49843879E-06  1.06915446E-05
  1.98547790E-05  4.04398269E-06  4.64356712E-05 -3.00509093E-05 -9.18179781E-05
 -1.92176915E-05  8.19902384E-06  2.50317166E-06 -1.51840978E-06 -7.80479591E-06
 -4.07112651E-06 -5.35262888E-05  2.77168400E-04 -6.41992851E-05  1.18050897E-04
 -1.50654398E-04 -4.09191333E-04  4.18327491E-04 -6.77829167E-04  7.61811841E-04
 -5.41798320E-05 -2.21525942E-05  9.20269827E-05  2.38409639E-05 -1.49622376E-05
  9.95726097E-01  2.23340040E-02  1.92614398E-03 -7.88717981E-04  1.66171427E-04
 -7.24439722E-03 -1.06390969E-03  8.95893105E-04 -7.49071885E-04  1.03028449E-04
 -2.49861000E-04 -2.21581521E-04  1.30034551E-04  2.19982687E-05  9.85893932E-06
 -5.66584010E-06  2.66990920E-06  1.15010977E-06 -6.97329585E-07 -7.18084719E-08
  6.44595518E-05 -1.00988210E-05 -3.30104371E-06 -2.58567969E-06 -2.41931832E-05
 -2.59740020E-05  2.46202084E-06  6.05184750E-06 -1.44731589E-05 -2.06016580E-05
 -4.53035795E-05  5.83376833E-06 -1.74164119E-06  1.43061228E-05 -1.67625590E-04
 -3.02027271E-04  3.43394911E-05 -5.36954043E-05 -7.23116386E-05  3.73443663E-06
 -2.50745796E-04 -3.24680550E-05  1.08578943E-04 -1.31590934E-05 -3.35735034E-04
  3.08355139E-03  3.92563493E-04 -6.00934671E-04  6.69415777E-04 -4.62181721E-04
  8.82501346E-04  9.86175821E-04  1.16311114E-04 -6.94853749E-04 -5.69300358E-04
  1.61090456E-03  2.01262353E-04  2.67482971E-05  1.48147513E-04 -3.81904668E-04
 -7.49389364E-04  2.02403530E-05 -1.22811714E-04  3.74147299E-05 -5.46926517E-05
  3.07353250E-05 -6.89256222E-05 -5.81479911E-05 -7.00137744E-04  1.47338804E-03
  4.93213264E-05 -2.22375252E-04  2.00891258E-06  1.16019520E-03  5.33731483E-04
  6.34872070E-04  6.77872600E-04 -5.88578617E-05  2.38517745E-05 -6.32764784E-05
  3.46362356E-05  2.47744074E-06 -2.12461141E-01  4.69731452E-01  4.40426848E-02
 -2.26487126E-02  6.33328111E-02  4.45751792E-01  1.20085329E-02 -7.68850759E-03
  2.52539656E-02  1.59980386E-03  2.66060279E-03 -1.14414848E-03 -5.52633219E-04
 -1.97630428E-03 -9.74936082E-03  2.00796147E-02  3.96836077E-03 -3.09777540E-03
  2.55844358E-03  2.22234291E-02  1.97071465E-03 -2.98179144E-03  3.50480952E-03
  1.28488002E-04  4.07840216E-04 -5.87323481E-04 -6.67095291E-05 -3.94614702E-04
  5.43104867E-04 -4.03082654E-04  5.24549338E-05  6.34230847E-05 -6.22710507E-05
  3.04055800E-04  2.63668749E-03 -3.24603713E-04 -1.06465235E-04 -1.12307713E-04
  6.44684476E-04  3.89646335E-04 -2.44258420E-06  3.24817148E-05  1.83752282E-04
  3.41028805E-04  5.09016504E-04 -6.31596331E-05  4.94905823E-05 -1.37790130E-04
  1.40514724E-01  5.53703069E-03 -1.35192201E-02  2.27241678E-02  6.26963619E-04
  1.44769049E-01  1.14327688E-02 -2.56077270E-03 -1.47085081E-02 -2.17306638E-02
  1.25175285E-02 -3.53632085E-03 -1.64024481E-04  5.33068956E-04 -7.00108550E-04
  5.48906900E-03  2.15835581E-03 -9.04504252E-04 -2.17818622E-04  8.11965310E-04
 -2.07959344E-01  4.57756645E-01  4.26052765E-02 -2.67455451E-02  5.79509148E-02
  4.41600601E-01  1.60670278E-02 -6.13670131E-03  1.92815452E-02  2.81651903E-04
  2.31705082E-03 -2.46639837E-03  6.02385428E-05 -1.70181540E-04 -4.60933439E-02
  1.00727220E-01  5.65176649E-04 -1.83296658E-02 -2.15222487E-03  9.75006544E-02
  1.61971565E-03 -7.48928359E-03  2.00049018E-03  1.44233826E-04  3.53243566E-04
 -5.28864229E-04 -7.93897589E-04 -3.74279206E-04  9.49164879E-04 -1.66782495E-03
 -1.53507134E-04 -1.16417356E-04 -3.37067015E-04 -4.15963119E-03 -1.21542693E-03
  7.58290144E-04 -3.33290784E-04  4.21815501E-05 -5.08534471E-05 -1.53367658E-05
  5.66201691E-05  1.74744024E-04 -7.17464474E-05  1.14172406E-04  1.78937278E-05
 -5.47661827E-06 -1.06343034E-05  2.49479595E-04 -4.07025734E-05 -1.33435918E-04
  4.09359893E-05  9.65468046E-07  6.94916145E-06 -8.52017302E-06 -1.29248303E-05
 -4.22667456E-06  1.37069367E-01  7.44199095E-03  7.29213760E-03  2.00051469E-02
 -1.46815109E-02  1.36379111E-01  4.47011200E-03 -2.35862578E-02 -9.76172049E-03
 -6.68926863E-03  2.97242331E-02  2.45015788E-03  6.34878305E-04  1.79699132E-03
  5.40311301E-03  3.50671951E-02  1.79192398E-03 -5.13503614E-04  3.96426143E-03
 -3.20681234E-03 -6.27139541E-04  3.80283828E-03 -1.67936043E-04  2.23768563E-04
 -1.77630232E-05 -4.72162582E-04 -5.60012840E-04  6.20039481E-05  3.54267533E-05
  6.65397150E-05 -3.57028779E-05 -1.38190165E-04  3.10113709E-06  1.66344773E-05
 -1.78895232E-05  4.55241385E-05  7.82826245E-05 -1.11305987E-05  5.18182305E-06
  1.37157298E-05  4.73797610E-02 -1.05357352E-01 -1.17846264E-02  8.57062617E-03
 -1.61165804E-02 -9.95969398E-02 -6.60427610E-03  4.82795655E-03 -8.24119805E-03
  7.92475622E-06 -2.54345202E-04  7.65812793E-05 -2.26752069E-04 -3.58592835E-04
 -2.07943948E-01  4.57695914E-01 -9.10470478E-04 -7.59248529E-02 -1.86238340E-02
  4.41638469E-01  2.48043504E-03 -2.78701386E-02 -9.40859220E-04  1.04973317E-03
  7.83131562E-04  1.66461061E-04 -2.54914268E-03 -4.52785571E-04  7.08215507E-04
 -1.64027532E-03 -2.95318524E-04  9.48079794E-05 -3.99396010E-04 -1.59632408E-03
 -4.75674936E-04 -9.12956343E-04 -7.42712396E-04 -1.48602536E-04 -2.97221630E-05