 Entering Gaussian System, Link 0=g16
 Input=w32_71.gjf
 Output=w32_71.log
 Initial command:
 /home/soft/g16/l1.exe "/tmp/liwei01/gaussian/wsr/Gau-8357.inp" -scrdir="/tmp/liwei01/gaussian/wsr/"
 Entering Link 1 = /home/soft/g16/l1.exe PID=      8361.
  
 Copyright (c) 1988,1990,1992,1993,1995,1998,2003,2009,2016,
            Gaussian, Inc.  All Rights Reserved.
  
 This is part of the Gaussian(R) 16 program.  It is based on
 the Gaussian(R) 09 system (copyright 2009, Gaussian, Inc.),
 the Gaussian(R) 03 system (copyright 2003, Gaussian, Inc.),
 the Gaussian(R) 98 system (copyright 1998, Gaussian, Inc.),
 the Gaussian(R) 94 system (copyright 1995, Gaussian, Inc.),
 the Gaussian 92(TM) system (copyright 1992, Gaussian, Inc.),
 the Gaussian 90(TM) system (copyright 1990, Gaussian, Inc.),
 the Gaussian 88(TM) system (copyright 1988, Gaussian, Inc.),
 the Gaussian 86(TM) system (copyright 1986, Carnegie Mellon
 University), and the Gaussian 82(TM) system (copyright 1983,
 Carnegie Mellon University). Gaussian is a federally registered
 trademark of Gaussian, Inc.
  
 This software contains proprietary and confidential information,
 including trade secrets, belonging to Gaussian, Inc.
  
 This software is provided under written license and may be
 used, copied, transmitted, or stored only in accord with that
 written license.
  
 The following legend is applicable only to US Government
 contracts under FAR:
  
                    RESTRICTED RIGHTS LEGEND
  
 Use, reproduction and disclosure by the US Government is
 subject to restrictions as set forth in subparagraphs (a)
 and (c) of the Commercial Computer Software - Restricted
 Rights clause in FAR 52.227-19.
  
 Gaussian, Inc.
 340 Quinnipiac St., Bldg. 40, Wallingford CT 06492
  
  
 ---------------------------------------------------------------
 Warning -- This program may not be used in any manner that
 competes with the business of Gaussian, Inc. or will provide
 assistance to any competitor of Gaussian, Inc.  The licensee
 of this program is prohibited from giving any competitor of
 Gaussian, Inc. access to this program.  By using this program,
 the user acknowledges that Gaussian, Inc. is engaged in the
 business of creating and licensing software in the field of
 computational chemistry and represents and warrants to the
 licensee that it is not a competitor of Gaussian, Inc. and that
 it will not use this program in any manner prohibited above.
 ---------------------------------------------------------------
  

 Cite this work as:
 Gaussian 16, Revision A.03,
 M. J. Frisch, G. W. Trucks, H. B. Schlegel, G. E. Scuseria, 
 M. A. Robb, J. R. Cheeseman, G. Scalmani, V. Barone, 
 G. A. Petersson, H. Nakatsuji, X. Li, M. Caricato, A. V. Marenich, 
 J. Bloino, B. G. Janesko, R. Gomperts, B. Mennucci, H. P. Hratchian, 
 J. V. Ortiz, A. F. Izmaylov, J. L. Sonnenberg, D. Williams-Young, 
 F. Ding, F. Lipparini, F. Egidi, J. Goings, B. Peng, A. Petrone, 
 T. Henderson, D. Ranasinghe, V. G. Zakrzewski, J. Gao, N. Rega, 
 G. Zheng, W. Liang, M. Hada, M. Ehara, K. Toyota, R. Fukuda, 
 J. Hasegawa, M. Ishida, T. Nakajima, Y. Honda, O. Kitao, H. Nakai, 
 T. Vreven, K. Throssell, J. A. Montgomery, Jr., J. E. Peralta, 
 F. Ogliaro, M. J. Bearpark, J. J. Heyd, E. N. Brothers, K. N. Kudin, 
 V. N. Staroverov, T. A. Keith, R. Kobayashi, J. Normand, 
 K. Raghavachari, A. P. Rendell, J. C. Burant, S. S. Iyengar, 
 J. Tomasi, M. Cossi, J. M. Millam, M. Klene, C. Adamo, R. Cammi, 
 J. W. Ochterski, R. L. Martin, K. Morokuma, O. Farkas, 
 J. B. Foresman, and D. J. Fox, Gaussian, Inc., Wallingford CT, 2016.
 
 ******************************************
 Gaussian 16:  ES64L-G16RevA.03 25-Dec-2016
                15-May-2020 
 ******************************************
 %chk=w32_71.chk
 %nproc=4
 Will use up to    4 processors via shared memory.
 %mem=1gb
 -----------------------------------------
 #p hf/6-31g** 5d 7f pop=npa charge nosymm
 -----------------------------------------
 1/18=10,28=-2,38=1,125=101,172=1/1;
 2/12=2,15=1,17=6,18=5,40=1/2;
 3/5=1,6=6,7=101,8=11,11=9,25=1,30=1/1,2,3;
 4//1;
 5/5=2,38=5/2;
 6/7=2,8=2,9=2,10=2,28=1,40=-1/1,7;
 99/5=1,9=1/99;
 Leave Link    1 at Fri May 15 22:36:14 2020, MaxMem=   134217728 cpu:               0.2 elap:               0.1
 (Enter /home/soft/g16/l101.exe)
 -------------
 Atom number=6
 -------------
 Symbolic Z-matrix:
 Charge =  0 Multiplicity = 1
 o                     8.39232  -11.81294  -11.20048 
 o                     9.47377  -7.99719  -10.91804 
 h                     8.17528  -12.53782  -10.61424 
 h                     9.25215  -11.5141  -10.90447 
 h                     9.99752  -8.79563  -10.85159 
 h                     9.62339  -7.54236  -10.0892 
 
 ITRead=  0  0  0  0  0  0
 MicOpt= -1 -1 -1 -1 -1 -1
 NAtoms=      6 NQM=        6 NQMF=       0 NMMI=      0 NMMIF=      0
                NMic=       0 NMicF=      0.
                    Isotopes and Nuclear Properties:
 (Nuclear quadrupole moments (NQMom) in fm**2, nuclear magnetic moments (NMagM)
  in nuclear magnetons)

  Atom         1           2           3           4           5           6
 IAtWgt=          16          16           1           1           1           1
 AtmWgt=  15.9949146  15.9949146   1.0078250   1.0078250   1.0078250   1.0078250
 NucSpn=           0           0           1           1           1           1
 AtZEff=  -0.0000000  -0.0000000  -0.0000000  -0.0000000  -0.0000000  -0.0000000
 NQMom=    0.0000000   0.0000000   0.0000000   0.0000000   0.0000000   0.0000000
 NMagM=    0.0000000   0.0000000   2.7928460   2.7928460   2.7928460   2.7928460
 AtZNuc=   8.0000000   8.0000000   1.0000000   1.0000000   1.0000000   1.0000000
 Background charge distribution read from input stream:
 Point Charges:
 XYZ=   10.7060  -10.8489  -10.0915 Q=   -1.0357 A=    0.0000 R=    0.0000 C=    0.0000
 XYZ=   11.5214  -11.3203   -9.9208 Q=    0.5206 A=    0.0000 R=    0.0000 C=    0.0000
 XYZ=   10.5678  -10.3169   -9.3078 Q=    0.5156 A=    0.0000 R=    0.0000 C=    0.0000
 XYZ=    8.6932  -14.0693   -9.5471 Q=   -1.0099 A=    0.0000 R=    0.0000 C=    0.0000
 XYZ=    8.2201  -13.7327   -8.7861 Q=    0.4999 A=    0.0000 R=    0.0000 C=    0.0000
 XYZ=    8.5528  -15.0157   -9.5178 Q=    0.5079 A=    0.0000 R=    0.0000 C=    0.0000
 XYZ=    7.2503   -9.8596  -13.1035 Q=   -1.0243 A=    0.0000 R=    0.0000 C=    0.0000
 XYZ=    7.1207  -10.2215  -13.9801 Q=    0.5152 A=    0.0000 R=    0.0000 C=    0.0000
 XYZ=    7.3415  -10.6267  -12.5383 Q=    0.5154 A=    0.0000 R=    0.0000 C=    0.0000
 XYZ=    5.5704  -12.7600  -10.7338 Q=   -1.0500 A=    0.0000 R=    0.0000 C=    0.0000
 XYZ=    4.6427  -12.8278  -10.5079 Q=    0.5214 A=    0.0000 R=    0.0000 C=    0.0000
 XYZ=    5.9838  -12.4052   -9.9468 Q=    0.5064 A=    0.0000 R=    0.0000 C=    0.0000
 XYZ=    6.9662   -9.2478  -10.2743 Q=   -1.0324 A=    0.0000 R=    0.0000 C=    0.0000
 XYZ=    6.9752   -9.8450  -11.0223 Q=    0.5142 A=    0.0000 R=    0.0000 C=    0.0000
 XYZ=    7.6844   -8.6385  -10.4451 Q=    0.5185 A=    0.0000 R=    0.0000 C=    0.0000
 XYZ=    6.9426  -11.8294   -8.3710 Q=   -1.0528 A=    0.0000 R=    0.0000 C=    0.0000
 XYZ=    7.4956  -12.0911   -7.6348 Q=    0.5210 A=    0.0000 R=    0.0000 C=    0.0000
 XYZ=    7.3075  -10.9928   -8.6597 Q=    0.5255 A=    0.0000 R=    0.0000 C=    0.0000
 XYZ=    9.7397  -14.5602  -13.0841 Q=   -1.0029 A=    0.0000 R=    0.0000 C=    0.0000
 XYZ=    9.4367  -13.9209  -12.4394 Q=    0.5215 A=    0.0000 R=    0.0000 C=    0.0000
 XYZ=   10.6527  -14.3230  -13.2466 Q=    0.4988 A=    0.0000 R=    0.0000 C=    0.0000
 XYZ=   10.0849   -9.6030  -13.6944 Q=   -1.0549 A=    0.0000 R=    0.0000 C=    0.0000
 XYZ=    9.8380   -9.8779  -14.5774 Q=    0.5180 A=    0.0000 R=    0.0000 C=    0.0000
 XYZ=    9.2671   -9.6284  -13.1976 Q=    0.5226 A=    0.0000 R=    0.0000 C=    0.0000
 XYZ=    8.4516  -10.6356  -15.6859 Q=   -1.0322 A=    0.0000 R=    0.0000 C=    0.0000
 XYZ=    8.1250  -10.4069  -16.5562 Q=    0.4798 A=    0.0000 R=    0.0000 C=    0.0000
 XYZ=    9.2622  -11.1166  -15.8526 Q=    0.5341 A=    0.0000 R=    0.0000 C=    0.0000
 XYZ=    4.0391  -11.2243  -12.8044 Q=   -0.9921 A=    0.0000 R=    0.0000 C=    0.0000
 XYZ=    4.5248  -12.0476  -12.7552 Q=    0.4802 A=    0.0000 R=    0.0000 C=    0.0000
 XYZ=    4.4321  -10.7575  -13.5420 Q=    0.5046 A=    0.0000 R=    0.0000 C=    0.0000
 XYZ=    5.5848  -15.5922  -11.4699 Q=   -1.0129 A=    0.0000 R=    0.0000 C=    0.0000
 XYZ=    4.6785  -15.3483  -11.6582 Q=    0.5050 A=    0.0000 R=    0.0000 C=    0.0000
 XYZ=    6.0031  -14.7735  -11.2032 Q=    0.5257 A=    0.0000 R=    0.0000 C=    0.0000
 XYZ=    8.8013  -12.4259   -6.4973 Q=   -0.9852 A=    0.0000 R=    0.0000 C=    0.0000
 XYZ=    9.0556  -11.7490   -5.8701 Q=    0.5006 A=    0.0000 R=    0.0000 C=    0.0000
 XYZ=    8.9395  -13.2499   -6.0303 Q=    0.5083 A=    0.0000 R=    0.0000 C=    0.0000
 XYZ=   10.5523   -9.0602   -7.7657 Q=   -0.9799 A=    0.0000 R=    0.0000 C=    0.0000
 XYZ=   10.0296   -9.4526   -7.0665 Q=    0.5003 A=    0.0000 R=    0.0000 C=    0.0000
 XYZ=   10.0576   -8.2839   -8.0284 Q=    0.4937 A=    0.0000 R=    0.0000 C=    0.0000
 XYZ=    8.4919  -14.1596  -15.7110 Q=   -0.9823 A=    0.0000 R=    0.0000 C=    0.0000
 XYZ=    8.8439  -15.0437  -15.8144 Q=    0.4799 A=    0.0000 R=    0.0000 C=    0.0000
 XYZ=    8.9183  -13.8221  -14.9233 Q=    0.4950 A=    0.0000 R=    0.0000 C=    0.0000
 XYZ=   10.6752  -11.9252  -15.8192 Q=   -0.9837 A=    0.0000 R=    0.0000 C=    0.0000
 XYZ=   11.1454  -12.2597  -15.0555 Q=    0.5055 A=    0.0000 R=    0.0000 C=    0.0000
 XYZ=   10.7694  -12.6123  -16.4789 Q=    0.5125 A=    0.0000 R=    0.0000 C=    0.0000
 XYZ=    7.7593  -16.5050  -13.2460 Q=   -1.0112 A=    0.0000 R=    0.0000 C=    0.0000
 XYZ=    7.3079  -16.2111  -12.4547 Q=    0.4926 A=    0.0000 R=    0.0000 C=    0.0000
 XYZ=    8.5373  -15.9498  -13.2987 Q=    0.4973 A=    0.0000 R=    0.0000 C=    0.0000
 XYZ=   13.4576  -11.7733   -9.7740 Q=   -0.9993 A=    0.0000 R=    0.0000 C=    0.0000
 XYZ=   13.9089  -10.9962  -10.1037 Q=    0.5128 A=    0.0000 R=    0.0000 C=    0.0000
 XYZ=   14.1508  -12.4236   -9.6612 Q=    0.5076 A=    0.0000 R=    0.0000 C=    0.0000
 XYZ=    5.5914  -15.5335   -8.7002 Q=   -1.0162 A=    0.0000 R=    0.0000 C=    0.0000
 XYZ=    6.3093  -16.0707   -8.3652 Q=    0.4831 A=    0.0000 R=    0.0000 C=    0.0000
 XYZ=    5.4763  -15.8239   -9.6050 Q=    0.5237 A=    0.0000 R=    0.0000 C=    0.0000
 XYZ=    5.3398  -11.2122  -15.4745 Q=   -0.9760 A=    0.0000 R=    0.0000 C=    0.0000
 XYZ=    5.8801  -10.4587  -15.7120 Q=    0.4863 A=    0.0000 R=    0.0000 C=    0.0000
 XYZ=    5.4896  -11.8457  -16.1763 Q=    0.4965 A=    0.0000 R=    0.0000 C=    0.0000
 XYZ=   12.9960  -14.7139  -11.2100 Q=   -0.9778 A=    0.0000 R=    0.0000 C=    0.0000
 XYZ=   12.2864  -15.1619  -10.7497 Q=    0.5059 A=    0.0000 R=    0.0000 C=    0.0000
 XYZ=   13.6357  -14.5124  -10.5270 Q=    0.4638 A=    0.0000 R=    0.0000 C=    0.0000
 XYZ=    4.6413   -8.1383  -12.6711 Q=   -0.9897 A=    0.0000 R=    0.0000 C=    0.0000
 XYZ=    4.5978   -7.2720  -12.2662 Q=    0.4876 A=    0.0000 R=    0.0000 C=    0.0000
 XYZ=    5.5765   -8.3384  -12.7100 Q=    0.4969 A=    0.0000 R=    0.0000 C=    0.0000
 XYZ=    8.9611  -17.0167   -9.2755 Q=   -0.9921 A=    0.0000 R=    0.0000 C=    0.0000
 XYZ=    8.6736  -17.2191   -8.3852 Q=    0.5092 A=    0.0000 R=    0.0000 C=    0.0000
 XYZ=    8.3026  -17.4234   -9.8386 Q=    0.5103 A=    0.0000 R=    0.0000 C=    0.0000
 XYZ=   12.8900   -9.6906  -13.7511 Q=   -0.9984 A=    0.0000 R=    0.0000 C=    0.0000
 XYZ=   13.4884   -9.8459  -13.0204 Q=    0.4670 A=    0.0000 R=    0.0000 C=    0.0000
 XYZ=   12.0171   -9.7427  -13.3618 Q=    0.5160 A=    0.0000 R=    0.0000 C=    0.0000
 XYZ=    4.9070   -7.9100   -9.1300 Q=   -1.0105 A=    0.0000 R=    0.0000 C=    0.0000
 XYZ=    4.0635   -8.0265   -9.5674 Q=    0.4764 A=    0.0000 R=    0.0000 C=    0.0000
 XYZ=    5.4227   -8.6710   -9.3968 Q=    0.5176 A=    0.0000 R=    0.0000 C=    0.0000
 XYZ=    2.9547  -12.7024   -9.8757 Q=   -0.9915 A=    0.0000 R=    0.0000 C=    0.0000
 XYZ=    3.0641  -13.5048   -9.3654 Q=    0.5019 A=    0.0000 R=    0.0000 C=    0.0000
 XYZ=    2.7384  -12.0329   -9.2268 Q=    0.5105 A=    0.0000 R=    0.0000 C=    0.0000
 XYZ=    4.2108  -13.3306   -7.5546 Q=   -1.0293 A=    0.0000 R=    0.0000 C=    0.0000
 XYZ=    4.9638  -12.7453   -7.4735 Q=    0.4979 A=    0.0000 R=    0.0000 C=    0.0000
 XYZ=    4.5835  -14.1618   -7.8486 Q=    0.5197 A=    0.0000 R=    0.0000 C=    0.0000
 XYZ=    8.5389   -6.2611  -12.9484 Q=   -1.0019 A=    0.0000 R=    0.0000 C=    0.0000
 XYZ=    8.8800   -6.8491  -12.2745 Q=    0.5098 A=    0.0000 R=    0.0000 C=    0.0000
 XYZ=    9.2767   -6.1230  -13.5423 Q=    0.4773 A=    0.0000 R=    0.0000 C=    0.0000
 XYZ=   11.4715  -15.3553   -7.5180 Q=   -1.0197 A=    0.0000 R=    0.0000 C=    0.0000
 XYZ=   10.8644  -15.3558   -8.2581 Q=    0.4753 A=    0.0000 R=    0.0000 C=    0.0000
 XYZ=   11.9075  -14.5045   -7.5658 Q=    0.5146 A=    0.0000 R=    0.0000 C=    0.0000
 XYZ=   12.8138  -13.0185   -7.3663 Q=   -0.9959 A=    0.0000 R=    0.0000 C=    0.0000
 XYZ=   12.4819  -12.4171   -6.6996 Q=    0.4994 A=    0.0000 R=    0.0000 C=    0.0000
 XYZ=   12.6552  -12.5682   -8.1960 Q=    0.5110 A=    0.0000 R=    0.0000 C=    0.0000
 XYZ=   11.3245  -17.0116  -10.7628 Q=   -1.0019 A=    0.0000 R=    0.0000 C=    0.0000
 XYZ=   11.7165  -17.8633  -10.5702 Q=    0.4876 A=    0.0000 R=    0.0000 C=    0.0000
 XYZ=   10.4428  -17.0644  -10.3939 Q=    0.5095 A=    0.0000 R=    0.0000 C=    0.0000
 Pt Chg Charge=             -0.0098 electrons
 Pt Chg Dipole moment (Debye):
    X=             12.9503    Y=             -4.9577    Z=             12.3007  Tot=             18.5364
 Pt Chg Quadrupole moment (Debye-Ang):
   XX=            194.0876   YY=            132.8541   ZZ=           -191.3426
   XY=           -165.7105   XZ=            -39.8464   YZ=            -91.6406
 Pt Chg Traceless Quadrupole moment (Debye-Ang):
   XX=            148.8879   YY=             87.6544   ZZ=           -236.5423
   XY=           -165.7105   XZ=            -39.8464   YZ=            -91.6406
 Pt Chg Octapole moment (Debye-Ang**2):
  XXX=           2528.5228  YYY=          -2865.7314  ZZZ=           1874.6478  XYY=           2205.1595
  XXY=          -2155.6289  XXZ=          -1171.8268  XZZ=            -29.9860  YZZ=           1770.3777
  YYZ=            541.9990  XYZ=            699.9106
 Pt Chg Hexadecapole moment (Debye-Ang**3):
 XXXX=          34737.2300 YYYY=          59192.2080 ZZZZ=          -4618.5173 XXXY=         -26647.6691
 XXXZ=         -18167.3677 YYYX=         -32352.2921 YYYZ=           1287.2112 ZZZX=          -1771.6423
 ZZZY=         -18022.8470 XXYY=          24746.9334 XXZZ=           7658.4861 YYZZ=         -18353.1338
 XXYZ=          14866.1919 YYXZ=         -10652.5242 ZZXY=          -2965.1867
 Leave Link  101 at Fri May 15 22:36:15 2020, MaxMem=   134217728 cpu:               0.6 elap:               0.2
 (Enter /home/soft/g16/l202.exe)
                          Input orientation:                          
 ---------------------------------------------------------------------
 Center     Atomic      Atomic             Coordinates (Angstroms)
 Number     Number       Type             X           Y           Z
 ---------------------------------------------------------------------
      1          8           0        8.392325  -11.812941  -11.200483
      2          8           0        9.473772   -7.997188  -10.918041
      3          1           0        8.175276  -12.537815  -10.614239
      4          1           0        9.252154  -11.514100  -10.904475
      5          1           0        9.997520   -8.795627  -10.851588
      6          1           0        9.623390   -7.542356  -10.089201
 ---------------------------------------------------------------------
                    Distance matrix (angstroms):
                    1          2          3          4          5
     1  O    0.000000
     2  O    3.976088   0.000000
     3  H    0.957201   4.732408   0.000000
     4  H    0.957200   3.523914   1.513901   0.000000
     5  H    3.435486   0.957201   4.169038   2.819302   0.000000
     6  H    4.581306   0.957201   5.227553   4.071515   1.513901
                    6
     6  H    0.000000
 Symmetry turned off by external request.
 Stoichiometry    H4O2
 Framework group  C1[X(H4O2)]
 Deg. of freedom    12
 Full point group                 C1      NOp   1
 Rotational constants (GHZ):         245.7119183           3.4848161           3.4748291
 Leave Link  202 at Fri May 15 22:36:15 2020, MaxMem=   134217728 cpu:               0.1 elap:               0.0
 (Enter /home/soft/g16/l301.exe)
 Standard basis: 6-31G(d,p) (5D, 7F)
 Ernie: Thresh=  0.10000D-02 Tol=  0.10000D-05 Strict=F.
    48 basis functions,    84 primitive gaussians,    50 cartesian basis functions
    10 alpha electrons       10 beta electrons
       nuclear repulsion energy        31.7057217586 Hartrees.
 IExCor=    0 DFT=F Ex=HF Corr=None ExCW=0 ScaHFX=  1.000000
 ScaDFX=  1.000000  1.000000  1.000000  1.000000 ScalE2=  1.000000  1.000000
 IRadAn=      5 IRanWt=     -1 IRanGd=            0 ICorTp=0 IEmpDi=  4
 NAtoms=    6 NActive=    6 NUniq=    6 SFac= 1.00D+00 NAtFMM=   60 NAOKFM=F Big=F
 Integral buffers will be    131072 words long.
 Raffenetti 1 integral format.
 Two-electron integral symmetry is turned off.
 Background charge distribution read from rwf.
 PtFMM for NChg=        96 BoxLen=    40.00 Levels= 1 LMax=20 SMax=    22.2 ICnFMM=     1:
 Self energy of the charges =       -14.5450821099 a.u.
 MM   energy of the charges =         0.0000000000 a.u.
 Nuclei-charges interaction =         0.4491177208 a.u.
 Nuclear repulsion after external point charges =       17.6097573694 Hartrees.
 Leave Link  301 at Fri May 15 22:36:15 2020, MaxMem=   134217728 cpu:               0.3 elap:               0.1
 (Enter /home/soft/g16/l302.exe)
 NPDir=0 NMtPBC=     1 NCelOv=     1 NCel=       1 NClECP=     1 NCelD=      1
         NCelK=      1 NCelE2=     1 NClLst=     1 CellRange=     0.0.
 One-electron integrals computed using PRISM.
 NBasis=    48 RedAO= T EigKep=  3.90D-02  NBF=    48
 NBsUse=    48 1.00D-06 EigRej= -1.00D+00 NBFU=    48
 Leave Link  302 at Fri May 15 22:36:15 2020, MaxMem=   134217728 cpu:               0.5 elap:               0.1
 (Enter /home/soft/g16/l303.exe)
 DipDrv:  MaxL=1.
 Leave Link  303 at Fri May 15 22:36:15 2020, MaxMem=   134217728 cpu:               0.1 elap:               0.1
 (Enter /home/soft/g16/l401.exe)
 ExpMin= 1.61D-01 ExpMax= 5.48D+03 ExpMxC= 8.25D+02 IAcc=3 IRadAn=         5 AccDes= 0.00D+00
 Harris functional with IExCor=  205 and IRadAn=       5 diagonalized for initial guess.
 HarFok:  IExCor=  205 AccDes= 0.00D+00 IRadAn=         5 IDoV= 1 UseB2=F ITyADJ=14
 ICtDFT=  3500011 ScaDFX=  1.000000  1.000000  1.000000  1.000000
 FoFCou: FMM=F IPFlag=           0 FMFlag=      100000 FMFlg1=           0
         NFxFlg=           0 DoJE=T BraDBF=F KetDBF=T FulRan=T
         wScrn=  0.000000 ICntrl=       500 IOpCl=  0 I1Cent=   200000004 NGrid=           0
         NMat0=    1 NMatS0=      1 NMatT0=    0 NMatD0=    1 NMtDS0=    0 NMtDT0=    0
 Symmetry not used in FoFCou.
 Harris En= -166.856813981628    
 JPrj=0 DoOrth=F DoCkMO=F.
 Leave Link  401 at Fri May 15 22:36:15 2020, MaxMem=   134217728 cpu:               1.0 elap:               0.3
 (Enter /home/soft/g16/l502.exe)
 Keep R1 ints in memory in canonical form, NReq=1529461.
 FoFCou: FMM=F IPFlag=           0 FMFlag=           0 FMFlg1=           0
         NFxFlg=           0 DoJE=F BraDBF=F KetDBF=F FulRan=T
         wScrn=  0.000000 ICntrl=       600 IOpCl=  0 I1Cent=           0 NGrid=           0
         NMat0=    1 NMatS0=   1176 NMatT0=    0 NMatD0=    1 NMtDS0=    0 NMtDT0=    0
 Symmetry not used in FoFCou.
 Two-electron integral symmetry not used.
 Closed shell SCF:
 Using DIIS extrapolation, IDIIS=  1040.
 NGot=   134217728 LenX=   133519768 LenY=   133516827
 Requested convergence on RMS density matrix=1.00D-08 within 128 cycles.
 Requested convergence on MAX density matrix=1.00D-06.
 Requested convergence on             energy=1.00D-06.
 No special actions if energy rises.

 Cycle   1  Pass 1  IDiag  1:
 E= -166.476287674326    
 DIIS: error= 6.50D-02 at cycle   1 NSaved=   1.
 NSaved= 1 IEnMin= 1 EnMin= -166.476287674326     IErMin= 1 ErrMin= 6.50D-02
 ErrMax= 6.50D-02  0.00D+00 EMaxC= 1.00D-01 BMatC= 2.67D-01 BMatP= 2.67D-01
 IDIUse=3 WtCom= 3.50D-01 WtEn= 6.50D-01
 Coeff-Com:  0.100D+01
 Coeff-En:   0.100D+01
 Coeff:      0.100D+01
 Gap=     0.537 Goal=   None    Shift=    0.000
 GapD=    0.537 DampG=2.000 DampE=0.500 DampFc=1.0000 IDamp=-1.
 RMSDP=8.81D-03 MaxDP=1.26D-01              OVMax= 1.33D-01

 Cycle   2  Pass 1  IDiag  1:
 E= -166.602016546115     Delta-E=       -0.125728871790 Rises=F Damp=F
 DIIS: error= 3.35D-02 at cycle   2 NSaved=   2.
 NSaved= 2 IEnMin= 2 EnMin= -166.602016546115     IErMin= 2 ErrMin= 3.35D-02
 ErrMax= 3.35D-02  0.00D+00 EMaxC= 1.00D-01 BMatC= 8.51D-02 BMatP= 2.67D-01
 IDIUse=3 WtCom= 6.65D-01 WtEn= 3.35D-01
 Coeff-Com:  0.350D+00 0.650D+00
 Coeff-En:   0.883D-01 0.912D+00
 Coeff:      0.262D+00 0.738D+00
 Gap=     0.677 Goal=   None    Shift=    0.000
 RMSDP=3.97D-03 MaxDP=5.23D-02 DE=-1.26D-01 OVMax= 4.81D-02

 Cycle   3  Pass 1  IDiag  1:
 E= -166.658121999207     Delta-E=       -0.056105453091 Rises=F Damp=F
 DIIS: error= 6.86D-03 at cycle   3 NSaved=   3.
 NSaved= 3 IEnMin= 3 EnMin= -166.658121999207     IErMin= 3 ErrMin= 6.86D-03
 ErrMax= 6.86D-03  0.00D+00 EMaxC= 1.00D-01 BMatC= 2.29D-03 BMatP= 8.51D-02
 IDIUse=3 WtCom= 9.31D-01 WtEn= 6.86D-02
 Coeff-Com: -0.316D-01 0.985D-01 0.933D+00
 Coeff-En:   0.000D+00 0.000D+00 0.100D+01
 Coeff:     -0.294D-01 0.917D-01 0.938D+00
 Gap=     0.661 Goal=   None    Shift=    0.000
 RMSDP=5.76D-04 MaxDP=8.34D-03 DE=-5.61D-02 OVMax= 9.86D-03

 Cycle   4  Pass 1  IDiag  1:
 E= -166.659882793763     Delta-E=       -0.001760794556 Rises=F Damp=F
 DIIS: error= 6.34D-04 at cycle   4 NSaved=   4.
 NSaved= 4 IEnMin= 4 EnMin= -166.659882793763     IErMin= 4 ErrMin= 6.34D-04
 ErrMax= 6.34D-04  0.00D+00 EMaxC= 1.00D-01 BMatC= 1.91D-05 BMatP= 2.29D-03
 IDIUse=3 WtCom= 9.94D-01 WtEn= 6.34D-03
 Coeff-Com:  0.554D-02-0.451D-01-0.262D+00 0.130D+01
 Coeff-En:   0.000D+00 0.000D+00 0.000D+00 0.100D+01
 Coeff:      0.551D-02-0.449D-01-0.260D+00 0.130D+01
 Gap=     0.662 Goal=   None    Shift=    0.000
 RMSDP=1.01D-04 MaxDP=1.19D-03 DE=-1.76D-03 OVMax= 1.59D-03

 Cycle   5  Pass 1  IDiag  1:
 E= -166.659909323867     Delta-E=       -0.000026530104 Rises=F Damp=F
 DIIS: error= 8.87D-05 at cycle   5 NSaved=   5.
 NSaved= 5 IEnMin= 5 EnMin= -166.659909323867     IErMin= 5 ErrMin= 8.87D-05
 ErrMax= 8.87D-05  0.00D+00 EMaxC= 1.00D-01 BMatC= 5.00D-07 BMatP= 1.91D-05
 IDIUse=1 WtCom= 1.00D+00 WtEn= 0.00D+00
 Coeff-Com:  0.137D-02-0.612D-02-0.446D-01 0.606D-01 0.989D+00
 Coeff:      0.137D-02-0.612D-02-0.446D-01 0.606D-01 0.989D+00
 Gap=     0.663 Goal=   None    Shift=    0.000
 RMSDP=2.03D-05 MaxDP=1.87D-04 DE=-2.65D-05 OVMax= 3.69D-04

 Cycle   6  Pass 1  IDiag  1:
 E= -166.659910137259     Delta-E=       -0.000000813392 Rises=F Damp=F
 DIIS: error= 2.76D-05 at cycle   6 NSaved=   6.
 NSaved= 6 IEnMin= 6 EnMin= -166.659910137259     IErMin= 6 ErrMin= 2.76D-05
 ErrMax= 2.76D-05  0.00D+00 EMaxC= 1.00D-01 BMatC= 6.73D-08 BMatP= 5.00D-07
 IDIUse=1 WtCom= 1.00D+00 WtEn= 0.00D+00
 Coeff-Com: -0.984D-04 0.195D-02 0.973D-02-0.868D-01 0.203D+00 0.872D+00
 Coeff:     -0.984D-04 0.195D-02 0.973D-02-0.868D-01 0.203D+00 0.872D+00
 Gap=     0.663 Goal=   None    Shift=    0.000
 RMSDP=6.14D-06 MaxDP=7.10D-05 DE=-8.13D-07 OVMax= 1.00D-04

 Cycle   7  Pass 1  IDiag  1:
 E= -166.659910220685     Delta-E=       -0.000000083425 Rises=F Damp=F
 DIIS: error= 7.17D-06 at cycle   7 NSaved=   7.
 NSaved= 7 IEnMin= 7 EnMin= -166.659910220685     IErMin= 7 ErrMin= 7.17D-06
 ErrMax= 7.17D-06  0.00D+00 EMaxC= 1.00D-01 BMatC= 3.20D-09 BMatP= 6.73D-08
 IDIUse=1 WtCom= 1.00D+00 WtEn= 0.00D+00
 Coeff-Com: -0.114D-03 0.460D-03 0.360D-02-0.226D-02-0.101D+00-0.374D-01
 Coeff-Com:  0.114D+01
 Coeff:     -0.114D-03 0.460D-03 0.360D-02-0.226D-02-0.101D+00-0.374D-01
 Coeff:      0.114D+01
 Gap=     0.663 Goal=   None    Shift=    0.000
 RMSDP=2.13D-06 MaxDP=2.47D-05 DE=-8.34D-08 OVMax= 4.16D-05

 Cycle   8  Pass 1  IDiag  1:
 E= -166.659910226862     Delta-E=       -0.000000006178 Rises=F Damp=F
 DIIS: error= 1.49D-06 at cycle   8 NSaved=   8.
 NSaved= 8 IEnMin= 8 EnMin= -166.659910226862     IErMin= 8 ErrMin= 1.49D-06
 ErrMax= 1.49D-06  0.00D+00 EMaxC= 1.00D-01 BMatC= 1.04D-10 BMatP= 3.20D-09
 IDIUse=1 WtCom= 1.00D+00 WtEn= 0.00D+00
 Coeff-Com:  0.430D-04-0.228D-03-0.164D-02 0.373D-02 0.330D-01-0.118D-01
 Coeff-Com: -0.420D+00 0.140D+01
 Coeff:      0.430D-04-0.228D-03-0.164D-02 0.373D-02 0.330D-01-0.118D-01
 Coeff:     -0.420D+00 0.140D+01
 Gap=     0.663 Goal=   None    Shift=    0.000
 RMSDP=3.33D-07 MaxDP=3.73D-06 DE=-6.18D-09 OVMax= 7.21D-06

 Cycle   9  Pass 1  IDiag  1:
 E= -166.659910227092     Delta-E=       -0.000000000230 Rises=F Damp=F
 DIIS: error= 2.36D-07 at cycle   9 NSaved=   9.
 NSaved= 9 IEnMin= 9 EnMin= -166.659910227092     IErMin= 9 ErrMin= 2.36D-07
 ErrMax= 2.36D-07  0.00D+00 EMaxC= 1.00D-01 BMatC= 2.36D-12 BMatP= 1.04D-10
 IDIUse=1 WtCom= 1.00D+00 WtEn= 0.00D+00
 Coeff-Com: -0.835D-05 0.503D-04 0.355D-03-0.114D-02-0.524D-02 0.507D-02
 Coeff-Com:  0.750D-01-0.369D+00 0.129D+01
 Coeff:     -0.835D-05 0.503D-04 0.355D-03-0.114D-02-0.524D-02 0.507D-02
 Coeff:      0.750D-01-0.369D+00 0.129D+01
 Gap=     0.663 Goal=   None    Shift=    0.000
 RMSDP=5.50D-08 MaxDP=5.41D-07 DE=-2.30D-10 OVMax= 1.35D-06

 Cycle  10  Pass 1  IDiag  1:
 E= -166.659910227098     Delta-E=       -0.000000000005 Rises=F Damp=F
 DIIS: error= 2.34D-08 at cycle  10 NSaved=  10.
 NSaved=10 IEnMin=10 EnMin= -166.659910227098     IErMin=10 ErrMin= 2.34D-08
 ErrMax= 2.34D-08  0.00D+00 EMaxC= 1.00D-01 BMatC= 5.74D-14 BMatP= 2.36D-12
 IDIUse=1 WtCom= 1.00D+00 WtEn= 0.00D+00
 Coeff-Com:  0.495D-06-0.385D-05-0.262D-04 0.130D-03 0.143D-03-0.766D-03
 Coeff-Com: -0.352D-02 0.386D-01-0.291D+00 0.126D+01
 Coeff:      0.495D-06-0.385D-05-0.262D-04 0.130D-03 0.143D-03-0.766D-03
 Coeff:     -0.352D-02 0.386D-01-0.291D+00 0.126D+01
 Gap=     0.663 Goal=   None    Shift=    0.000
 RMSDP=1.21D-08 MaxDP=1.26D-07 DE=-5.31D-12 OVMax= 2.66D-07

 Cycle  11  Pass 1  IDiag  1:
 E= -166.659910227098     Delta-E=       -0.000000000001 Rises=F Damp=F
 DIIS: error= 3.78D-09 at cycle  11 NSaved=  11.
 NSaved=11 IEnMin=11 EnMin= -166.659910227098     IErMin=11 ErrMin= 3.78D-09
 ErrMax= 3.78D-09  0.00D+00 EMaxC= 1.00D-01 BMatC= 1.48D-15 BMatP= 5.74D-14
 IDIUse=1 WtCom= 1.00D+00 WtEn= 0.00D+00
 Coeff-Com:  0.291D-06-0.168D-05-0.118D-04 0.329D-04 0.201D-03-0.135D-03
 Coeff-Com: -0.269D-02 0.112D-01-0.311D-01-0.734D-01 0.110D+01
 Coeff:      0.291D-06-0.168D-05-0.118D-04 0.329D-04 0.201D-03-0.135D-03
 Coeff:     -0.269D-02 0.112D-01-0.311D-01-0.734D-01 0.110D+01
 Gap=     0.663 Goal=   None    Shift=    0.000
 RMSDP=1.81D-09 MaxDP=1.94D-08 DE=-5.40D-13 OVMax= 3.78D-08

 SCF Done:  E(RHF) =  -166.659910227     A.U. after   11 cycles
            NFock= 11  Conv=0.18D-08     -V/T= 2.0980
 KE= 1.517821572734D+02 PE=-4.252723233979D+02 EE= 8.922049852804D+01
 Leave Link  502 at Fri May 15 22:36:15 2020, MaxMem=   134217728 cpu:               0.7 elap:               0.2
 (Enter /home/soft/g16/l601.exe)
 Copying SCF densities to generalized density rwf, IOpCl= 0 IROHF=0.

 **********************************************************************

            Population analysis using the SCF density.

 **********************************************************************

 Alpha  occ. eigenvalues --  -20.60790 -20.54206  -1.38939  -1.32483  -0.74870
 Alpha  occ. eigenvalues --   -0.68408  -0.62480  -0.56427  -0.55032  -0.48824
 Alpha virt. eigenvalues --    0.17485   0.25050   0.30414   0.40311   0.95927
 Alpha virt. eigenvalues --    1.02458   1.06873   1.10670   1.13031   1.13725
 Alpha virt. eigenvalues --    1.17331   1.18756   1.26075   1.32492   1.55218
 Alpha virt. eigenvalues --    1.63910   1.75940   1.77868   1.82276   1.84048
 Alpha virt. eigenvalues --    1.87173   1.93408   2.53630   2.54502   2.61018
 Alpha virt. eigenvalues --    2.61238   2.76425   2.83856   2.93218   2.94859
 Alpha virt. eigenvalues --    3.00283   3.01449   3.33354   3.40334   3.70630
 Alpha virt. eigenvalues --    3.78900   3.88924   3.95831
          Condensed to atoms (all electrons):
               1          2          3          4          5          6
     1  O    8.168860  -0.000055   0.318563   0.314364   0.000477  -0.000002
     2  O   -0.000055   8.105458   0.000001   0.000231   0.317200   0.307545
     3  H    0.318563   0.000001   0.305421  -0.020895  -0.000013  -0.000000
     4  H    0.314364   0.000231  -0.020895   0.300455   0.000180  -0.000001
     5  H    0.000477   0.317200  -0.000013   0.000180   0.314971  -0.024393
     6  H   -0.000002   0.307545  -0.000000  -0.000001  -0.024393   0.378430
 Mulliken charges:
               1
     1  O   -0.802208
     2  O   -0.730380
     3  H    0.396924
     4  H    0.405666
     5  H    0.391578
     6  H    0.338421
 Sum of Mulliken charges =   0.00000
 Mulliken charges with hydrogens summed into heavy atoms:
               1
     1  O    0.000382
     2  O   -0.000382
 Electronic spatial extent (au):  <R**2>=          21754.7921
 Charge=              0.0000 electrons
 Dipole moment (field-independent basis, Debye):
    X=              2.9069    Y=             -1.8228    Z=              3.6293  Tot=              4.9945
 Quadrupole moment (field-independent basis, Debye-Ang):
   XX=             40.7364   YY=             26.4208   ZZ=            -91.7333
   XY=            -44.7026   XZ=              0.8544   YZ=            -16.4262
 Traceless Quadrupole moment (field-independent basis, Debye-Ang):
   XX=             48.9284   YY=             34.6129   ZZ=            -83.5413
   XY=            -44.7026   XZ=              0.8544   YZ=            -16.4262
 Octapole moment (field-independent basis, Debye-Ang**2):
  XXX=            396.5772  YYY=           -266.0655  ZZZ=           1712.0537  XYY=            512.7026
  XXY=           -541.8751  XXZ=           -149.1343  XZZ=           -476.0296  YZZ=            703.6171
  YYZ=             96.4955  XYZ=            167.3986
 Hexadecapole moment (field-independent basis, Debye-Ang**3):
 XXXX=           2922.4189 YYYY=           1842.9167 ZZZZ=         -28066.8038 XXXY=          -5165.4016
 XXXZ=          -1625.4269 YYYX=          -5082.0595 YYYZ=          -1380.2303 ZZZX=          11547.8765
 ZZZY=         -14861.8710 XXYY=           5896.2043 XXZZ=          -2591.6807 YYZZ=          -6607.3134
 XXYZ=           3053.5119 YYXZ=          -2251.9531 ZZXY=           2795.4437
 N-N= 1.760975736940D+01 E-N=-4.252723234217D+02  KE= 1.517821572734D+02
 No NMR shielding tensors so no spin-rotation constants.
 Leave Link  601 at Fri May 15 22:36:15 2020, MaxMem=   134217728 cpu:               0.4 elap:               0.1
 (Enter /home/soft/g16/l607.exe)
 ******************************Gaussian NBO Version 3.1******************************
             N A T U R A L   A T O M I C   O R B I T A L   A N D
          N A T U R A L   B O N D   O R B I T A L   A N A L Y S I S
 ******************************Gaussian NBO Version 3.1******************************
       /RESON  / : Allow strongly delocalized NBO set

 Analyzing the SCF density

 Job title: Atom number=6                                                   

 Storage needed:      7158 in NPA ( 134217512 available)
 GSVD:  LWork=         960 too small for GESVD, short by        1512 words or        1512 for optimal perf.


 NATURAL POPULATIONS:  Natural atomic orbital occupancies 
                                                          
   NAO  Atom  No  lang   Type(AO)    Occupancy      Energy
 ----------------------------------------------------------
     1    O    1  S      Cor( 1S)     1.99987     -20.37882
     2    O    1  S      Val( 2S)     1.76056      -1.15126
     3    O    1  S      Ryd( 3S)     0.00084       1.71573
     4    O    1  px     Val( 2p)     1.68876      -0.38270
     5    O    1  px     Ryd( 3p)     0.00140       1.26599
     6    O    1  py     Val( 2p)     1.75093      -0.40438
     7    O    1  py     Ryd( 3p)     0.00141       1.23981
     8    O    1  pz     Val( 2p)     1.85016      -0.44307
     9    O    1  pz     Ryd( 3p)     0.00044       1.19194
    10    O    1  dxy    Ryd( 3d)     0.00054       2.53767
    11    O    1  dxz    Ryd( 3d)     0.00128       2.52244
    12    O    1  dyz    Ryd( 3d)     0.00143       2.72125
    13    O    1  dx2y2  Ryd( 3d)     0.00084       2.68975
    14    O    1  dz2    Ryd( 3d)     0.00130       2.36846

    15    O    2  S      Cor( 1S)     1.99986     -20.44502
    16    O    2  S      Val( 2S)     1.75921      -1.20820
    17    O    2  S      Ryd( 3S)     0.00113       1.63947
    18    O    2  px     Val( 2p)     1.88924      -0.51376
    19    O    2  px     Ryd( 3p)     0.00067       1.13295
    20    O    2  py     Val( 2p)     1.64169      -0.42575
    21    O    2  py     Ryd( 3p)     0.00200       1.21677
    22    O    2  pz     Val( 2p)     1.70662      -0.45347
    23    O    2  pz     Ryd( 3p)     0.00098       1.17497
    24    O    2  dxy    Ryd( 3d)     0.00100       2.64734
    25    O    2  dxz    Ryd( 3d)     0.00164       2.29662
    26    O    2  dyz    Ryd( 3d)     0.00107       2.61314
    27    O    2  dx2y2  Ryd( 3d)     0.00054       2.33090
    28    O    2  dz2    Ryd( 3d)     0.00174       2.65511

    29    H    3  S      Val( 1S)     0.46877       0.40487
    30    H    3  S      Ryd( 2S)     0.00045       0.75199
    31    H    3  px     Ryd( 2p)     0.00052       2.71476
    32    H    3  py     Ryd( 2p)     0.00132       3.09115
    33    H    3  pz     Ryd( 2p)     0.00108       2.93252

    34    H    4  S      Val( 1S)     0.46452       0.41644
    35    H    4  S      Ryd( 2S)     0.00051       0.78116
    36    H    4  px     Ryd( 2p)     0.00157       3.30030
    37    H    4  py     Ryd( 2p)     0.00068       2.73816
    38    H    4  pz     Ryd( 2p)     0.00076       2.73101

    39    H    5  S      Val( 1S)     0.47158       0.34042
    40    H    5  S      Ryd( 2S)     0.00074       0.71444
    41    H    5  px     Ryd( 2p)     0.00105       2.81022
    42    H    5  py     Ryd( 2p)     0.00139       3.14121
    43    H    5  pz     Ryd( 2p)     0.00058       2.61333

    44    H    6  S      Val( 1S)     0.51322       0.27367
    45    H    6  S      Ryd( 2S)     0.00106       0.67226
    46    H    6  px     Ryd( 2p)     0.00083       2.57816
    47    H    6  py     Ryd( 2p)     0.00088       2.76195
    48    H    6  pz     Ryd( 2p)     0.00136       3.14240


 Summary of Natural Population Analysis:                  
                                                          
                                       Natural Population 
                Natural  -----------------------------------------------
    Atom  No    Charge         Core      Valence    Rydberg      Total
 -----------------------------------------------------------------------
      O    1   -1.05974      1.99987     7.05041    0.00946     9.05974
      O    2   -1.00738      1.99986     6.99677    0.01076     9.00738
      H    3    0.52786      0.00000     0.46877    0.00337     0.47214
      H    4    0.53196      0.00000     0.46452    0.00352     0.46804
      H    5    0.52467      0.00000     0.47158    0.00375     0.47533
      H    6    0.48264      0.00000     0.51322    0.00414     0.51736
 =======================================================================
   * Total *    0.00000      3.99973    15.96527    0.03500    20.00000

                                 Natural Population      
 --------------------------------------------------------
   Core                       3.99973 ( 99.9933% of   4)
   Valence                   15.96527 ( 99.7830% of  16)
   Natural Minimal Basis     19.96500 ( 99.8250% of  20)
   Natural Rydberg Basis      0.03500 (  0.1750% of  20)
 --------------------------------------------------------

    Atom  No          Natural Electron Configuration
 ----------------------------------------------------------------------------
      O    1      [core]2S( 1.76)2p( 5.29)3d( 0.01)
      O    2      [core]2S( 1.76)2p( 5.24)3d( 0.01)
      H    3            1S( 0.47)
      H    4            1S( 0.46)
      H    5            1S( 0.47)
      H    6            1S( 0.51)


 NBO analysis skipped by request.
 Leave Link  607 at Fri May 15 22:36:16 2020, MaxMem=   134217728 cpu:               0.7 elap:               0.2
 (Enter /home/soft/g16/l9999.exe)

 Test job not archived.
 1\1\GINC-MASTER\SP\RHF\6-31G(d,p)\H4O2\LIWEI01\15-May-2020\0\\#p hf/6-
 31g** 5d 7f pop=npa charge nosymm\\Atom number=6\\0,1\O,0,8.392325,-11
 .812941,-11.200483\O,0,9.473772,-7.997188,-10.918041\H,0,8.175276,-12.
 537815,-10.614239\H,0,9.252154,-11.5141,-10.904475\H,0,9.99752,-8.7956
 27,-10.851588\H,0,9.62339,-7.542356,-10.089201\\Version=ES64L-G16RevA.
 03\HF=-166.6599102\RMSD=1.815e-09\Dipole=1.1436498,-0.7171589,1.427893
 6\Quadrupole=36.377074,25.7338139,-62.1108879,-33.2352537,0.6352088,-1
 2.2125086\PG=C01 [X(H4O2)]\\@


 THE CHYMISTS ARE A STRANGE CLASS OF MORTALS IMPELLED
 BY AN ALMOST INSANE IMPULSE TO SEEK THEIR PLEASURE
 AMONG SMOKE AND VAPOR, SOOT AND FLAME, POISONS AND
 POVERTY; YET AMONG ALL THESE EVILS I SEEM TO LIVE
 SO SWEETLY, THAT I MAY DIE IF I WOULD CHANGE PLACES
 WITH THE PERSIAN KING.
   --  JOHANN JOACHIM BECHER, 1635-1682
 ACTA LABORATORII CHYMICA MONACENSIS, 1669
 Job cpu time:       0 days  0 hours  0 minutes  4.9 seconds.
 Elapsed time:       0 days  0 hours  0 minutes  1.4 seconds.
 File lengths (MBytes):  RWF=     72 Int=      0 D2E=      0 Chk=      8 Scr=      8
 Normal termination of Gaussian 16 at Fri May 15 22:36:16 2020.
