#INFO: **** input file is /home/liwei01/wsr/dftpart/test_2body/w32/gfea_c8.py ****
from dftpart import gfea3
from pyscf import lib

par = 8
with lib.with_omp_threads(par):
    fr0 = gfea3.GFEA()
    fr0.inputstyle = 'frg'
    fr0.method = ['hf', '6-31gss','charge']
    fr0.gjfname = 'w32'
    fr0.output = 'w32'
    fr0.verbose = 9
    fr0.showinter = True
    #fr0.do_deriv = True
    fr0.kernel()

#INFO: ******************** input file end ********************


System: uname_result(system='Linux', node='master', release='3.10.0-693.el7.x86_64', version='#1 SMP Tue Aug 22 21:09:27 UTC 2017', machine='x86_64', processor='x86_64')  Threads 8
Python 3.7.6 (default, Jan  8 2020, 19:59:22) 
[GCC 7.3.0]
numpy 1.18.1  scipy 1.4.1
Date: Tue Jun 16 20:53:53 2020
PySCF version 1.6.1
PySCF path  /home/liwei01/zcheng/pyscf/pyscf
GIT HEAD      ref: refs/heads/master
GIT master branch  3adc7fd25839fe674469a52b764c3661e32d7318

[CONFIG] DEBUG = False
[CONFIG] MAX_MEMORY = 4000
[CONFIG] TMPDIR = .
[CONFIG] UNIT = angstrom
[CONFIG] VERBOSE = 3
[CONFIG] conf_file = None
[INPUT] verbose = 9
[INPUT] max_memory = 4000 
[INPUT] num. atoms = 30
[INPUT] num. electrons = 100
[INPUT] charge = 0
[INPUT] spin (= nelec alpha-beta = 2S) = 0
[INPUT] symmetry False subgroup None
[INPUT] Mole.unit = angstrom
[INPUT]  1 O      8.392325000000 -11.812941000000 -11.200483000000 AA   15.859195798340 -22.323223215646 -21.165845332847 Bohr
[INPUT]  2 O      8.693246000000 -14.069272000000  -9.547113000000 AA   16.427854073471 -26.587070852012 -18.041428850275 Bohr
[INPUT]  3 O      5.570392000000 -12.760041000000 -10.733807000000 AA   10.526515286468 -24.112982828221 -20.283955503939 Bohr
[INPUT]  4 O      6.942642000000 -11.829381000000  -8.371044000000 AA   13.119691960903 -22.354290313134 -15.818980536684 Bohr
[INPUT]  5 O      9.739714000000 -14.560219000000 -13.084136000000 AA   18.405391991592 -27.514826223689 -24.725433616562 Bohr
[INPUT]  6 O      8.801253000000 -12.425877000000  -6.497294000000 AA   16.631957723007 -23.481504387532 -12.278106210780 Bohr
[INPUT]  7 O      5.591380000000 -15.533488000000  -8.700217000000 AA   10.566176858371 -29.354038079218 -16.441027354285 Bohr
[INPUT]  8 O      8.961140000000 -17.016740000000  -9.275474000000 AA   16.934100363885 -32.156978132931 -17.528105535524 Bohr
[INPUT]  9 O     11.471495000000 -15.355316000000  -7.518016000000 AA   21.677983789317 -29.017341796152 -14.206991240098 Bohr
[INPUT] 10 O     11.324452000000 -17.011592000000 -10.762770000000 AA   21.400112790783 -32.147249822842 -20.338687641685 Bohr
[INPUT] 11 H      8.175276000000 -12.537815000000 -10.614239000000 AA   15.449032632730 -23.693036550464 -20.058004730677 Bohr
[INPUT] 12 H      9.252154000000 -11.514100000000 -10.904475000000 AA   17.484037122299 -21.758495570855 -20.606471282167 Bohr
[INPUT] 13 H      8.220090000000 -13.732742000000  -8.786125000000 AA   15.533718819276 -25.951121319312 -16.603369946194 Bohr
[INPUT] 14 H      8.552802000000 -15.015659000000  -9.517782000000 AA   16.162453377632 -28.375483089860 -17.986001293315 Bohr
[INPUT] 15 H      4.642708000000 -12.827827000000 -10.507888000000 AA    8.773446596327 -24.241079803301 -19.857030467604 Bohr
[INPUT] 16 H      5.983752000000 -12.405170000000  -9.946767000000 AA   11.307652477318 -23.442373828671 -18.796665454862 Bohr
[INPUT] 17 H      7.495574000000 -12.091052000000  -7.634819000000 AA   14.164582006411 -22.848776837875 -14.427716920626 Bohr
[INPUT] 18 H      7.307461000000 -10.992840000000  -8.659728000000 AA   13.809099955940 -20.773456931164 -16.364514233228 Bohr
[INPUT] 19 H      9.436683000000 -13.920876000000 -12.439430000000 AA   17.832746394339 -26.306643054031 -23.507115845698 Bohr
[INPUT] 20 H     10.652707000000 -14.322974000000 -13.246584000000 AA   20.130698715237 -27.066498149266 -25.032415846046 Bohr
[INPUT] 21 H      9.055634000000 -11.748983000000  -5.870127000000 AA   17.112668144300 -22.202360112171 -11.092932346415 Bohr
[INPUT] 22 H      8.939496000000 -13.249901000000  -6.030278000000 AA   16.893199131645 -25.038684067601 -11.395573874990 Bohr
[INPUT] 23 H      6.309279000000 -16.070726000000  -8.365208000000 AA   11.922809353470 -30.369270762927 -15.807952095021 Bohr
[INPUT] 24 H      5.476258000000 -15.823936000000  -9.604992000000 AA   10.348627807458 -29.902905252646 -18.150804308638 Bohr
[INPUT] 25 H      8.673584000000 -17.219063000000  -8.385188000000 AA   16.390698278410 -32.539313191632 -15.845708822989 Bohr
[INPUT] 26 H      8.302553000000 -17.423375000000  -9.838628000000 AA   15.689551304686 -32.925406915594 -18.592312361477 Bohr
[INPUT] 27 H     10.864403000000 -15.355750000000  -8.258065000000 AA   20.530746176903 -29.018161937290 -15.605481168856 Bohr
[INPUT] 28 H     11.907538000000 -14.504542000000  -7.565812000000 AA   22.501985637851 -27.409611942251 -14.297312589948 Bohr
[INPUT] 29 H     11.716545000000 -17.863306000000 -10.570212000000 AA   22.141061176142 -33.756756019300 -19.974805758591 Bohr
[INPUT] 30 H     10.442780000000 -17.064361000000 -10.393850000000 AA   19.733994179086 -32.246968780709 -19.641529879811 Bohr
[INPUT] ---------------- BASIS SET ---------------- 
[INPUT] l, kappa, [nprim/nctr], expnt,             c_1 c_2 ...
[INPUT] H
[INPUT] 0    0    [3    /1   ]  18.731137         0.0334946
                                2.8253937         0.23472695
                                0.6401217         0.81375733
[INPUT] 0    0    [1    /1   ]  0.1612778            1
[INPUT] 1    0    [1    /1   ]  1.1                  1
[INPUT] O
[INPUT] 0    0    [6    /1   ]  5484.6717         0.0018311
                                825.23495         0.0139501
                                188.04696         0.0684451
                                52.9645           0.2327143
                                16.89757          0.470193
                                5.7996353         0.3585209
[INPUT] 0    0    [3    /1   ]  15.539616         -0.1107775
                                3.5999336         -0.1480263
                                1.0137618         1.130767
[INPUT] 0    0    [1    /1   ]  0.2700058            1
[INPUT] 1    0    [3    /1   ]  15.539616         0.0708743
                                3.5999336         0.3397528
                                1.0137618         0.7271586
[INPUT] 1    0    [1    /1   ]  0.2700058            1
[INPUT] 2    0    [1    /1   ]  0.8                  1

nuclear repulsion = 647.7211194782
number of shells = 120
number of NR pGTOs = 410
number of NR cGTOs = 240
basis = 6-31gss
ecp = {}
bas 0, expnt(s) = [5484.6717     825.23495    188.04696     52.9645      16.89757
    5.7996353]
bas 1, expnt(s) = [15.539616   3.5999336  1.0137618]
bas 2, expnt(s) = [0.2700058]
bas 3, expnt(s) = [15.539616   3.5999336  1.0137618]
bas 4, expnt(s) = [0.2700058]
bas 5, expnt(s) = [0.8]
bas 6, expnt(s) = [5484.6717     825.23495    188.04696     52.9645      16.89757
    5.7996353]
bas 7, expnt(s) = [15.539616   3.5999336  1.0137618]
bas 8, expnt(s) = [0.2700058]
bas 9, expnt(s) = [15.539616   3.5999336  1.0137618]
bas 10, expnt(s) = [0.2700058]
bas 11, expnt(s) = [0.8]
bas 12, expnt(s) = [5484.6717     825.23495    188.04696     52.9645      16.89757
    5.7996353]
bas 13, expnt(s) = [15.539616   3.5999336  1.0137618]
bas 14, expnt(s) = [0.2700058]
bas 15, expnt(s) = [15.539616   3.5999336  1.0137618]
bas 16, expnt(s) = [0.2700058]
bas 17, expnt(s) = [0.8]
bas 18, expnt(s) = [5484.6717     825.23495    188.04696     52.9645      16.89757
    5.7996353]
bas 19, expnt(s) = [15.539616   3.5999336  1.0137618]
bas 20, expnt(s) = [0.2700058]
bas 21, expnt(s) = [15.539616   3.5999336  1.0137618]
bas 22, expnt(s) = [0.2700058]
bas 23, expnt(s) = [0.8]
bas 24, expnt(s) = [5484.6717     825.23495    188.04696     52.9645      16.89757
    5.7996353]
bas 25, expnt(s) = [15.539616   3.5999336  1.0137618]
bas 26, expnt(s) = [0.2700058]
bas 27, expnt(s) = [15.539616   3.5999336  1.0137618]
bas 28, expnt(s) = [0.2700058]
bas 29, expnt(s) = [0.8]
bas 30, expnt(s) = [5484.6717     825.23495    188.04696     52.9645      16.89757
    5.7996353]
bas 31, expnt(s) = [15.539616   3.5999336  1.0137618]
bas 32, expnt(s) = [0.2700058]
bas 33, expnt(s) = [15.539616   3.5999336  1.0137618]
bas 34, expnt(s) = [0.2700058]
bas 35, expnt(s) = [0.8]
bas 36, expnt(s) = [5484.6717     825.23495    188.04696     52.9645      16.89757
    5.7996353]
bas 37, expnt(s) = [15.539616   3.5999336  1.0137618]
bas 38, expnt(s) = [0.2700058]
bas 39, expnt(s) = [15.539616   3.5999336  1.0137618]
bas 40, expnt(s) = [0.2700058]
bas 41, expnt(s) = [0.8]
bas 42, expnt(s) = [5484.6717     825.23495    188.04696     52.9645      16.89757
    5.7996353]
bas 43, expnt(s) = [15.539616   3.5999336  1.0137618]
bas 44, expnt(s) = [0.2700058]
bas 45, expnt(s) = [15.539616   3.5999336  1.0137618]
bas 46, expnt(s) = [0.2700058]
bas 47, expnt(s) = [0.8]
bas 48, expnt(s) = [5484.6717     825.23495    188.04696     52.9645      16.89757
    5.7996353]
bas 49, expnt(s) = [15.539616   3.5999336  1.0137618]
bas 50, expnt(s) = [0.2700058]
bas 51, expnt(s) = [15.539616   3.5999336  1.0137618]
bas 52, expnt(s) = [0.2700058]
bas 53, expnt(s) = [0.8]
bas 54, expnt(s) = [5484.6717     825.23495    188.04696     52.9645      16.89757
    5.7996353]
bas 55, expnt(s) = [15.539616   3.5999336  1.0137618]
bas 56, expnt(s) = [0.2700058]
bas 57, expnt(s) = [15.539616   3.5999336  1.0137618]
bas 58, expnt(s) = [0.2700058]
bas 59, expnt(s) = [0.8]
bas 60, expnt(s) = [18.731137   2.8253937  0.6401217]
bas 61, expnt(s) = [0.1612778]
bas 62, expnt(s) = [1.1]
bas 63, expnt(s) = [18.731137   2.8253937  0.6401217]
bas 64, expnt(s) = [0.1612778]
bas 65, expnt(s) = [1.1]
bas 66, expnt(s) = [18.731137   2.8253937  0.6401217]
bas 67, expnt(s) = [0.1612778]
bas 68, expnt(s) = [1.1]
bas 69, expnt(s) = [18.731137   2.8253937  0.6401217]
bas 70, expnt(s) = [0.1612778]
bas 71, expnt(s) = [1.1]
bas 72, expnt(s) = [18.731137   2.8253937  0.6401217]
bas 73, expnt(s) = [0.1612778]
bas 74, expnt(s) = [1.1]
bas 75, expnt(s) = [18.731137   2.8253937  0.6401217]
bas 76, expnt(s) = [0.1612778]
bas 77, expnt(s) = [1.1]
bas 78, expnt(s) = [18.731137   2.8253937  0.6401217]
bas 79, expnt(s) = [0.1612778]
bas 80, expnt(s) = [1.1]
bas 81, expnt(s) = [18.731137   2.8253937  0.6401217]
bas 82, expnt(s) = [0.1612778]
bas 83, expnt(s) = [1.1]
bas 84, expnt(s) = [18.731137   2.8253937  0.6401217]
bas 85, expnt(s) = [0.1612778]
bas 86, expnt(s) = [1.1]
bas 87, expnt(s) = [18.731137   2.8253937  0.6401217]
bas 88, expnt(s) = [0.1612778]
bas 89, expnt(s) = [1.1]
bas 90, expnt(s) = [18.731137   2.8253937  0.6401217]
bas 91, expnt(s) = [0.1612778]
bas 92, expnt(s) = [1.1]
bas 93, expnt(s) = [18.731137   2.8253937  0.6401217]
bas 94, expnt(s) = [0.1612778]
bas 95, expnt(s) = [1.1]
bas 96, expnt(s) = [18.731137   2.8253937  0.6401217]
bas 97, expnt(s) = [0.1612778]
bas 98, expnt(s) = [1.1]
bas 99, expnt(s) = [18.731137   2.8253937  0.6401217]
bas 100, expnt(s) = [0.1612778]
bas 101, expnt(s) = [1.1]
bas 102, expnt(s) = [18.731137   2.8253937  0.6401217]
bas 103, expnt(s) = [0.1612778]
bas 104, expnt(s) = [1.1]
bas 105, expnt(s) = [18.731137   2.8253937  0.6401217]
bas 106, expnt(s) = [0.1612778]
bas 107, expnt(s) = [1.1]
bas 108, expnt(s) = [18.731137   2.8253937  0.6401217]
bas 109, expnt(s) = [0.1612778]
bas 110, expnt(s) = [1.1]
bas 111, expnt(s) = [18.731137   2.8253937  0.6401217]
bas 112, expnt(s) = [0.1612778]
bas 113, expnt(s) = [1.1]
bas 114, expnt(s) = [18.731137   2.8253937  0.6401217]
bas 115, expnt(s) = [0.1612778]
bas 116, expnt(s) = [1.1]
bas 117, expnt(s) = [18.731137   2.8253937  0.6401217]
bas 118, expnt(s) = [0.1612778]
bas 119, expnt(s) = [1.1]
CPU time:       150.31
arg.atm = [[  8  20   1  23   0   0]
 [  8  24   1  27   0   0]
 [  8  28   1  31   0   0]
 [  8  32   1  35   0   0]
 [  8  36   1  39   0   0]
 [  8  40   1  43   0   0]
 [  8  44   1  47   0   0]
 [  8  48   1  51   0   0]
 [  8  52   1  55   0   0]
 [  8  56   1  59   0   0]
 [  1  60   1  63   0   0]
 [  1  64   1  67   0   0]
 [  1  68   1  71   0   0]
 [  1  72   1  75   0   0]
 [  1  76   1  79   0   0]
 [  1  80   1  83   0   0]
 [  1  84   1  87   0   0]
 [  1  88   1  91   0   0]
 [  1  92   1  95   0   0]
 [  1  96   1  99   0   0]
 [  1 100   1 103   0   0]
 [  1 104   1 107   0   0]
 [  1 108   1 111   0   0]
 [  1 112   1 115   0   0]
 [  1 116   1 119   0   0]
 [  1 120   1 123   0   0]
 [  1 124   1 127   0   0]
 [  1 128   1 131   0   0]
 [  1 132   1 135   0   0]
 [  1 136   1 139   0   0]]
arg.bas = [[  0   0   6   1   0 150 156   0]
 [  0   0   3   1   0 162 165   0]
 [  0   0   1   1   0 168 169   0]
 [  0   1   3   1   0 170 173   0]
 [  0   1   1   1   0 176 177   0]
 [  0   2   1   1   0 178 179   0]
 [  1   0   6   1   0 150 156   0]
 [  1   0   3   1   0 162 165   0]
 [  1   0   1   1   0 168 169   0]
 [  1   1   3   1   0 170 173   0]
 [  1   1   1   1   0 176 177   0]
 [  1   2   1   1   0 178 179   0]
 [  2   0   6   1   0 150 156   0]
 [  2   0   3   1   0 162 165   0]
 [  2   0   1   1   0 168 169   0]
 [  2   1   3   1   0 170 173   0]
 [  2   1   1   1   0 176 177   0]
 [  2   2   1   1   0 178 179   0]
 [  3   0   6   1   0 150 156   0]
 [  3   0   3   1   0 162 165   0]
 [  3   0   1   1   0 168 169   0]
 [  3   1   3   1   0 170 173   0]
 [  3   1   1   1   0 176 177   0]
 [  3   2   1   1   0 178 179   0]
 [  4   0   6   1   0 150 156   0]
 [  4   0   3   1   0 162 165   0]
 [  4   0   1   1   0 168 169   0]
 [  4   1   3   1   0 170 173   0]
 [  4   1   1   1   0 176 177   0]
 [  4   2   1   1   0 178 179   0]
 [  5   0   6   1   0 150 156   0]
 [  5   0   3   1   0 162 165   0]
 [  5   0   1   1   0 168 169   0]
 [  5   1   3   1   0 170 173   0]
 [  5   1   1   1   0 176 177   0]
 [  5   2   1   1   0 178 179   0]
 [  6   0   6   1   0 150 156   0]
 [  6   0   3   1   0 162 165   0]
 [  6   0   1   1   0 168 169   0]
 [  6   1   3   1   0 170 173   0]
 [  6   1   1   1   0 176 177   0]
 [  6   2   1   1   0 178 179   0]
 [  7   0   6   1   0 150 156   0]
 [  7   0   3   1   0 162 165   0]
 [  7   0   1   1   0 168 169   0]
 [  7   1   3   1   0 170 173   0]
 [  7   1   1   1   0 176 177   0]
 [  7   2   1   1   0 178 179   0]
 [  8   0   6   1   0 150 156   0]
 [  8   0   3   1   0 162 165   0]
 [  8   0   1   1   0 168 169   0]
 [  8   1   3   1   0 170 173   0]
 [  8   1   1   1   0 176 177   0]
 [  8   2   1   1   0 178 179   0]
 [  9   0   6   1   0 150 156   0]
 [  9   0   3   1   0 162 165   0]
 [  9   0   1   1   0 168 169   0]
 [  9   1   3   1   0 170 173   0]
 [  9   1   1   1   0 176 177   0]
 [  9   2   1   1   0 178 179   0]
 [ 10   0   3   1   0 140 143   0]
 [ 10   0   1   1   0 146 147   0]
 [ 10   1   1   1   0 148 149   0]
 [ 11   0   3   1   0 140 143   0]
 [ 11   0   1   1   0 146 147   0]
 [ 11   1   1   1   0 148 149   0]
 [ 12   0   3   1   0 140 143   0]
 [ 12   0   1   1   0 146 147   0]
 [ 12   1   1   1   0 148 149   0]
 [ 13   0   3   1   0 140 143   0]
 [ 13   0   1   1   0 146 147   0]
 [ 13   1   1   1   0 148 149   0]
 [ 14   0   3   1   0 140 143   0]
 [ 14   0   1   1   0 146 147   0]
 [ 14   1   1   1   0 148 149   0]
 [ 15   0   3   1   0 140 143   0]
 [ 15   0   1   1   0 146 147   0]
 [ 15   1   1   1   0 148 149   0]
 [ 16   0   3   1   0 140 143   0]
 [ 16   0   1   1   0 146 147   0]
 [ 16   1   1   1   0 148 149   0]
 [ 17   0   3   1   0 140 143   0]
 [ 17   0   1   1   0 146 147   0]
 [ 17   1   1   1   0 148 149   0]
 [ 18   0   3   1   0 140 143   0]
 [ 18   0   1   1   0 146 147   0]
 [ 18   1   1   1   0 148 149   0]
 [ 19   0   3   1   0 140 143   0]
 [ 19   0   1   1   0 146 147   0]
 [ 19   1   1   1   0 148 149   0]
 [ 20   0   3   1   0 140 143   0]
 [ 20   0   1   1   0 146 147   0]
 [ 20   1   1   1   0 148 149   0]
 [ 21   0   3   1   0 140 143   0]
 [ 21   0   1   1   0 146 147   0]
 [ 21   1   1   1   0 148 149   0]
 [ 22   0   3   1   0 140 143   0]
 [ 22   0   1   1   0 146 147   0]
 [ 22   1   1   1   0 148 149   0]
 [ 23   0   3   1   0 140 143   0]
 [ 23   0   1   1   0 146 147   0]
 [ 23   1   1   1   0 148 149   0]
 [ 24   0   3   1   0 140 143   0]
 [ 24   0   1   1   0 146 147   0]
 [ 24   1   1   1   0 148 149   0]
 [ 25   0   3   1   0 140 143   0]
 [ 25   0   1   1   0 146 147   0]
 [ 25   1   1   1   0 148 149   0]
 [ 26   0   3   1   0 140 143   0]
 [ 26   0   1   1   0 146 147   0]
 [ 26   1   1   1   0 148 149   0]
 [ 27   0   3   1   0 140 143   0]
 [ 27   0   1   1   0 146 147   0]
 [ 27   1   1   1   0 148 149   0]
 [ 28   0   3   1   0 140 143   0]
 [ 28   0   1   1   0 146 147   0]
 [ 28   1   1   1   0 148 149   0]
 [ 29   0   3   1   0 140 143   0]
 [ 29   0   1   1   0 146 147   0]
 [ 29   1   1   1   0 148 149   0]]
arg.env = [ 1.37036000e+02  0.00000000e+00  0.00000000e+00  0.00000000e+00
  0.00000000e+00  0.00000000e+00  0.00000000e+00  0.00000000e+00
  0.00000000e+00  0.00000000e+00  0.00000000e+00  0.00000000e+00
  0.00000000e+00  0.00000000e+00  0.00000000e+00  0.00000000e+00
  0.00000000e+00  0.00000000e+00  0.00000000e+00  0.00000000e+00
  1.58591958e+01 -2.23232232e+01 -2.11658453e+01  0.00000000e+00
  1.64278541e+01 -2.65870709e+01 -1.80414289e+01  0.00000000e+00
  1.05265153e+01 -2.41129828e+01 -2.02839555e+01  0.00000000e+00
  1.31196920e+01 -2.23542903e+01 -1.58189805e+01  0.00000000e+00
  1.84053920e+01 -2.75148262e+01 -2.47254336e+01  0.00000000e+00
  1.66319577e+01 -2.34815044e+01 -1.22781062e+01  0.00000000e+00
  1.05661769e+01 -2.93540381e+01 -1.64410274e+01  0.00000000e+00
  1.69341004e+01 -3.21569781e+01 -1.75281055e+01  0.00000000e+00
  2.16779838e+01 -2.90173418e+01 -1.42069912e+01  0.00000000e+00
  2.14001128e+01 -3.21472498e+01 -2.03386876e+01  0.00000000e+00
  1.54490326e+01 -2.36930366e+01 -2.00580047e+01  0.00000000e+00
  1.74840371e+01 -2.17584956e+01 -2.06064713e+01  0.00000000e+00
  1.55337188e+01 -2.59511213e+01 -1.66033699e+01  0.00000000e+00
  1.61624534e+01 -2.83754831e+01 -1.79860013e+01  0.00000000e+00
  8.77344660e+00 -2.42410798e+01 -1.98570305e+01  0.00000000e+00
  1.13076525e+01 -2.34423738e+01 -1.87966655e+01  0.00000000e+00
  1.41645820e+01 -2.28487768e+01 -1.44277169e+01  0.00000000e+00
  1.38091000e+01 -2.07734569e+01 -1.63645142e+01  0.00000000e+00
  1.78327464e+01 -2.63066431e+01 -2.35071158e+01  0.00000000e+00
  2.01306987e+01 -2.70664981e+01 -2.50324158e+01  0.00000000e+00
  1.71126681e+01 -2.22023601e+01 -1.10929323e+01  0.00000000e+00
  1.68931991e+01 -2.50386841e+01 -1.13955739e+01  0.00000000e+00
  1.19228094e+01 -3.03692708e+01 -1.58079521e+01  0.00000000e+00
  1.03486278e+01 -2.99029053e+01 -1.81508043e+01  0.00000000e+00
  1.63906983e+01 -3.25393132e+01 -1.58457088e+01  0.00000000e+00
  1.56895513e+01 -3.29254069e+01 -1.85923124e+01  0.00000000e+00
  2.05307462e+01 -2.90181619e+01 -1.56054812e+01  0.00000000e+00
  2.25019856e+01 -2.74096119e+01 -1.42973126e+01  0.00000000e+00
  2.21410612e+01 -3.37567560e+01 -1.99748058e+01  0.00000000e+00
  1.97339942e+01 -3.22469688e+01 -1.96415299e+01  0.00000000e+00
  1.87311370e+01  2.82539370e+00  6.40121700e-01  7.61926220e-01
  1.29237100e+00  1.47131900e+00  1.61277800e-01  6.42977783e-01
  1.10000000e+00  3.28643653e+00  5.48467170e+03  8.25234950e+02
  1.88046960e+02  5.29645000e+01  1.68975700e+01  5.79963530e+00
  2.94842455e+00  5.42657124e+00  8.78126489e+00  1.15432129e+01
  9.90055015e+00  3.38516599e+00  1.55396160e+01  3.59993360e+00
  1.01376180e+00 -2.19051792e+00 -9.77405528e-01  2.88629094e+00
  2.70005800e-01  9.46334873e-01  1.55396160e+01  3.59993360e+00
  1.01376180e+00  6.37930734e+00  4.91490975e+00  2.15791055e+00
  2.70005800e-01  5.67807022e-01  8.00000000e-01  1.76578110e+00]
ecpbas  = []


******** <class 'pyscf.qmmm.itrf.mm_charge.<locals>.QMMM'> ********
method = QMMM-RHF
initial guess = minao
damping factor = 0
level shift factor = 0
DIIS = <class 'pyscf.scf.diis.CDIIS'>
DIIS start cycle = 1
DIIS space = 8
SCF tol = 1e-09
SCF gradient tol = None
max. SCF cycles = 50
direct_scf = True
direct_scf_tol = 1e-13
chkfile to save SCF result = /home/liwei01/wsr/dftpart/test_2body/w32/tmpm4fdsz2e
max_memory 4000 MB (current use 285 MB)
** Add background charges for <class 'pyscf.scf.hf.RHF'> **
Charge      Location
-1.035697    [ 20.23144001 -20.50137794 -19.07019386]
0.520608    [ 21.7723038  -21.39222885 -18.74761761]
0.515624    [ 19.97024207 -19.49608333 -17.58928542]
-1.024266    [ 13.70105109 -18.63199472 -24.76194313]
0.515186    [ 13.45609723 -19.31578456 -26.41855264]
0.515422    [ 13.87339411 -20.08163576 -23.69387937]
-1.032359    [ 13.1641969  -17.47579981 -19.41562257]
0.514165    [ 13.18112696 -18.60438393 -20.82910748]
0.518479    [ 14.52136419 -16.32434621 -19.73837456]
-1.054902    [ 19.05772167 -18.14703431 -25.87868434]
0.517977    [ 18.59105569 -18.66655214 -27.54728983]
0.522623    [ 17.51229609 -18.19498233 -24.93991564]
-0.997115    [ 17.90283445 -15.11249509 -20.63210731]
0.530073    [ 18.89257472 -16.62132612 -20.50652934]
0.49195    [ 18.18557149 -14.25298717 -19.06582671]
-1.032188    [ 15.97118286 -20.09833149 -29.6421136 ]
0.47982    [ 15.3540909  -19.66610766 -31.28659296]
0.534069    [ 17.50300052 -21.00734455 -29.95701189]
-0.992133    [  7.63287216 -21.21078113 -24.19682809]
0.480184    [  8.55071592 -22.76668147 -24.10379498]
0.504586    [  8.37549106 -20.32880248 -25.59058803]
-1.012936    [ 10.55365553 -29.46492154 -21.67488842]
0.504954    [  8.84108934 -29.00412127 -22.03084479]
0.525721    [ 11.34418277 -27.91794449 -21.17105153]
-0.979947    [ 19.94097588 -17.12125506 -14.67509908]
0.500341    [ 18.95312155 -17.86288753 -13.35371942]
0.493696    [ 19.00620207 -15.6543646  -15.17143564]
-0.982261    [ 16.04742575 -26.75780005 -29.6895325 ]
0.479882    [ 16.71262824 -28.42851069 -29.88488293]
0.495008    [ 16.8532352  -26.12000803 -28.20097066]
-0.983713    [ 20.17321188 -22.53529584 -29.89394228]
0.505479    [ 21.06170253 -23.16751127 -28.4507471 ]
0.512532    [ 20.35114661 -23.83370776 -31.14069287]
-1.011239    [ 14.66303696 -31.18986921 -25.03135193]
0.492592    [ 13.80996545 -30.6346091  -23.53606456]
0.497341    [ 16.13314373 -30.14067248 -25.13086491]
-0.999332    [ 25.43111026 -22.24828235 -18.47023794]
0.512801    [ 26.28398524 -20.77981964 -19.09325419]
0.507583    [ 26.7410892  -23.47726762 -18.25698991]
-0.976012    [ 10.09067452 -21.18806662 -29.24260093]
0.486289    [ 11.11173701 -19.76402949 -29.69146191]
0.496485    [ 10.37375928 -22.38512875 -30.56881072]
-0.977833    [ 24.5589393  -27.80514674 -21.18389789]
0.50587    [ 23.21796885 -28.65180829 -20.31390388]
0.463809    [ 25.76766104 -27.42438582 -19.8931866 ]
-0.989717    [  8.77070649 -15.37911655 -23.94499373]
0.487556    [  8.68859978 -13.74216775 -23.17975481]
0.496916    [ 10.53805395 -15.75730555 -24.01835668]
-0.998393    [ 24.35861321 -18.31258187 -25.98586582]
0.466984    [ 25.48944989 -18.60606579 -24.60492389]
0.51604    [ 22.70911474 -18.4111103  -25.25008395]
-1.010464    [  9.27281806 -14.9477601  -17.25327322]
0.476424    [  7.6789399  -15.16789619 -18.07972415]
0.517552    [ 10.24747455 -16.38576609 -17.75736144]
-0.991473    [  5.5836248  -24.00414405 -18.66237963]
0.501887    [  5.79022289 -25.52045085 -17.69798247]
0.510487    [  5.17491673 -22.73885336 -17.43603619]
-1.029267    [  7.95719829 -25.19119252 -14.2761212 ]
0.497876    [  9.38018663 -24.0850659  -14.1227926 ]
0.519667    [  8.66153702 -26.76190075 -14.83174226]
-1.001943    [ 16.13613705 -11.83176802 -24.46883904]
0.509813    [ 16.78082846 -12.94299123 -23.1954641 ]
0.477312    [ 17.5304658  -11.57071369 -25.59117007]
-0.9959    [ 24.21450458 -24.60133719 -13.9203349 ]
0.499354    [ 23.58737251 -23.46499007 -12.66043371]
0.511038    [ 23.91476757 -23.75039163 -15.48812918]
Set gradient conv threshold to 3.16228e-05
Nelec from initial guess = 99.89800371707256
cond(S) = 193.51490413245642
E1 = -2330.748311343961  E_coul = 920.1459530800173
init E= -758.78698847826
    CPU time for initialize scf     16.30 sec, wall time      2.05 sec
  HOMO = -0.498410353620505  LUMO = -0.00517370410760912
  mo_energy =
[-2.09014181e+01 -2.08656661e+01 -2.08590700e+01 -2.08538993e+01
 -2.08531756e+01 -2.08530465e+01 -2.08529420e+01 -2.08474487e+01
 -2.08278145e+01 -2.08246212e+01 -1.72604556e+00 -1.71204456e+00
 -1.69591696e+00 -1.68492521e+00 -1.67632619e+00 -1.67030462e+00
 -1.65626834e+00 -1.64491602e+00 -1.64039390e+00 -1.63805728e+00
 -8.42832512e-01 -8.38057571e-01 -8.35122062e-01 -8.16774898e-01
 -8.09129058e-01 -8.06046611e-01 -7.91400863e-01 -7.84661638e-01
 -7.82803766e-01 -7.64072245e-01 -6.92303268e-01 -6.83423778e-01
 -6.76169513e-01 -6.62731948e-01 -6.56468848e-01 -6.46412531e-01
 -6.28721381e-01 -6.12380299e-01 -6.05007495e-01 -6.00691406e-01
 -5.74407735e-01 -5.46228887e-01 -5.41659931e-01 -5.33862487e-01
 -5.32553378e-01 -5.26923981e-01 -5.25170930e-01 -5.18028363e-01
 -5.08890013e-01 -4.98410354e-01 -5.17370411e-03  4.39095999e-02
  5.35412541e-02  8.54010708e-02  1.05272382e-01  1.27225885e-01
  1.48348270e-01  1.55049309e-01  1.62177584e-01  1.79828471e-01
  1.85746948e-01  1.90033121e-01  2.08014298e-01  2.39515827e-01
  2.45660073e-01  2.59904802e-01  2.70627480e-01  2.78371089e-01
  2.92141908e-01  3.16715640e-01  7.93959223e-01  8.14205692e-01
  8.38952967e-01  8.48700766e-01  8.61059801e-01  8.63717052e-01
  8.76958751e-01  8.93494737e-01  9.03253028e-01  9.18740930e-01
  9.23042554e-01  9.28368783e-01  9.38159786e-01  9.43872415e-01
  9.52299142e-01  9.56998425e-01  9.64333800e-01  9.73372126e-01
  9.75669187e-01  9.85541378e-01  9.95322881e-01  9.98800903e-01
  1.00917813e+00  1.01753562e+00  1.02548683e+00  1.03561750e+00
  1.04322344e+00  1.04849145e+00  1.05477044e+00  1.06489620e+00
  1.06987204e+00  1.08064176e+00  1.10014905e+00  1.10285533e+00
  1.12130496e+00  1.13315998e+00  1.14057779e+00  1.15268606e+00
  1.16420717e+00  1.17870170e+00  1.18552252e+00  1.18820237e+00
  1.20785790e+00  1.23352459e+00  1.25149900e+00  1.26174230e+00
  1.26378369e+00  1.27967292e+00  1.31430264e+00  1.32524967e+00
  1.42744159e+00  1.45955092e+00  1.47482451e+00  1.50774634e+00
  1.52911311e+00  1.56094377e+00  1.56887589e+00  1.60277191e+00
  1.62991861e+00  1.63127790e+00  1.63553643e+00  1.64087899e+00
  1.66252626e+00  1.66636823e+00  1.67033901e+00  1.67204519e+00
  1.67694497e+00  1.67915449e+00  1.68269871e+00  1.68688164e+00
  1.69552972e+00  1.69899914e+00  1.70148478e+00  1.70994102e+00
  1.72259215e+00  1.72388533e+00  1.73091977e+00  1.73500071e+00
  1.74035384e+00  1.75841967e+00  1.76245021e+00  1.76886322e+00
  1.77162876e+00  1.79057966e+00  1.79780284e+00  1.81130708e+00
  1.85005079e+00  1.88399459e+00  1.92700765e+00  1.98172987e+00
  2.40379504e+00  2.43680228e+00  2.44195530e+00  2.44896588e+00
  2.45404691e+00  2.46695779e+00  2.47279428e+00  2.48007420e+00
  2.48333729e+00  2.48769390e+00  2.50049926e+00  2.51944476e+00
  2.52323926e+00  2.52550683e+00  2.53695548e+00  2.54440137e+00
  2.55418344e+00  2.56436162e+00  2.58565730e+00  2.60599937e+00
  2.63795518e+00  2.67363559e+00  2.67963163e+00  2.69153308e+00
  2.69624859e+00  2.72615915e+00  2.72761469e+00  2.74870511e+00
  2.76673299e+00  2.79531155e+00  2.82848875e+00  2.84765528e+00
  2.85821515e+00  2.86402822e+00  2.86753742e+00  2.87954591e+00
  2.88047802e+00  2.88147460e+00  2.88710145e+00  2.89022944e+00
  2.89734748e+00  2.90158306e+00  2.90655794e+00  2.91244125e+00
  2.92436479e+00  2.93021926e+00  2.93341940e+00  2.93805302e+00
  2.94831218e+00  2.96821220e+00  3.23805475e+00  3.27098300e+00
  3.27180200e+00  3.27779612e+00  3.28324354e+00  3.29715128e+00
  3.30461976e+00  3.31858870e+00  3.33519587e+00  3.33763058e+00
  3.62417255e+00  3.64897415e+00  3.65965971e+00  3.66589337e+00
  3.68837840e+00  3.70223165e+00  3.70852304e+00  3.71273625e+00
  3.71607933e+00  3.73826503e+00  3.79315370e+00  3.80307751e+00
  3.80632930e+00  3.82750874e+00  3.85070567e+00  3.86216275e+00
  3.86527835e+00  3.87216306e+00  3.89432906e+00  3.93303999e+00]
E1 = -2356.8730507459754  E_coul = 944.9952458161074
cycle= 1 E= -760.062435144184  delta_E= -1.28  |g|= 1.37  |ddm|= 3.73
    CPU time for cycle= 1      3.41 sec, wall time      0.43 sec
diis-norm(errvec)=2.46312
diis-c [-6.06697977  1.        ]
  HOMO = -0.374424123195044  LUMO = 0.0826291874399874
  mo_energy =
[-20.51195261 -20.49129756 -20.3927304  -20.37887446 -20.37338309
 -20.33320029 -20.32535247 -20.30147058 -20.29069719 -20.25855147
  -1.42141233  -1.4125565   -1.33365862  -1.33020184  -1.31809625
  -1.29083138  -1.27871386  -1.2663673   -1.25119564  -1.22321703
  -0.79438657  -0.78916913  -0.72537504  -0.71427188  -0.70913166
  -0.67829868  -0.67095849  -0.65613719  -0.63740315  -0.6314645
  -0.61585715  -0.60919939  -0.57581303  -0.56041301  -0.55900508
  -0.5451266   -0.52797132  -0.52093357  -0.50170909  -0.48889897
  -0.48511129  -0.4744038   -0.46446895  -0.46071224  -0.44534208
  -0.43892921  -0.42717874  -0.41038508  -0.40151629  -0.37442412
   0.08262919   0.11254553   0.19932073   0.20230528   0.2050224
   0.21485966   0.23535477   0.24429303   0.25433026   0.28176254
   0.30245116   0.30991762   0.34228631   0.34878448   0.36502432
   0.3765912    0.42107151   0.42695714   0.46573195   0.50083293
   0.88687266   0.90677325   0.94594136   0.96208276   0.96990356
   0.98620544   0.98993223   0.99189003   1.00331407   1.03099584
   1.03507366   1.04794444   1.07147037   1.07544626   1.09023947
   1.09714029   1.10550622   1.12110399   1.13805679   1.14220255
   1.16826687   1.17273351   1.18327424   1.19301346   1.20213178
   1.21392128   1.21480826   1.22161943   1.22288044   1.24187139
   1.24889105   1.25767372   1.26962945   1.27119911   1.27660101
   1.28306239   1.30193067   1.30464309   1.32637964   1.33283849
   1.35631358   1.38350909   1.39018947   1.40074778   1.41175234
   1.42808661   1.43832505   1.45364183   1.48718211   1.51745326
   1.56565621   1.59282983   1.61021824   1.65635663   1.69437686
   1.70331568   1.7085056    1.71429621   1.72196432   1.74862281
   1.7641032    1.77443331   1.77818248   1.79166264   1.80100107
   1.81254855   1.81773114   1.82042432   1.83090687   1.84153861
   1.84477735   1.85785465   1.86421469   1.87287855   1.8866405
   1.8870933    1.89871999   1.9148584    1.92342973   1.93065421
   1.94399173   1.95001912   1.96101441   1.97380071   1.98152881
   1.9930994    2.01272306   2.04515125   2.08184643   2.18180517
   2.43804973   2.44539764   2.49390731   2.50487083   2.5065504
   2.52892588   2.55346137   2.56795085   2.57223384   2.57729234
   2.57893545   2.61310186   2.62787034   2.63112906   2.63227837
   2.64194076   2.684415     2.70055449   2.70434032   2.71711758
   2.73981693   2.77574615   2.79279771   2.81305536   2.8279704
   2.83521036   2.85001943   2.85591612   2.86794776   2.88361986
   2.91170882   2.92569239   2.93552094   2.95028472   2.9577854
   2.96287215   2.97449263   2.97586109   2.98623709   2.99166056
   2.99464056   2.99612658   3.00231623   3.00570241   3.03219771
   3.04457259   3.05354119   3.06787661   3.07144664   3.07900943
   3.27511129   3.29058615   3.33268425   3.36938055   3.3765009
   3.39354907   3.40544757   3.41368161   3.45490717   3.46392478
   3.65678088   3.66072079   3.72330331   3.76384651   3.78809773
   3.79673814   3.80224902   3.82326185   3.8497589    3.8590299
   3.86789052   3.87200043   3.92719201   3.97778767   3.99808626
   4.02056588   4.0275111    4.0531995    4.07145116   4.0863342 ]
E1 = -2341.4808986506832  E_coul = 929.3249905292348
cycle= 2 E= -760.340538335764  delta_E= -0.278  |g|= 0.661  |ddm|=  1.1
    CPU time for cycle= 2      3.41 sec, wall time      0.43 sec
diis-norm(errvec)=1.10753
diis-c [-0.284769    0.28754306  0.71245694]
  HOMO = -0.47915138435721  LUMO = 0.0869019317992411
  mo_energy =
[-20.69068178 -20.68702862 -20.65216115 -20.62707067 -20.62084872
 -20.61602361 -20.59389638 -20.59302284 -20.58168208 -20.55665885
  -1.46160189  -1.45825665  -1.41107687  -1.39815166  -1.38845284
  -1.38212461  -1.35748672  -1.35632059  -1.34477576  -1.32136682
  -0.82285064  -0.81877164  -0.77645376  -0.77216409  -0.76204465
  -0.74309235  -0.73709035  -0.71619741  -0.71164575  -0.69141639
  -0.68402089  -0.67332354  -0.64741041  -0.63590595  -0.62136853
  -0.61809387  -0.60839265  -0.60191405  -0.58519637  -0.58012801
  -0.57590268  -0.56366768  -0.55121243  -0.54472603  -0.5392342
  -0.53877142  -0.51444294  -0.50787612  -0.49964963  -0.47915138
   0.08690193   0.11486393   0.18702804   0.19508224   0.20553842
   0.21439324   0.22309044   0.23746231   0.24318166   0.26892108
   0.28568729   0.2982683    0.32315422   0.33285992   0.34424934
   0.36071264   0.39407157   0.4020077    0.42768241   0.46297463
   0.87937491   0.89857747   0.92666095   0.93304006   0.94266553
   0.95296012   0.97275364   0.97548104   0.98083974   1.00589597
   1.01453332   1.02718628   1.03850851   1.0457001    1.0497635
   1.06321222   1.07052988   1.08255262   1.09148104   1.09769041
   1.10780863   1.1123191    1.12335908   1.13213516   1.13838678
   1.14209895   1.14989366   1.16503949   1.17395007   1.17768617
   1.1912444    1.19662898   1.206419     1.21003695   1.21689239
   1.2276859    1.23846202   1.25972089   1.26751289   1.28214298
   1.31188121   1.31443619   1.32271807   1.33587444   1.34686186
   1.36987275   1.39121057   1.39314129   1.43011452   1.44157742
   1.51897078   1.55238335   1.56266433   1.60965711   1.65785952
   1.66325806   1.67064024   1.68653399   1.68864703   1.70946136
   1.72856374   1.73929234   1.74051374   1.75317473   1.76252614
   1.766068     1.76846401   1.77662376   1.78856624   1.79202117
   1.79950725   1.80811748   1.81430546   1.82203087   1.83266296
   1.83814147   1.84713101   1.85815448   1.86925986   1.88078015
   1.88454964   1.89207315   1.91000452   1.91328728   1.92842387
   1.93616361   1.94419243   1.99975617   2.02252063   2.11936772
   2.45167147   2.46249461   2.48043812   2.48276295   2.51752073
   2.52546456   2.53174895   2.54816586   2.55748164   2.56467364
   2.57218661   2.57282719   2.58338854   2.59144164   2.60853678
   2.61403743   2.64773959   2.65624342   2.65972442   2.69891805
   2.72248309   2.72448038   2.75070844   2.77120085   2.78902046
   2.80829573   2.81670342   2.83854271   2.85205941   2.86097549
   2.89691759   2.91099551   2.91488622   2.91801197   2.92292028
   2.93905045   2.9444358    2.95068911   2.95949325   2.96581162
   2.97117815   2.97269555   2.98119298   2.98536448   3.00352513
   3.0084307    3.02012838   3.03014169   3.03588128   3.04054117
   3.27174494   3.29429957   3.31508449   3.34360833   3.35010954
   3.37054104   3.37389941   3.39314416   3.4156574    3.4278689
   3.64949403   3.66275347   3.6999225    3.72554195   3.75286476
   3.76831792   3.77304947   3.79703108   3.80898268   3.82138769
   3.8352037    3.85120166   3.88243976   3.92154698   3.94622485
   3.96877416   3.9749096    3.99870761   4.01092459   4.02889318]
E1 = -2348.241736640335  E_coul = 936.0098081347795
cycle= 3 E= -760.416558719872  delta_E= -0.076  |g|= 0.0967  |ddm|= 0.432
    CPU time for cycle= 3      3.43 sec, wall time      0.43 sec
diis-norm(errvec)=0.178434
diis-c [-0.01499984 -0.02304559  0.06825187  0.95479373]
  HOMO = -0.470648875175921  LUMO = 0.0949483247920946
  mo_energy =
[-20.66151831 -20.65775456 -20.61086267 -20.59868147 -20.58935645
 -20.58657783 -20.55824816 -20.5579376  -20.54674708 -20.52459246
  -1.4471035   -1.44266565  -1.3943094   -1.38666058  -1.37715577
  -1.36958051  -1.34415776  -1.34227401  -1.33223835  -1.31028519
  -0.80893038  -0.80392644  -0.7661639   -0.75715171  -0.75182822
  -0.73217866  -0.72555019  -0.70361741  -0.70133898  -0.68179731
  -0.67394452  -0.66197523  -0.63520708  -0.62655532  -0.61135414
  -0.60933847  -0.59769933  -0.59244921  -0.57501626  -0.57078337
  -0.56642839  -0.55080287  -0.54377362  -0.53612674  -0.53067471
  -0.52933811  -0.50358989  -0.49720593  -0.48986361  -0.47064888
   0.09494832   0.12237207   0.19188618   0.20144551   0.21277357
   0.22171277   0.22931072   0.244292     0.24920116   0.27460208
   0.29100526   0.30523195   0.32884885   0.33958403   0.34962169
   0.36775231   0.40096906   0.40827023   0.43326254   0.46786684
   0.88922302   0.90945531   0.93324703   0.94064433   0.95133023
   0.95927522   0.98072031   0.98543387   0.99315375   1.0149821
   1.02510147   1.03680068   1.04818459   1.05566472   1.06122253
   1.07279174   1.0803094    1.09157805   1.09963824   1.10679724
   1.11513443   1.1206682    1.1314311    1.13927755   1.14725145
   1.15062763   1.1584748    1.1738479    1.18170289   1.18494353
   1.19979236   1.20514373   1.21581212   1.21854735   1.22565561
   1.23668466   1.24749423   1.26900859   1.27680442   1.29115911
   1.32066805   1.32597137   1.33219185   1.3438471    1.35555886
   1.37915165   1.39967886   1.40301551   1.43769466   1.44935938
   1.52853076   1.56367742   1.57472074   1.62033042   1.66734295
   1.67265284   1.68191334   1.69956776   1.70143502   1.719956
   1.73974946   1.75075704   1.75280669   1.76373288   1.77308647
   1.77644204   1.77822438   1.78765615   1.79806893   1.80360009
   1.80903972   1.81828131   1.82344791   1.8313314    1.84153377
   1.84777755   1.85701332   1.86675138   1.87936349   1.88972627
   1.89380602   1.90141244   1.92069538   1.92207364   1.93744963
   1.94449121   1.95209032   2.00959392   2.02959632   2.12606518
   2.46420378   2.47662911   2.49304754   2.49608924   2.52979642
   2.53522213   2.54470664   2.55686391   2.56666117   2.57401888
   2.58200275   2.58258774   2.59445022   2.60077961   2.61725753
   2.62134595   2.65685745   2.66703652   2.66873215   2.71280316
   2.73285529   2.73751396   2.76443779   2.78157936   2.7994436
   2.8204258    2.82879968   2.84817334   2.86358732   2.87306041
   2.90587241   2.92394057   2.92704598   2.9295943    2.93361426
   2.9499552    2.95303857   2.95955029   2.96744182   2.97514539
   2.98003925   2.98236262   2.99011536   2.99590119   3.01224547
   3.01583872   3.02785991   3.03715393   3.0443803    3.04740658
   3.28397354   3.30749111   3.32713913   3.35181096   3.35865917
   3.38000502   3.38315853   3.40161392   3.42244883   3.43528564
   3.66530456   3.67981497   3.71634513   3.73803766   3.7658913
   3.78066553   3.78683307   3.80921786   3.82108114   3.832189
   3.84853969   3.86586476   3.89703074   3.93206636   3.95787266
   3.9796331    3.98462022   4.00845551   4.02001023   4.03864004]
E1 = -2347.484397802669  E_coul = 935.2503675380863
cycle= 4 E= -760.418660478899  delta_E= -0.0021  |g|= 0.0158  |ddm|= 0.0615
    CPU time for cycle= 4      3.46 sec, wall time      0.44 sec
diis-norm(errvec)=0.0326851
diis-c [-2.98670314e-04 -9.54361799e-03 -3.97957899e-02 -1.57377250e-01
  1.20671666e+00]
  HOMO = -0.471534561955537  LUMO = 0.095241676197265
  mo_energy =
[-20.6617333  -20.65851488 -20.61523318 -20.59922805 -20.58896943
 -20.58835051 -20.56031169 -20.56021962 -20.54974749 -20.52564814
  -1.44695422  -1.44247738  -1.39603506  -1.38688419  -1.37684795
  -1.37063194  -1.34507077  -1.3432485   -1.33339793  -1.31085654
  -0.80802881  -0.80295935  -0.7656462   -0.75794024  -0.75150967
  -0.73249318  -0.72550453  -0.70383268  -0.70171583  -0.68159975
  -0.67385271  -0.66176246  -0.63629801  -0.62686075  -0.61132616
  -0.61000249  -0.59823946  -0.59268557  -0.57570193  -0.57151005
  -0.5671912   -0.55300996  -0.54406278  -0.53688338  -0.53120675
  -0.53067022  -0.50502976  -0.49869631  -0.49130912  -0.47153456
   0.09524168   0.12277427   0.19178134   0.20136833   0.21334665
   0.22225722   0.2295453    0.24440094   0.249257     0.27457152
   0.2910229    0.30535955   0.32886496   0.33997168   0.34949
   0.36812872   0.40146862   0.40885497   0.43356457   0.46814064
   0.88975638   0.90999804   0.93316226   0.94057997   0.95128355
   0.95931458   0.98060949   0.98520295   0.99357082   1.01498957
   1.02527406   1.03688844   1.04796661   1.05572268   1.06051467
   1.07238797   1.08009496   1.09122844   1.09939722   1.10633878
   1.11485859   1.12020109   1.13121072   1.13894242   1.14687053
   1.14991767   1.15798877   1.17357166   1.18116774   1.18463497
   1.1992527    1.20496819   1.21559879   1.21790843   1.22562855
   1.23618751   1.24734682   1.26892348   1.27688601   1.29129694
   1.32067417   1.32589739   1.33203168   1.34380909   1.35528317
   1.37900209   1.39972967   1.40317581   1.43741335   1.44915126
   1.52870312   1.56337011   1.57404184   1.62010891   1.66685868
   1.67292666   1.68173874   1.70007337   1.70194202   1.72008097
   1.7399447    1.75086233   1.75236976   1.76378754   1.77294226
   1.77614744   1.77816309   1.78745763   1.79785411   1.80331768
   1.80920962   1.81809148   1.82341962   1.83107175   1.84146232
   1.84757334   1.85676953   1.86635528   1.87904681   1.88943266
   1.89381573   1.90120668   1.92030435   1.92163417   1.9373645
   1.94458229   1.95202798   2.00966855   2.02967528   2.12597702
   2.46521012   2.47770941   2.49371229   2.49690161   2.52980715
   2.53549224   2.543997     2.55688917   2.56631139   2.57440318
   2.58235936   2.5828654    2.59417198   2.60103033   2.61714308
   2.62142234   2.65723089   2.6670129    2.66868105   2.71370655
   2.73283521   2.73839159   2.76399446   2.78151543   2.79970642
   2.82054095   2.82934382   2.84820133   2.8645103    2.87406351
   2.90633374   2.92391059   2.92777968   2.93027261   2.93426793
   2.94976103   2.95301841   2.95987133   2.96742028   2.97532992
   2.98041757   2.98242826   2.9905496    2.99587904   3.01199844
   3.01628568   3.02815381   3.03721332   3.04470762   3.04751741
   3.28504779   3.30871048   3.32700559   3.35186902   3.35907535
   3.38021104   3.3833881    3.40234072   3.42266986   3.43532166
   3.66625622   3.68077566   3.71590592   3.73790007   3.76595552
   3.7812674    3.78692743   3.80964961   3.8207698    3.83220504
   3.84940683   3.86671235   3.89689363   3.93210976   3.95805417
   3.97991726   3.98542587   4.00851376   4.02040669   4.0389961 ]
E1 = -2347.5103092380323  E_coul = 935.2761683461821
cycle= 5 E= -760.418771106166  delta_E= -0.000111  |g|= 0.00315  |ddm|= 0.0205
    CPU time for cycle= 5      3.49 sec, wall time      0.45 sec
diis-norm(errvec)=0.00586122
diis-c [-2.24251330e-05  1.59313079e-03  4.07142519e-03 -7.62538584e-03
 -1.21414149e-01  1.12337498e+00]
  HOMO = -0.471984426454755  LUMO = 0.0952213525295333
  mo_energy =
[-20.66213719 -20.65843579 -20.61337523 -20.60013704 -20.59023168
 -20.58865987 -20.56013583 -20.55978269 -20.54894536 -20.52637296
  -1.44713729  -1.44253376  -1.39550674  -1.38733453  -1.37751333
  -1.37066568  -1.34514758  -1.34318591  -1.33325312  -1.3112172
  -0.80799348  -0.80283583  -0.76601975  -0.7573785   -0.75181492
  -0.73241378  -0.72552933  -0.70366087  -0.70164132  -0.68189231
  -0.67409267  -0.66183288  -0.63593293  -0.6271178   -0.61174388
  -0.61011106  -0.5984702   -0.59318109  -0.57571924  -0.57157439
  -0.56735722  -0.55267245  -0.54453518  -0.53741167  -0.531826
  -0.5309318   -0.50515611  -0.49883239  -0.49132483  -0.47198443
   0.09522135   0.12273916   0.19165206   0.20129958   0.21336048
   0.22226195   0.22948448   0.24437009   0.24917732   0.27444535
   0.2909282    0.30535971   0.32877485   0.33987435   0.34943716
   0.36800358   0.40131479   0.40863534   0.43334135   0.46787488
   0.88961966   0.90991551   0.93298609   0.94040108   0.95117432
   0.95907741   0.98045356   0.98511134   0.99344614   1.01485171
   1.02519209   1.03681414   1.04779987   1.05551868   1.06061023
   1.07225977   1.07992184   1.09114184   1.09920748   1.1062525
   1.11466526   1.12004301   1.13101801   1.13881357   1.14676113
   1.14977339   1.15787942   1.17345357   1.18102808   1.18447929
   1.19910977   1.20474998   1.21555823   1.21778418   1.22546909
   1.23609592   1.2471362    1.26882497   1.27678215   1.29104535
   1.3204551    1.32590486   1.33196761   1.34356865   1.35513997
   1.37892326   1.39930832   1.4029897    1.43727969   1.44892289
   1.52843126   1.56332736   1.57421309   1.62001336   1.66676197
   1.67260964   1.68164464   1.69996186   1.70181321   1.71988256
   1.73980582   1.75076308   1.75248316   1.76363392   1.77286014
   1.77605531   1.77793937   1.78742169   1.79773792   1.8032767
   1.80894002   1.81797869   1.82315453   1.83093642   1.8411768
   1.84741861   1.85667022   1.86626048   1.87896871   1.88926777
   1.89356919   1.90104317   1.92030305   1.92160484   1.93715641
   1.94426463   1.951726     2.00949021   2.02929366   2.12568372
   2.46511839   2.47766432   2.49355757   2.49679599   2.52980515
   2.53532711   2.54423742   2.55672355   2.56617812   2.57417759
   2.58218561   2.58274806   2.59413357   2.60072146   2.6169985
   2.62117198   2.656862     2.66688874   2.66850134   2.71357531
   2.73255952   2.73831537   2.76418292   2.78135571   2.79944035
   2.82048817   2.82923703   2.84807938   2.86429664   2.87398416
   2.90599647   2.92408035   2.92764074   2.93010274   2.93406592
   2.94977446   2.95290256   2.95966168   2.96724222   2.97520392
   2.98017372   2.98236576   2.99030198   2.99582374   3.01197225
   3.01595388   3.02786357   3.0369634    3.04448113   3.04732486
   3.28494954   3.30864011   3.32713883   3.35172186   3.35881867
   3.38009976   3.38327692   3.40201907   3.42239002   3.43518855
   3.66613767   3.68076648   3.71612105   3.73778082   3.76581365
   3.78092935   3.78686022   3.80939458   3.8207563    3.83191694
   3.84923573   3.86670096   3.89712384   3.93196291   3.95797408
   3.97973255   3.9849874    4.00842013   4.02006087   4.03871215]
E1 = -2347.5063646915596  E_coul = 935.272219642107
cycle= 6 E= -760.418775263769  delta_E= -4.16e-06  |g|= 0.00134  |ddm|= 0.00433
    CPU time for cycle= 6      3.56 sec, wall time      0.46 sec
diis-norm(errvec)=0.00239957
diis-c [-1.99278757e-06  1.23185730e-03  4.61908788e-03  9.45616679e-03
 -1.27571408e-01  2.72379158e-01  8.39885138e-01]
  HOMO = -0.471908963320798  LUMO = 0.0952300018285348
  mo_energy =
[-20.66184902 -20.65834059 -20.61413498 -20.59965512 -20.58926336
 -20.5887529  -20.56011805 -20.55996235 -20.54927503 -20.52599801
  -1.44705238  -1.44250228  -1.39575706  -1.38717135  -1.37722488
  -1.37071382  -1.3451593   -1.34325548  -1.33336246  -1.31111017
  -0.80788192  -0.80276085  -0.76583167  -0.75753783  -0.75165455
  -0.7324187   -0.7255042   -0.70368011  -0.70165246  -0.68175611
  -0.67399619  -0.66180487  -0.63615798  -0.62707796  -0.61161091
  -0.61017406  -0.5984882   -0.59305155  -0.57579913  -0.57163674
  -0.56738946  -0.5529502   -0.54443386  -0.53731492  -0.53166392
  -0.53097899  -0.50523653  -0.49891468  -0.49146418  -0.47190896
   0.09523      0.12276248   0.19164699   0.20128648   0.21339273
   0.22228392   0.22950666   0.24437834   0.24918617   0.274455
   0.29092891   0.30535749   0.32877216   0.33989791   0.34942433
   0.36802669   0.40133282   0.40869945   0.43337659   0.46792137
   0.88965813   0.90992274   0.93297687   0.94039891   0.95117213
   0.95910186   0.98043588   0.98508466   0.99347973   1.01485764
   1.02519616   1.03680852   1.04780325   1.05556278   1.0605
   1.07222853   1.07992522   1.09111538   1.09921626   1.10621277
   1.1146613    1.1200263    1.13102937   1.1387815    1.14673107
   1.14973854   1.15784779   1.17343969   1.18099981   1.18448004
   1.19908778   1.20478536   1.21552726   1.21775046   1.22548554
   1.23606815   1.24716677   1.26882594   1.27680639   1.29113066
   1.32051537   1.32587351   1.3319782    1.34361349   1.35515577
   1.37892494   1.39944105   1.40305096   1.43727591   1.4489677
   1.52854106   1.56332693   1.57411659   1.62001032   1.66673956
   1.6727126    1.68164702   1.69998537   1.70184741   1.71992321
   1.73982949   1.7507587    1.75238938   1.76364748   1.77283246
   1.77602611   1.77797755   1.7873823    1.79771468   1.80322747
   1.80900263   1.81795925   1.82320333   1.83092029   1.84122879
   1.8474195    1.85665494   1.86622462   1.8789524    1.88926533
   1.89362839   1.90106133   1.92024568   1.92154719   1.93719342
   1.94434797   1.95178998   2.00951558   2.02940102   2.12573546
   2.46514896   2.47768866   2.49360436   2.49681745   2.52977505
   2.53533757   2.54407739   2.55670227   2.56613603   2.5742136
   2.58219587   2.58273471   2.59407442   2.60078717   2.61698623
   2.62118623   2.65697075   2.66687727   2.66850631   2.71362268
   2.73259797   2.73833822   2.76405167   2.78133486   2.79948586
   2.82044831   2.82923631   2.84805743   2.86436988   2.87402268
   2.9060792    2.92400394   2.92767885   2.93013589   2.93412267
   2.94970219   2.95286753   2.95970266   2.96722444   2.97519672
   2.98021689   2.98234897   2.99036567   2.99578367   3.01192211
   3.01602315   3.02791485   3.03698619   3.04448179   3.04731878
   3.28498937   3.3086707    3.32704155   3.35169257   3.35886338
   3.38007697   3.38325528   3.40211877   3.42242105   3.43516524
   3.66619082   3.6807925    3.71600266   3.73775885   3.76581924
   3.78105132   3.78683419   3.80946093   3.82070473   3.83196176
   3.84929403   3.86669274   3.89698955   3.93194021   3.95794134
   3.97973833   3.98512663   4.00838296   4.02013312   4.03876313]
E1 = -2347.5032292778496  E_coul = 935.2690837250661
cycle= 7 E= -760.4187757671  delta_E= -5.03e-07  |g|= 0.00028  |ddm|= 0.00131
    CPU time for cycle= 7      3.44 sec, wall time      0.43 sec
diis-norm(errvec)=0.000511222
diis-c [-7.29517350e-08 -1.72321065e-04 -4.04466063e-04 -5.81729370e-04
  1.54827732e-02 -1.06950276e-01 -3.69169662e-02  1.12954299e+00]
  HOMO = -0.471921465098643  LUMO = 0.0952394697715693
  mo_energy =
[-20.66182719 -20.65831582 -20.61400303 -20.5996973  -20.58935735
 -20.58871851 -20.56008597 -20.55990998 -20.54918985 -20.5260038
  -1.44703926  -1.44248912  -1.3957163   -1.38718534  -1.37725196
  -1.37070846  -1.3451503   -1.34324264  -1.33333962  -1.31111438
  -0.80785162  -0.80273036  -0.76583484  -0.75749329  -0.75165249
  -0.73240324  -0.72548659  -0.70365657  -0.70162986  -0.68175627
  -0.67399133  -0.66178763  -0.63612867  -0.62708303  -0.61162065
  -0.61017864  -0.59849377  -0.5930661   -0.57579743  -0.57163343
  -0.5673914   -0.55292237  -0.54445088  -0.53734     -0.5316966
  -0.53098987  -0.50523975  -0.49891888  -0.49145993  -0.47192147
   0.09523947   0.12277302   0.19164789   0.20129309   0.21340782
   0.22229732   0.22951404   0.24438567   0.24918959   0.27445744
   0.29093218   0.30536629   0.32877845   0.33990666   0.34942612
   0.36803664   0.40134992   0.40870469   0.43338804   0.4679284
   0.88967291   0.90993978   0.93298692   0.94040717   0.95118171
   0.95910598   0.98044452   0.98509649   0.99349486   1.01486676
   1.02521093   1.03681766   1.04780641   1.0555646    1.06051794
   1.07223393   1.07992906   1.09111908   1.09922252   1.10622054
   1.11466233   1.12002858   1.13103303   1.13878512   1.1467395
   1.14974272   1.15785316   1.17344487   1.18100366   1.18448446
   1.19909175   1.20478728   1.21554263   1.21775534   1.22549239
   1.23607983   1.24717373   1.2688348    1.27681724   1.29113487
   1.32052139   1.32589686   1.3319896    1.34361631   1.35516049
   1.37893503   1.39943469   1.40306087   1.43728619   1.44897129
   1.52854262   1.56333882   1.57414165   1.62002092   1.66674645
   1.67271128   1.68165649   1.69999971   1.7018616    1.71993053
   1.73984114   1.75077045   1.75240956   1.76365552   1.77284282
   1.77603331   1.77797936   1.78739459   1.79771972   1.8032359
   1.80900261   1.81796638   1.82320368   1.83092874   1.84122806
   1.84742454   1.85666479   1.86623431   1.87896243   1.88926592
   1.8936265    1.90106448   1.92025382   1.92156044   1.93719791
   1.94434571   1.95178878   2.00952313   2.02939485   2.12573948
   2.46516826   2.47770743   2.49361921   2.49683324   2.52978789
   2.53534851   2.54410571   2.55670458   2.5661396    2.57422068
   2.58220625   2.5827432    2.59408385   2.60078698   2.61699377
   2.62118735   2.65696406   2.66688421   2.66851037   2.71364176
   2.73259692   2.7383556    2.76407835   2.78133995   2.79948865
   2.82046041   2.82925123   2.84806968   2.86438023   2.87404024
   2.90608041   2.92402283   2.92769073   2.93015008   2.93413209
   2.94972057   2.95286808   2.95970817   2.96722861   2.97520439
   2.9802211    2.98235315   2.99036895   2.99578614   3.01192188
   3.01602387   3.0279137    3.03698709   3.04449909   3.04733472
   3.28500859   3.30869063   3.32706399   3.35169649   3.35886848
   3.38008715   3.38326568   3.40211866   3.42242261   3.43517644
   3.66621205   3.68081283   3.71602931   3.73776378   3.76582853
   3.78104852   3.78684601   3.80946655   3.82071419   3.8319612
   3.84930923   3.86671462   3.89702076   3.93194777   3.95795546
   3.97975089   3.98512221   4.00839988   4.02013589   4.03876777]
E1 = -2347.502565808445  E_coul = 935.2684202234332
cycle= 8 E= -760.418775799328  delta_E= -3.22e-08  |g|= 4.05e-05  |ddm|= 0.000402
    CPU time for cycle= 8      3.45 sec, wall time      0.43 sec
diis-norm(errvec)=7.52941e-05
diis-c [-2.64557084e-09 -4.57191182e-05 -1.62579253e-04 -4.05150319e-04
  4.77060875e-03 -1.05949907e-02 -3.26490460e-02  6.88364532e-03
  1.03220323e+00]
  HOMO = -0.471923903057782  LUMO = 0.0952395526479808
  mo_energy =
[-20.66183448 -20.65831155 -20.6140024  -20.59968023 -20.58934187
 -20.5887121  -20.56007862 -20.55990612 -20.54919894 -20.52600691
  -1.44704046  -1.44248736  -1.39571607  -1.38718182  -1.37724728
  -1.37070699  -1.34514859  -1.34324162  -1.33334381  -1.31111665
  -0.80785053  -0.80272681  -0.7658306   -0.7574919   -0.75164843
  -0.73240095  -0.7254844   -0.70365435  -0.70163078  -0.6817554
  -0.6739917   -0.66178569  -0.63612943  -0.62708157  -0.61162
  -0.61017844  -0.59849423  -0.59306585  -0.57579733  -0.57163378
  -0.56739155  -0.55292265  -0.54445329  -0.53733898  -0.53169525
  -0.53098855  -0.50523856  -0.49891783  -0.49146574  -0.4719239
   0.09523955   0.12277355   0.19164711   0.20129275   0.21340863
   0.22229781   0.22951443   0.24438641   0.24919021   0.27445731
   0.29093198   0.30536656   0.3287777    0.33990705   0.34942601
   0.36803666   0.40134924   0.40870522   0.43338632   0.46792682
   0.88967361   0.90994038   0.93298521   0.94040643   0.95118201
   0.95910555   0.98044416   0.98509626   0.99349478   1.01486702
   1.02521146   1.03681875   1.04780643   1.05556554   1.06051718
   1.0722336    1.07992886   1.09111872   1.09922107   1.10622023
   1.11466069   1.12002885   1.13103289   1.13878503   1.14673965
   1.14974304   1.15785328   1.17344514   1.18100279   1.18448437
   1.19909243   1.20478762   1.21554309   1.21775599   1.22549265
   1.23607912   1.2471735    1.26883491   1.2768181    1.29113593
   1.32052154   1.32589747   1.33199143   1.34361662   1.35516125
   1.37893617   1.39943639   1.40306196   1.43728456   1.44897074
   1.52854342   1.56333949   1.57414171   1.620021     1.66674596
   1.67271213   1.68165708   1.70000032   1.70186178   1.71993077
   1.73984127   1.75077072   1.75240965   1.76365572   1.77284287
   1.77603357   1.77797956   1.78739499   1.79772002   1.80323608
   1.80900322   1.81796708   1.82320341   1.83092679   1.84122735
   1.84742487   1.85666445   1.86623229   1.87896278   1.88926663
   1.893628     1.90106573   1.92025426   1.92155752   1.93719867
   1.9443455    1.95178735   2.00952363   2.02939483   2.12573776
   2.46516977   2.47770961   2.49361927   2.49683457   2.52978782
   2.53534832   2.54410557   2.55670403   2.56613981   2.57422127
   2.58220627   2.58274309   2.59408433   2.60078826   2.61699231
   2.62118607   2.65696575   2.66688604   2.66850964   2.71364217
   2.73259625   2.73835764   2.76407829   2.78134054   2.79948971
   2.82046114   2.82925222   2.84806798   2.86438154   2.87404159
   2.90608045   2.92402392   2.92769195   2.93015088   2.93413316
   2.94971925   2.95286878   2.9597088    2.96722758   2.97520459
   2.9802214    2.98235496   2.9903701    2.99578639   3.01192158
   3.0160238    3.02791369   3.03698531   3.044497     3.04733118
   3.28500983   3.30869257   3.32706402   3.35169658   3.35886901
   3.38008753   3.38326609   3.40212123   3.42242122   3.43517445
   3.66621245   3.68081543   3.71602932   3.73776444   3.76582964
   3.78105172   3.78684648   3.80946783   3.82071297   3.83195972
   3.84930981   3.86671638   3.89702126   3.93194823   3.95795607
   3.97975153   3.98512462   4.00839774   4.02013494   4.03876786]
E1 = -2347.502521903222  E_coul = 935.2683763174972
cycle= 9 E= -760.418775800041  delta_E= -7.13e-10  |g|= 1.25e-05  |ddm|= 5.86e-05
    CPU time for cycle= 9      3.40 sec, wall time      0.43 sec
  HOMO = -0.471921629862183  LUMO = 0.0952395555606102
  mo_energy =
[-20.66182664 -20.65831149 -20.61400516 -20.59968733 -20.58934393
 -20.58871529 -20.56008139 -20.55990823 -20.54919456 -20.52600224
  -1.44703758  -1.44248706  -1.39571653  -1.38718352  -1.37724772
  -1.37070769  -1.345149    -1.34324206  -1.33334215  -1.31111476
  -0.80784833  -0.80272669  -0.76583058  -0.75749236  -0.75164888
  -0.73240153  -0.72548454  -0.70365474  -0.70162955  -0.68175422
  -0.67398981  -0.66178552  -0.63613023  -0.62708252  -0.61161828
  -0.61017929  -0.59849422  -0.59306399  -0.57579784  -0.57163371
  -0.56739159  -0.55292264  -0.54445204  -0.53733996  -0.53169575
  -0.53098893  -0.50523869  -0.49891799  -0.49146426  -0.47192163
   0.09523956   0.12277397   0.19164712   0.20129281   0.21340896
   0.22229777   0.22951456   0.24438646   0.24919019   0.27445722
   0.29093206   0.30536652   0.32877784   0.33990692   0.34942603
   0.36803654   0.40134944   0.40870566   0.43338687   0.46792758
   0.88967411   0.90994032   0.9329857    0.94040639   0.95118207
   0.9591058    0.980444     0.98509619   0.99349559   1.01486708
   1.0252115    1.03681848   1.04780635   1.05556562   1.06051686
   1.07223334   1.07992887   1.09111912   1.09922192   1.10622043
   1.11466135   1.12002837   1.13103304   1.13878481   1.14673957
   1.14974295   1.15785305   1.17344515   1.18100297   1.18448464
   1.19909218   1.20478799   1.21554319   1.21775584   1.22549284
   1.23607959   1.24717399   1.26883548   1.27681839   1.29113647
   1.32052223   1.32589741   1.33199117   1.34361675   1.35516115
   1.37893582   1.39943666   1.40306206   1.43728515   1.4489711
   1.52854453   1.56333945   1.57414155   1.62002091   1.66674596
   1.67271293   1.68165695   1.700001     1.70186301   1.71993098
   1.73984211   1.75077104   1.75240951   1.7636558    1.77284273
   1.77603331   1.77797985   1.78739477   1.7977199    1.80323578
   1.80900347   1.81796689   1.82320381   1.8309275    1.84122794
   1.84742462   1.85666462   1.86623276   1.87896275   1.8892663
   1.89362801   1.90106559   1.92025395   1.92155857   1.93719866
   1.94434637   1.95178847   2.00952357   2.02939541   2.12573804
   2.46517024   2.47770963   2.4936211    2.49683475   2.52978775
   2.53534833   2.54410525   2.55670385   2.56613942   2.57422127
   2.58220642   2.58274299   2.59408399   2.60078777   2.61699292
   2.62118646   2.65696592   2.66688582   2.66851004   2.71364373
   2.73259697   2.73835769   2.76407802   2.78134      2.79948909
   2.82046079   2.82925206   2.84806863   2.86438217   2.87404262
   2.90608122   2.92402371   2.92769205   2.93015112   2.93413356
   2.94971915   2.9528683    2.95970888   2.96722748   2.97520442
   2.98022124   2.98235474   2.99037011   2.99578594   3.01192199
   3.01602444   3.02791416   3.03698596   3.04449718   3.04733201
   3.28501081   3.30869264   3.32706378   3.35169626   3.35886868
   3.38008735   3.38326591   3.40212154   3.42242197   3.43517509
   3.66621376   3.68081546   3.71602895   3.73776386   3.76582925
   3.78105161   3.78684608   3.80946765   3.82071366   3.83196056
   3.84931105   3.86671634   3.89702084   3.93194771   3.95795571
   3.97975125   3.98512488   4.00839847   4.02013564   4.03876785]
E1 = -2347.5025430196542  E_coul = 935.2683974338669
Extra cycle  E= -760.418775800103  delta_E= -6.28e-11  |g|= 6.29e-06  |ddm|= 1.66e-05
    CPU time for scf_cycle     50.73 sec, wall time      6.41 sec
    CPU time for SCF     50.75 sec, wall time      6.43 sec
converged SCF energy = -760.418775800103
