 Entering Gaussian System, Link 0=g16
 Input=w32_81.gjf
 Output=w32_81.log
 Initial command:
 /home/soft/g16/l1.exe "/tmp/liwei01/gaussian/wsr/Gau-8799.inp" -scrdir="/tmp/liwei01/gaussian/wsr/"
 Entering Link 1 = /home/soft/g16/l1.exe PID=      8800.
  
 Copyright (c) 1988,1990,1992,1993,1995,1998,2003,2009,2016,
            Gaussian, Inc.  All Rights Reserved.
  
 This is part of the Gaussian(R) 16 program.  It is based on
 the Gaussian(R) 09 system (copyright 2009, Gaussian, Inc.),
 the Gaussian(R) 03 system (copyright 2003, Gaussian, Inc.),
 the Gaussian(R) 98 system (copyright 1998, Gaussian, Inc.),
 the Gaussian(R) 94 system (copyright 1995, Gaussian, Inc.),
 the Gaussian 92(TM) system (copyright 1992, Gaussian, Inc.),
 the Gaussian 90(TM) system (copyright 1990, Gaussian, Inc.),
 the Gaussian 88(TM) system (copyright 1988, Gaussian, Inc.),
 the Gaussian 86(TM) system (copyright 1986, Carnegie Mellon
 University), and the Gaussian 82(TM) system (copyright 1983,
 Carnegie Mellon University). Gaussian is a federally registered
 trademark of Gaussian, Inc.
  
 This software contains proprietary and confidential information,
 including trade secrets, belonging to Gaussian, Inc.
  
 This software is provided under written license and may be
 used, copied, transmitted, or stored only in accord with that
 written license.
  
 The following legend is applicable only to US Government
 contracts under FAR:
  
                    RESTRICTED RIGHTS LEGEND
  
 Use, reproduction and disclosure by the US Government is
 subject to restrictions as set forth in subparagraphs (a)
 and (c) of the Commercial Computer Software - Restricted
 Rights clause in FAR 52.227-19.
  
 Gaussian, Inc.
 340 Quinnipiac St., Bldg. 40, Wallingford CT 06492
  
  
 ---------------------------------------------------------------
 Warning -- This program may not be used in any manner that
 competes with the business of Gaussian, Inc. or will provide
 assistance to any competitor of Gaussian, Inc.  The licensee
 of this program is prohibited from giving any competitor of
 Gaussian, Inc. access to this program.  By using this program,
 the user acknowledges that Gaussian, Inc. is engaged in the
 business of creating and licensing software in the field of
 computational chemistry and represents and warrants to the
 licensee that it is not a competitor of Gaussian, Inc. and that
 it will not use this program in any manner prohibited above.
 ---------------------------------------------------------------
  

 Cite this work as:
 Gaussian 16, Revision A.03,
 M. J. Frisch, G. W. Trucks, H. B. Schlegel, G. E. Scuseria, 
 M. A. Robb, J. R. Cheeseman, G. Scalmani, V. Barone, 
 G. A. Petersson, H. Nakatsuji, X. Li, M. Caricato, A. V. Marenich, 
 J. Bloino, B. G. Janesko, R. Gomperts, B. Mennucci, H. P. Hratchian, 
 J. V. Ortiz, A. F. Izmaylov, J. L. Sonnenberg, D. Williams-Young, 
 F. Ding, F. Lipparini, F. Egidi, J. Goings, B. Peng, A. Petrone, 
 T. Henderson, D. Ranasinghe, V. G. Zakrzewski, J. Gao, N. Rega, 
 G. Zheng, W. Liang, M. Hada, M. Ehara, K. Toyota, R. Fukuda, 
 J. Hasegawa, M. Ishida, T. Nakajima, Y. Honda, O. Kitao, H. Nakai, 
 T. Vreven, K. Throssell, J. A. Montgomery, Jr., J. E. Peralta, 
 F. Ogliaro, M. J. Bearpark, J. J. Heyd, E. N. Brothers, K. N. Kudin, 
 V. N. Staroverov, T. A. Keith, R. Kobayashi, J. Normand, 
 K. Raghavachari, A. P. Rendell, J. C. Burant, S. S. Iyengar, 
 J. Tomasi, M. Cossi, J. M. Millam, M. Klene, C. Adamo, R. Cammi, 
 J. W. Ochterski, R. L. Martin, K. Morokuma, O. Farkas, 
 J. B. Foresman, and D. J. Fox, Gaussian, Inc., Wallingford CT, 2016.
 
 ******************************************
 Gaussian 16:  ES64L-G16RevA.03 25-Dec-2016
                15-May-2020 
 ******************************************
 %chk=w32_81.chk
 %nproc=4
 Will use up to    4 processors via shared memory.
 %mem=1gb
 -----------------------------------------
 #p hf/6-31g** 5d 7f pop=npa charge nosymm
 -----------------------------------------
 1/18=10,28=-2,38=1,125=101,172=1/1;
 2/12=2,15=1,17=6,18=5,40=1/2;
 3/5=1,6=6,7=101,8=11,11=9,25=1,30=1/1,2,3;
 4//1;
 5/5=2,38=5/2;
 6/7=2,8=2,9=2,10=2,28=1,40=-1/1,7;
 99/5=1,9=1/99;
 Leave Link    1 at Fri May 15 22:36:23 2020, MaxMem=   134217728 cpu:               0.4 elap:               0.1
 (Enter /home/soft/g16/l101.exe)
 -------------
 Atom number=6
 -------------
 Symbolic Z-matrix:
 Charge =  0 Multiplicity = 1
 o                     5.58475  -15.59216  -11.46986 
 o                     5.59138  -15.53349  -8.70022 
 h                     4.6785   -15.34832  -11.65822 
 h                     6.00308  -14.77354  -11.20324 
 h                     6.30928  -16.07073  -8.36521 
 h                     5.47626  -15.82394  -9.60499 
 
 ITRead=  0  0  0  0  0  0
 MicOpt= -1 -1 -1 -1 -1 -1
 NAtoms=      6 NQM=        6 NQMF=       0 NMMI=      0 NMMIF=      0
                NMic=       0 NMicF=      0.
                    Isotopes and Nuclear Properties:
 (Nuclear quadrupole moments (NQMom) in fm**2, nuclear magnetic moments (NMagM)
  in nuclear magnetons)

  Atom         1           2           3           4           5           6
 IAtWgt=          16          16           1           1           1           1
 AtmWgt=  15.9949146  15.9949146   1.0078250   1.0078250   1.0078250   1.0078250
 NucSpn=           0           0           1           1           1           1
 AtZEff=  -0.0000000  -0.0000000  -0.0000000  -0.0000000  -0.0000000  -0.0000000
 NQMom=    0.0000000   0.0000000   0.0000000   0.0000000   0.0000000   0.0000000
 NMagM=    0.0000000   0.0000000   2.7928460   2.7928460   2.7928460   2.7928460
 AtZNuc=   8.0000000   8.0000000   1.0000000   1.0000000   1.0000000   1.0000000
 Background charge distribution read from input stream:
 Point Charges:
 XYZ=    8.3923  -11.8129  -11.2005 Q=   -1.0561 A=    0.0000 R=    0.0000 C=    0.0000
 XYZ=    8.1753  -12.5378  -10.6142 Q=    0.5233 A=    0.0000 R=    0.0000 C=    0.0000
 XYZ=    9.2522  -11.5141  -10.9045 Q=    0.5177 A=    0.0000 R=    0.0000 C=    0.0000
 XYZ=   10.7060  -10.8489  -10.0915 Q=   -1.0357 A=    0.0000 R=    0.0000 C=    0.0000
 XYZ=   11.5214  -11.3203   -9.9208 Q=    0.5206 A=    0.0000 R=    0.0000 C=    0.0000
 XYZ=   10.5678  -10.3169   -9.3078 Q=    0.5156 A=    0.0000 R=    0.0000 C=    0.0000
 XYZ=    8.6932  -14.0693   -9.5471 Q=   -1.0099 A=    0.0000 R=    0.0000 C=    0.0000
 XYZ=    8.2201  -13.7327   -8.7861 Q=    0.4999 A=    0.0000 R=    0.0000 C=    0.0000
 XYZ=    8.5528  -15.0157   -9.5178 Q=    0.5079 A=    0.0000 R=    0.0000 C=    0.0000
 XYZ=    7.2503   -9.8596  -13.1035 Q=   -1.0243 A=    0.0000 R=    0.0000 C=    0.0000
 XYZ=    7.1207  -10.2215  -13.9801 Q=    0.5152 A=    0.0000 R=    0.0000 C=    0.0000
 XYZ=    7.3415  -10.6267  -12.5383 Q=    0.5154 A=    0.0000 R=    0.0000 C=    0.0000
 XYZ=    5.5704  -12.7600  -10.7338 Q=   -1.0500 A=    0.0000 R=    0.0000 C=    0.0000
 XYZ=    4.6427  -12.8278  -10.5079 Q=    0.5214 A=    0.0000 R=    0.0000 C=    0.0000
 XYZ=    5.9838  -12.4052   -9.9468 Q=    0.5064 A=    0.0000 R=    0.0000 C=    0.0000
 XYZ=    6.9662   -9.2478  -10.2743 Q=   -1.0324 A=    0.0000 R=    0.0000 C=    0.0000
 XYZ=    6.9752   -9.8450  -11.0223 Q=    0.5142 A=    0.0000 R=    0.0000 C=    0.0000
 XYZ=    7.6844   -8.6385  -10.4451 Q=    0.5185 A=    0.0000 R=    0.0000 C=    0.0000
 XYZ=    6.9426  -11.8294   -8.3710 Q=   -1.0528 A=    0.0000 R=    0.0000 C=    0.0000
 XYZ=    7.4956  -12.0911   -7.6348 Q=    0.5210 A=    0.0000 R=    0.0000 C=    0.0000
 XYZ=    7.3075  -10.9928   -8.6597 Q=    0.5255 A=    0.0000 R=    0.0000 C=    0.0000
 XYZ=    9.7397  -14.5602  -13.0841 Q=   -1.0029 A=    0.0000 R=    0.0000 C=    0.0000
 XYZ=    9.4367  -13.9209  -12.4394 Q=    0.5215 A=    0.0000 R=    0.0000 C=    0.0000
 XYZ=   10.6527  -14.3230  -13.2466 Q=    0.4988 A=    0.0000 R=    0.0000 C=    0.0000
 XYZ=   10.0849   -9.6030  -13.6944 Q=   -1.0549 A=    0.0000 R=    0.0000 C=    0.0000
 XYZ=    9.8380   -9.8779  -14.5774 Q=    0.5180 A=    0.0000 R=    0.0000 C=    0.0000
 XYZ=    9.2671   -9.6284  -13.1976 Q=    0.5226 A=    0.0000 R=    0.0000 C=    0.0000
 XYZ=    9.4738   -7.9972  -10.9180 Q=   -0.9971 A=    0.0000 R=    0.0000 C=    0.0000
 XYZ=    9.9975   -8.7956  -10.8516 Q=    0.5301 A=    0.0000 R=    0.0000 C=    0.0000
 XYZ=    9.6234   -7.5424  -10.0892 Q=    0.4920 A=    0.0000 R=    0.0000 C=    0.0000
 XYZ=    8.4516  -10.6356  -15.6859 Q=   -1.0322 A=    0.0000 R=    0.0000 C=    0.0000
 XYZ=    8.1250  -10.4069  -16.5562 Q=    0.4798 A=    0.0000 R=    0.0000 C=    0.0000
 XYZ=    9.2622  -11.1166  -15.8526 Q=    0.5341 A=    0.0000 R=    0.0000 C=    0.0000
 XYZ=    4.0391  -11.2243  -12.8044 Q=   -0.9921 A=    0.0000 R=    0.0000 C=    0.0000
 XYZ=    4.5248  -12.0476  -12.7552 Q=    0.4802 A=    0.0000 R=    0.0000 C=    0.0000
 XYZ=    4.4321  -10.7575  -13.5420 Q=    0.5046 A=    0.0000 R=    0.0000 C=    0.0000
 XYZ=    8.8013  -12.4259   -6.4973 Q=   -0.9852 A=    0.0000 R=    0.0000 C=    0.0000
 XYZ=    9.0556  -11.7490   -5.8701 Q=    0.5006 A=    0.0000 R=    0.0000 C=    0.0000
 XYZ=    8.9395  -13.2499   -6.0303 Q=    0.5083 A=    0.0000 R=    0.0000 C=    0.0000
 XYZ=   10.5523   -9.0602   -7.7657 Q=   -0.9799 A=    0.0000 R=    0.0000 C=    0.0000
 XYZ=   10.0296   -9.4526   -7.0665 Q=    0.5003 A=    0.0000 R=    0.0000 C=    0.0000
 XYZ=   10.0576   -8.2839   -8.0284 Q=    0.4937 A=    0.0000 R=    0.0000 C=    0.0000
 XYZ=    8.4919  -14.1596  -15.7110 Q=   -0.9823 A=    0.0000 R=    0.0000 C=    0.0000
 XYZ=    8.8439  -15.0437  -15.8144 Q=    0.4799 A=    0.0000 R=    0.0000 C=    0.0000
 XYZ=    8.9183  -13.8221  -14.9233 Q=    0.4950 A=    0.0000 R=    0.0000 C=    0.0000
 XYZ=   10.6752  -11.9252  -15.8192 Q=   -0.9837 A=    0.0000 R=    0.0000 C=    0.0000
 XYZ=   11.1454  -12.2597  -15.0555 Q=    0.5055 A=    0.0000 R=    0.0000 C=    0.0000
 XYZ=   10.7694  -12.6123  -16.4789 Q=    0.5125 A=    0.0000 R=    0.0000 C=    0.0000
 XYZ=    7.7593  -16.5050  -13.2460 Q=   -1.0112 A=    0.0000 R=    0.0000 C=    0.0000
 XYZ=    7.3079  -16.2111  -12.4547 Q=    0.4926 A=    0.0000 R=    0.0000 C=    0.0000
 XYZ=    8.5373  -15.9498  -13.2987 Q=    0.4973 A=    0.0000 R=    0.0000 C=    0.0000
 XYZ=   13.4576  -11.7733   -9.7740 Q=   -0.9993 A=    0.0000 R=    0.0000 C=    0.0000
 XYZ=   13.9089  -10.9962  -10.1037 Q=    0.5128 A=    0.0000 R=    0.0000 C=    0.0000
 XYZ=   14.1508  -12.4236   -9.6612 Q=    0.5076 A=    0.0000 R=    0.0000 C=    0.0000
 XYZ=    5.3398  -11.2122  -15.4745 Q=   -0.9760 A=    0.0000 R=    0.0000 C=    0.0000
 XYZ=    5.8801  -10.4587  -15.7120 Q=    0.4863 A=    0.0000 R=    0.0000 C=    0.0000
 XYZ=    5.4896  -11.8457  -16.1763 Q=    0.4965 A=    0.0000 R=    0.0000 C=    0.0000
 XYZ=   12.9960  -14.7139  -11.2100 Q=   -0.9778 A=    0.0000 R=    0.0000 C=    0.0000
 XYZ=   12.2864  -15.1619  -10.7497 Q=    0.5059 A=    0.0000 R=    0.0000 C=    0.0000
 XYZ=   13.6357  -14.5124  -10.5270 Q=    0.4638 A=    0.0000 R=    0.0000 C=    0.0000
 XYZ=    4.6413   -8.1383  -12.6711 Q=   -0.9897 A=    0.0000 R=    0.0000 C=    0.0000
 XYZ=    4.5978   -7.2720  -12.2662 Q=    0.4876 A=    0.0000 R=    0.0000 C=    0.0000
 XYZ=    5.5765   -8.3384  -12.7100 Q=    0.4969 A=    0.0000 R=    0.0000 C=    0.0000
 XYZ=    8.9611  -17.0167   -9.2755 Q=   -0.9921 A=    0.0000 R=    0.0000 C=    0.0000
 XYZ=    8.6736  -17.2191   -8.3852 Q=    0.5092 A=    0.0000 R=    0.0000 C=    0.0000
 XYZ=    8.3026  -17.4234   -9.8386 Q=    0.5103 A=    0.0000 R=    0.0000 C=    0.0000
 XYZ=   12.8900   -9.6906  -13.7511 Q=   -0.9984 A=    0.0000 R=    0.0000 C=    0.0000
 XYZ=   13.4884   -9.8459  -13.0204 Q=    0.4670 A=    0.0000 R=    0.0000 C=    0.0000
 XYZ=   12.0171   -9.7427  -13.3618 Q=    0.5160 A=    0.0000 R=    0.0000 C=    0.0000
 XYZ=    4.9070   -7.9100   -9.1300 Q=   -1.0105 A=    0.0000 R=    0.0000 C=    0.0000
 XYZ=    4.0635   -8.0265   -9.5674 Q=    0.4764 A=    0.0000 R=    0.0000 C=    0.0000
 XYZ=    5.4227   -8.6710   -9.3968 Q=    0.5176 A=    0.0000 R=    0.0000 C=    0.0000
 XYZ=    2.9547  -12.7024   -9.8757 Q=   -0.9915 A=    0.0000 R=    0.0000 C=    0.0000
 XYZ=    3.0641  -13.5048   -9.3654 Q=    0.5019 A=    0.0000 R=    0.0000 C=    0.0000
 XYZ=    2.7384  -12.0329   -9.2268 Q=    0.5105 A=    0.0000 R=    0.0000 C=    0.0000
 XYZ=    4.2108  -13.3306   -7.5546 Q=   -1.0293 A=    0.0000 R=    0.0000 C=    0.0000
 XYZ=    4.9638  -12.7453   -7.4735 Q=    0.4979 A=    0.0000 R=    0.0000 C=    0.0000
 XYZ=    4.5835  -14.1618   -7.8486 Q=    0.5197 A=    0.0000 R=    0.0000 C=    0.0000
 XYZ=    8.5389   -6.2611  -12.9484 Q=   -1.0019 A=    0.0000 R=    0.0000 C=    0.0000
 XYZ=    8.8800   -6.8491  -12.2745 Q=    0.5098 A=    0.0000 R=    0.0000 C=    0.0000
 XYZ=    9.2767   -6.1230  -13.5423 Q=    0.4773 A=    0.0000 R=    0.0000 C=    0.0000
 XYZ=   11.4715  -15.3553   -7.5180 Q=   -1.0197 A=    0.0000 R=    0.0000 C=    0.0000
 XYZ=   10.8644  -15.3558   -8.2581 Q=    0.4753 A=    0.0000 R=    0.0000 C=    0.0000
 XYZ=   11.9075  -14.5045   -7.5658 Q=    0.5146 A=    0.0000 R=    0.0000 C=    0.0000
 XYZ=   12.8138  -13.0185   -7.3663 Q=   -0.9959 A=    0.0000 R=    0.0000 C=    0.0000
 XYZ=   12.4819  -12.4171   -6.6996 Q=    0.4994 A=    0.0000 R=    0.0000 C=    0.0000
 XYZ=   12.6552  -12.5682   -8.1960 Q=    0.5110 A=    0.0000 R=    0.0000 C=    0.0000
 XYZ=   11.3245  -17.0116  -10.7628 Q=   -1.0019 A=    0.0000 R=    0.0000 C=    0.0000
 XYZ=   11.7165  -17.8633  -10.5702 Q=    0.4876 A=    0.0000 R=    0.0000 C=    0.0000
 XYZ=   10.4428  -17.0644  -10.3939 Q=    0.5095 A=    0.0000 R=    0.0000 C=    0.0000
 Pt Chg Charge=             -0.0084 electrons
 Pt Chg Dipole moment (Debye):
    X=             16.2959    Y=             -7.1470    Z=             18.0121  Tot=             25.3194
 Pt Chg Quadrupole moment (Debye-Ang):
   XX=            253.5688   YY=            183.7672   ZZ=           -310.9234
   XY=           -214.1145   XZ=            -34.4615   YZ=           -127.9078
 Pt Chg Traceless Quadrupole moment (Debye-Ang):
   XX=            211.4313   YY=            141.6296   ZZ=           -353.0609
   XY=           -214.1145   XZ=            -34.4615   YZ=           -127.9078
 Pt Chg Octapole moment (Debye-Ang**2):
  XXX=           3360.8020  YYY=          -3777.7948  ZZZ=           3750.6406  XYY=           2884.7041
  XXY=          -2842.5507  XXZ=          -1483.0358  XZZ=           -516.2320  YZZ=           2751.8398
  YYZ=            617.5309  XYZ=            835.0913
 Pt Chg Hexadecapole moment (Debye-Ang**3):
 XXXX=          45266.6474 YYYY=          73884.9321 ZZZZ=         -30838.8647 XXXY=         -35499.0065
 XXXZ=         -24314.7745 YYYX=         -41702.0892 YYYZ=           4835.2834 ZZZX=           7912.8905
 ZZZY=         -34483.2060 XXYY=          32762.5154 XXZZ=           7530.4985 YYZZ=         -25194.2799
 XXYZ=          19403.0613 YYXZ=         -14468.0290 ZZXY=           -441.1248
 Leave Link  101 at Fri May 15 22:36:23 2020, MaxMem=   134217728 cpu:               0.7 elap:               0.2
 (Enter /home/soft/g16/l202.exe)
                          Input orientation:                          
 ---------------------------------------------------------------------
 Center     Atomic      Atomic             Coordinates (Angstroms)
 Number     Number       Type             X           Y           Z
 ---------------------------------------------------------------------
      1          8           0        5.584754  -15.592165  -11.469857
      2          8           0        5.591380  -15.533488   -8.700217
      3          1           0        4.678503  -15.348320  -11.658221
      4          1           0        6.003083  -14.773540  -11.203238
      5          1           0        6.309279  -16.070726   -8.365208
      6          1           0        5.476258  -15.823936   -9.604992
 ---------------------------------------------------------------------
                    Distance matrix (angstroms):
                    1          2          3          4          5
     1  O    0.000000
     2  O    2.770269   0.000000
     3  H    0.957200   3.101196   0.000000
     4  H    0.957200   2.648044   1.513900   0.000000
     5  H    3.223787   0.957201   3.745028   3.135421   0.000000
     6  H    1.882342   0.957200   2.253525   1.983751   1.513900
                    6
     6  H    0.000000
 Symmetry turned off by external request.
 Stoichiometry    H4O2
 Framework group  C1[X(H4O2)]
 Deg. of freedom    12
 Full point group                 C1      NOp   1
 Rotational constants (GHZ):         203.8218971           7.2863360           7.2275576
 Leave Link  202 at Fri May 15 22:36:23 2020, MaxMem=   134217728 cpu:               0.1 elap:               0.0
 (Enter /home/soft/g16/l301.exe)
 Standard basis: 6-31G(d,p) (5D, 7F)
 Ernie: Thresh=  0.10000D-02 Tol=  0.10000D-05 Strict=F.
    48 basis functions,    84 primitive gaussians,    50 cartesian basis functions
    10 alpha electrons       10 beta electrons
       nuclear repulsion energy        37.9528519580 Hartrees.
 IExCor=    0 DFT=F Ex=HF Corr=None ExCW=0 ScaHFX=  1.000000
 ScaDFX=  1.000000  1.000000  1.000000  1.000000 ScalE2=  1.000000  1.000000
 IRadAn=      5 IRanWt=     -1 IRanGd=            0 ICorTp=0 IEmpDi=  4
 NAtoms=    6 NActive=    6 NUniq=    6 SFac= 1.00D+00 NAtFMM=   60 NAOKFM=F Big=F
 Integral buffers will be    131072 words long.
 Raffenetti 1 integral format.
 Two-electron integral symmetry is turned off.
 Background charge distribution read from rwf.
 PtFMM for NChg=        96 BoxLen=    40.00 Levels= 1 LMax=20 SMax=    22.2 ICnFMM=     1:
 Self energy of the charges =       -14.5876236838 a.u.
 MM   energy of the charges =         0.0000000000 a.u.
 Nuclei-charges interaction =         0.6793133958 a.u.
 Nuclear repulsion after external point charges =       24.0445416700 Hartrees.
 Leave Link  301 at Fri May 15 22:36:23 2020, MaxMem=   134217728 cpu:               0.3 elap:               0.1
 (Enter /home/soft/g16/l302.exe)
 NPDir=0 NMtPBC=     1 NCelOv=     1 NCel=       1 NClECP=     1 NCelD=      1
         NCelK=      1 NCelE2=     1 NClLst=     1 CellRange=     0.0.
 One-electron integrals computed using PRISM.
 NBasis=    48 RedAO= T EigKep=  3.06D-02  NBF=    48
 NBsUse=    48 1.00D-06 EigRej= -1.00D+00 NBFU=    48
 Leave Link  302 at Fri May 15 22:36:24 2020, MaxMem=   134217728 cpu:               0.5 elap:               0.1
 (Enter /home/soft/g16/l303.exe)
 DipDrv:  MaxL=1.
 Leave Link  303 at Fri May 15 22:36:24 2020, MaxMem=   134217728 cpu:               0.1 elap:               0.1
 (Enter /home/soft/g16/l401.exe)
 ExpMin= 1.61D-01 ExpMax= 5.48D+03 ExpMxC= 8.25D+02 IAcc=3 IRadAn=         5 AccDes= 0.00D+00
 Harris functional with IExCor=  205 and IRadAn=       5 diagonalized for initial guess.
 HarFok:  IExCor=  205 AccDes= 0.00D+00 IRadAn=         5 IDoV= 1 UseB2=F ITyADJ=14
 ICtDFT=  3500011 ScaDFX=  1.000000  1.000000  1.000000  1.000000
 FoFCou: FMM=F IPFlag=           0 FMFlag=      100000 FMFlg1=           0
         NFxFlg=           0 DoJE=T BraDBF=F KetDBF=T FulRan=T
         wScrn=  0.000000 ICntrl=       500 IOpCl=  0 I1Cent=   200000004 NGrid=           0
         NMat0=    1 NMatS0=      1 NMatT0=    0 NMatD0=    1 NMtDS0=    0 NMtDT0=    0
 Symmetry not used in FoFCou.
 Harris En= -166.858889488836    
 JPrj=0 DoOrth=F DoCkMO=F.
 Leave Link  401 at Fri May 15 22:36:24 2020, MaxMem=   134217728 cpu:               1.0 elap:               0.3
 (Enter /home/soft/g16/l502.exe)
 Keep R1 ints in memory in canonical form, NReq=1531172.
 FoFCou: FMM=F IPFlag=           0 FMFlag=           0 FMFlg1=           0
         NFxFlg=           0 DoJE=F BraDBF=F KetDBF=F FulRan=T
         wScrn=  0.000000 ICntrl=       600 IOpCl=  0 I1Cent=           0 NGrid=           0
         NMat0=    1 NMatS0=   1176 NMatT0=    0 NMatD0=    1 NMtDS0=    0 NMtDT0=    0
 Symmetry not used in FoFCou.
 Two-electron integral symmetry not used.
 Closed shell SCF:
 Using DIIS extrapolation, IDIIS=  1040.
 NGot=   134217728 LenX=   133519768 LenY=   133516827
 Requested convergence on RMS density matrix=1.00D-08 within 128 cycles.
 Requested convergence on MAX density matrix=1.00D-06.
 Requested convergence on             energy=1.00D-06.
 No special actions if energy rises.

 Cycle   1  Pass 1  IDiag  1:
 E= -166.521199092603    
 DIIS: error= 4.54D-02 at cycle   1 NSaved=   1.
 NSaved= 1 IEnMin= 1 EnMin= -166.521199092603     IErMin= 1 ErrMin= 4.54D-02
 ErrMax= 4.54D-02  0.00D+00 EMaxC= 1.00D-01 BMatC= 2.33D-01 BMatP= 2.33D-01
 IDIUse=3 WtCom= 5.46D-01 WtEn= 4.54D-01
 Coeff-Com:  0.100D+01
 Coeff-En:   0.100D+01
 Coeff:      0.100D+01
 Gap=     0.604 Goal=   None    Shift=    0.000
 GapD=    0.604 DampG=2.000 DampE=0.500 DampFc=1.0000 IDamp=-1.
 RMSDP=8.15D-03 MaxDP=1.22D-01              OVMax= 1.16D-01

 Cycle   2  Pass 1  IDiag  1:
 E= -166.628856388743     Delta-E=       -0.107657296140 Rises=F Damp=F
 DIIS: error= 2.60D-02 at cycle   2 NSaved=   2.
 NSaved= 2 IEnMin= 2 EnMin= -166.628856388743     IErMin= 2 ErrMin= 2.60D-02
 ErrMax= 2.60D-02  0.00D+00 EMaxC= 1.00D-01 BMatC= 6.87D-02 BMatP= 2.33D-01
 IDIUse=3 WtCom= 7.40D-01 WtEn= 2.60D-01
 Coeff-Com:  0.339D+00 0.661D+00
 Coeff-En:   0.671D-01 0.933D+00
 Coeff:      0.269D+00 0.731D+00
 Gap=     0.706 Goal=   None    Shift=    0.000
 RMSDP=3.68D-03 MaxDP=4.78D-02 DE=-1.08D-01 OVMax= 4.41D-02

 Cycle   3  Pass 1  IDiag  1:
 E= -166.674717269260     Delta-E=       -0.045860880518 Rises=F Damp=F
 DIIS: error= 4.93D-03 at cycle   3 NSaved=   3.
 NSaved= 3 IEnMin= 3 EnMin= -166.674717269260     IErMin= 3 ErrMin= 4.93D-03
 ErrMax= 4.93D-03  0.00D+00 EMaxC= 1.00D-01 BMatC= 1.61D-03 BMatP= 6.87D-02
 IDIUse=3 WtCom= 9.51D-01 WtEn= 4.93D-02
 Coeff-Com: -0.320D-01 0.865D-01 0.945D+00
 Coeff-En:   0.000D+00 0.000D+00 0.100D+01
 Coeff:     -0.305D-01 0.823D-01 0.948D+00
 Gap=     0.688 Goal=   None    Shift=    0.000
 RMSDP=5.03D-04 MaxDP=7.86D-03 DE=-4.59D-02 OVMax= 8.67D-03

 Cycle   4  Pass 1  IDiag  1:
 E= -166.675991876703     Delta-E=       -0.001274607443 Rises=F Damp=F
 DIIS: error= 4.74D-04 at cycle   4 NSaved=   4.
 NSaved= 4 IEnMin= 4 EnMin= -166.675991876703     IErMin= 4 ErrMin= 4.74D-04
 ErrMax= 4.74D-04  0.00D+00 EMaxC= 1.00D-01 BMatC= 1.64D-05 BMatP= 1.61D-03
 IDIUse=3 WtCom= 9.95D-01 WtEn= 4.74D-03
 Coeff-Com:  0.582D-02-0.386D-01-0.277D+00 0.131D+01
 Coeff-En:   0.000D+00 0.000D+00 0.000D+00 0.100D+01
 Coeff:      0.579D-02-0.384D-01-0.276D+00 0.131D+01
 Gap=     0.690 Goal=   None    Shift=    0.000
 RMSDP=1.56D-04 MaxDP=2.09D-03 DE=-1.27D-03 OVMax= 2.96D-03

 Cycle   5  Pass 1  IDiag  1:
 E= -166.676026312681     Delta-E=       -0.000034435978 Rises=F Damp=F
 DIIS: error= 1.69D-04 at cycle   5 NSaved=   5.
 NSaved= 5 IEnMin= 5 EnMin= -166.676026312681     IErMin= 5 ErrMin= 1.69D-04
 ErrMax= 1.69D-04  0.00D+00 EMaxC= 1.00D-01 BMatC= 1.64D-06 BMatP= 1.64D-05
 IDIUse=3 WtCom= 9.98D-01 WtEn= 1.69D-03
 Coeff-Com:  0.312D-02-0.139D-01-0.115D+00 0.271D+00 0.855D+00
 Coeff-En:   0.000D+00 0.000D+00 0.000D+00 0.000D+00 0.100D+01
 Coeff:      0.312D-02-0.139D-01-0.115D+00 0.271D+00 0.855D+00
 Gap=     0.690 Goal=   None    Shift=    0.000
 RMSDP=3.25D-05 MaxDP=3.51D-04 DE=-3.44D-05 OVMax= 5.09D-04

 Cycle   6  Pass 1  IDiag  1:
 E= -166.676028530501     Delta-E=       -0.000002217820 Rises=F Damp=F
 DIIS: error= 4.73D-05 at cycle   6 NSaved=   6.
 NSaved= 6 IEnMin= 6 EnMin= -166.676028530501     IErMin= 6 ErrMin= 4.73D-05
 ErrMax= 4.73D-05  0.00D+00 EMaxC= 1.00D-01 BMatC= 1.35D-07 BMatP= 1.64D-06
 IDIUse=1 WtCom= 1.00D+00 WtEn= 0.00D+00
 Coeff-Com: -0.500D-03 0.394D-02 0.287D-01-0.152D+00 0.552D-01 0.106D+01
 Coeff:     -0.500D-03 0.394D-02 0.287D-01-0.152D+00 0.552D-01 0.106D+01
 Gap=     0.690 Goal=   None    Shift=    0.000
 RMSDP=1.34D-05 MaxDP=2.21D-04 DE=-2.22D-06 OVMax= 2.57D-04

 Cycle   7  Pass 1  IDiag  1:
 E= -166.676028762891     Delta-E=       -0.000000232390 Rises=F Damp=F
 DIIS: error= 4.84D-06 at cycle   7 NSaved=   7.
 NSaved= 7 IEnMin= 7 EnMin= -166.676028762891     IErMin= 7 ErrMin= 4.84D-06
 ErrMax= 4.84D-06  0.00D+00 EMaxC= 1.00D-01 BMatC= 2.81D-09 BMatP= 1.35D-07
 IDIUse=1 WtCom= 1.00D+00 WtEn= 0.00D+00
 Coeff-Com: -0.890D-04 0.282D-03 0.261D-02 0.105D-02-0.434D-01-0.897D-01
 Coeff-Com:  0.113D+01
 Coeff:     -0.890D-04 0.282D-03 0.261D-02 0.105D-02-0.434D-01-0.897D-01
 Coeff:      0.113D+01
 Gap=     0.690 Goal=   None    Shift=    0.000
 RMSDP=1.99D-06 MaxDP=2.48D-05 DE=-2.32D-07 OVMax= 3.13D-05

 Cycle   8  Pass 1  IDiag  1:
 E= -166.676028768841     Delta-E=       -0.000000005950 Rises=F Damp=F
 DIIS: error= 1.22D-06 at cycle   8 NSaved=   8.
 NSaved= 8 IEnMin= 8 EnMin= -166.676028768841     IErMin= 8 ErrMin= 1.22D-06
 ErrMax= 1.22D-06  0.00D+00 EMaxC= 1.00D-01 BMatC= 1.39D-10 BMatP= 2.81D-09
 IDIUse=1 WtCom= 1.00D+00 WtEn= 0.00D+00
 Coeff-Com:  0.440D-04-0.214D-03-0.181D-02 0.455D-02 0.141D-01 0.978D-03
 Coeff-Com: -0.415D+00 0.140D+01
 Coeff:      0.440D-04-0.214D-03-0.181D-02 0.455D-02 0.141D-01 0.978D-03
 Coeff:     -0.415D+00 0.140D+01
 Gap=     0.690 Goal=   None    Shift=    0.000
 RMSDP=4.39D-07 MaxDP=5.11D-06 DE=-5.95D-09 OVMax= 8.24D-06

 Cycle   9  Pass 1  IDiag  1:
 E= -166.676028769173     Delta-E=       -0.000000000332 Rises=F Damp=F
 DIIS: error= 1.69D-07 at cycle   9 NSaved=   9.
 NSaved= 9 IEnMin= 9 EnMin= -166.676028769173     IErMin= 9 ErrMin= 1.69D-07
 ErrMax= 1.69D-07  0.00D+00 EMaxC= 1.00D-01 BMatC= 2.90D-12 BMatP= 1.39D-10
 IDIUse=1 WtCom= 1.00D+00 WtEn= 0.00D+00
 Coeff-Com: -0.887D-05 0.483D-04 0.406D-03-0.135D-02-0.213D-02 0.315D-02
 Coeff-Com:  0.692D-01-0.350D+00 0.128D+01
 Coeff:     -0.887D-05 0.483D-04 0.406D-03-0.135D-02-0.213D-02 0.315D-02
 Coeff:      0.692D-01-0.350D+00 0.128D+01
 Gap=     0.690 Goal=   None    Shift=    0.000
 RMSDP=7.22D-08 MaxDP=6.94D-07 DE=-3.32D-10 OVMax= 1.27D-06

 Cycle  10  Pass 1  IDiag  1:
 E= -166.676028769180     Delta-E=       -0.000000000008 Rises=F Damp=F
 DIIS: error= 2.44D-08 at cycle  10 NSaved=  10.
 NSaved=10 IEnMin=10 EnMin= -166.676028769180     IErMin=10 ErrMin= 2.44D-08
 ErrMax= 2.44D-08  0.00D+00 EMaxC= 1.00D-01 BMatC= 8.00D-14 BMatP= 2.90D-12
 IDIUse=1 WtCom= 1.00D+00 WtEn= 0.00D+00
 Coeff-Com:  0.468D-06-0.316D-05-0.264D-04 0.127D-03 0.545D-05-0.602D-03
 Coeff-Com: -0.179D-02 0.289D-01-0.258D+00 0.123D+01
 Coeff:      0.468D-06-0.316D-05-0.264D-04 0.127D-03 0.545D-05-0.602D-03
 Coeff:     -0.179D-02 0.289D-01-0.258D+00 0.123D+01
 Gap=     0.690 Goal=   None    Shift=    0.000
 RMSDP=1.36D-08 MaxDP=9.93D-08 DE=-7.56D-12 OVMax= 2.35D-07

 Cycle  11  Pass 1  IDiag  1:
 E= -166.676028769180     Delta-E=        0.000000000000 Rises=F Damp=F
 DIIS: error= 6.71D-09 at cycle  11 NSaved=  11.
 NSaved=11 IEnMin=10 EnMin= -166.676028769180     IErMin=11 ErrMin= 6.71D-09
 ErrMax= 6.71D-09  0.00D+00 EMaxC= 1.00D-01 BMatC= 3.80D-15 BMatP= 8.00D-14
 IDIUse=1 WtCom= 1.00D+00 WtEn= 0.00D+00
 Coeff-Com:  0.305D-06-0.156D-05-0.128D-04 0.334D-04 0.102D-03-0.578D-05
 Coeff-Com: -0.286D-02 0.105D-01-0.130D-01-0.200D+00 0.121D+01
 Coeff:      0.305D-06-0.156D-05-0.128D-04 0.334D-04 0.102D-03-0.578D-05
 Coeff:     -0.286D-02 0.105D-01-0.130D-01-0.200D+00 0.121D+01
 Gap=     0.690 Goal=   None    Shift=    0.000
 RMSDP=3.14D-09 MaxDP=3.03D-08 DE= 4.26D-13 OVMax= 5.78D-08

 SCF Done:  E(RHF) =  -166.676028769     A.U. after   11 cycles
            NFock= 11  Conv=0.31D-08     -V/T= 2.0978
 KE= 1.518208659373D+02 PE=-4.378207330548D+02 EE= 9.527929667839D+01
 Leave Link  502 at Fri May 15 22:36:24 2020, MaxMem=   134217728 cpu:               0.7 elap:               0.2
 (Enter /home/soft/g16/l601.exe)
 Copying SCF densities to generalized density rwf, IOpCl= 0 IROHF=0.

 **********************************************************************

            Population analysis using the SCF density.

 **********************************************************************

 Alpha  occ. eigenvalues --  -20.60051 -20.58499  -1.38975  -1.36551  -0.75504
 Alpha  occ. eigenvalues --   -0.72824  -0.63097  -0.60060  -0.54484  -0.52020
 Alpha virt. eigenvalues --    0.17010   0.23313   0.32870   0.37381   0.94850
 Alpha virt. eigenvalues --    0.99056   1.02833   1.08858   1.10090   1.14041
 Alpha virt. eigenvalues --    1.16350   1.27144   1.29229   1.31031   1.55088
 Alpha virt. eigenvalues --    1.68369   1.74507   1.78493   1.79445   1.84297
 Alpha virt. eigenvalues --    1.89169   1.95108   2.52499   2.56022   2.57237
 Alpha virt. eigenvalues --    2.60828   2.77827   2.79491   2.92676   2.93555
 Alpha virt. eigenvalues --    2.97349   3.11245   3.32913   3.38293   3.72287
 Alpha virt. eigenvalues --    3.74524   3.90767   3.94100
          Condensed to atoms (all electrons):
               1          2          3          4          5          6
     1  O    8.083273  -0.019443   0.316901   0.310147   0.000666   0.047543
     2  O   -0.019443   8.159226   0.000687   0.004023   0.312285   0.296468
     3  H    0.316901   0.000687   0.323323  -0.019884  -0.000008  -0.002132
     4  H    0.310147   0.004023  -0.019884   0.304529   0.000046  -0.005244
     5  H    0.000666   0.312285  -0.000008   0.000046   0.394501  -0.026397
     6  H    0.047543   0.296468  -0.002132  -0.005244  -0.026397   0.303835
 Mulliken charges:
               1
     1  O   -0.739085
     2  O   -0.753246
     3  H    0.381114
     4  H    0.406383
     5  H    0.318907
     6  H    0.385927
 Sum of Mulliken charges =  -0.00000
 Mulliken charges with hydrogens summed into heavy atoms:
               1
     1  O    0.048412
     2  O   -0.048412
 Electronic spatial extent (au):  <R**2>=          26967.3673
 Charge=             -0.0000 electrons
 Dipole moment (field-independent basis, Debye):
    X=              0.0225    Y=              0.7075    Z=             -1.7586  Tot=              1.8957
 Quadrupole moment (field-independent basis, Debye-Ang):
   XX=             -9.9601   YY=            -33.5895   ZZ=             20.0944
   XY=              3.1892   XZ=             -5.3888   YZ=             15.3688
 Traceless Quadrupole moment (field-independent basis, Debye-Ang):
   XX=             -2.1417   YY=            -25.7711   ZZ=             27.9127
   XY=              3.1892   XZ=             -5.3888   YZ=             15.3688
 Octapole moment (field-independent basis, Debye-Ang**2):
  XXX=           -170.2167  YYY=           1055.0582  ZZZ=            -72.1318  XYY=           -168.6064
  XXY=            172.6580  XXZ=             95.6792  XZZ=             20.6986  YZZ=           -142.6216
  YYZ=             63.0890  XYZ=             19.2356
 Hexadecapole moment (field-independent basis, Debye-Ang**3):
 XXXX=          -1933.1963 YYYY=         -27543.4260 ZZZZ=          -2299.7617 XXXY=           2736.3262
 XXXZ=           1814.8390 YYYX=           5475.1816 YYYZ=          -7493.3781 ZZZX=           1003.9956
 ZZZY=          -1096.5548 XXYY=          -3317.8523 XXZZ=          -1415.7666 YYZZ=          -1607.1646
 XXYZ=          -1840.1088 YYXZ=           1343.5860 ZZXY=            619.2305
 N-N= 2.404454166996D+01 E-N=-4.378207330541D+02  KE= 1.518208659373D+02
 No NMR shielding tensors so no spin-rotation constants.
 Leave Link  601 at Fri May 15 22:36:24 2020, MaxMem=   134217728 cpu:               0.6 elap:               0.2
 (Enter /home/soft/g16/l607.exe)
 ******************************Gaussian NBO Version 3.1******************************
             N A T U R A L   A T O M I C   O R B I T A L   A N D
          N A T U R A L   B O N D   O R B I T A L   A N A L Y S I S
 ******************************Gaussian NBO Version 3.1******************************
       /RESON  / : Allow strongly delocalized NBO set

 Analyzing the SCF density

 Job title: Atom number=6                                                   

 Storage needed:      7158 in NPA ( 134217512 available)
 GSVD:  LWork=         960 too small for GESVD, short by        1512 words or        1512 for optimal perf.


 NATURAL POPULATIONS:  Natural atomic orbital occupancies 
                                                          
   NAO  Atom  No  lang   Type(AO)    Occupancy      Energy
 ----------------------------------------------------------
     1    O    1  S      Cor( 1S)     1.99987     -20.42054
     2    O    1  S      Val( 2S)     1.75865      -1.19370
     3    O    1  S      Ryd( 3S)     0.00090       1.73265
     4    O    1  px     Val( 2p)     1.58975      -0.39472
     5    O    1  px     Ryd( 3p)     0.00145       1.24448
     6    O    1  py     Val( 2p)     1.73952      -0.44661
     7    O    1  py     Ryd( 3p)     0.00054       1.21223
     8    O    1  pz     Val( 2p)     1.93342      -0.50215
     9    O    1  pz     Ryd( 3p)     0.00109       1.27536
    10    O    1  dxy    Ryd( 3d)     0.00133       2.72429
    11    O    1  dxz    Ryd( 3d)     0.00036       2.34078
    12    O    1  dyz    Ryd( 3d)     0.00137       2.33363
    13    O    1  dx2y2  Ryd( 3d)     0.00144       2.80337
    14    O    1  dz2    Ryd( 3d)     0.00112       2.46703

    15    O    2  S      Cor( 1S)     1.99984     -20.42688
    16    O    2  S      Val( 2S)     1.74711      -1.20652
    17    O    2  S      Ryd( 3S)     0.00123       1.77289
    18    O    2  px     Val( 2p)     1.75988      -0.46441
    19    O    2  px     Ryd( 3p)     0.00096       1.18658
    20    O    2  py     Val( 2p)     1.85622      -0.50251
    21    O    2  py     Ryd( 3p)     0.00054       1.14047
    22    O    2  pz     Val( 2p)     1.65145      -0.43583
    23    O    2  pz     Ryd( 3p)     0.00187       1.22674
    24    O    2  dxy    Ryd( 3d)     0.00153       2.57590
    25    O    2  dxz    Ryd( 3d)     0.00062       2.44264
    26    O    2  dyz    Ryd( 3d)     0.00112       2.51290
    27    O    2  dx2y2  Ryd( 3d)     0.00131       2.23853
    28    O    2  dz2    Ryd( 3d)     0.00095       2.81148

    29    H    3  S      Val( 1S)     0.47551       0.34735
    30    H    3  S      Ryd( 2S)     0.00059       0.72649
    31    H    3  px     Ryd( 2p)     0.00148       3.31048
    32    H    3  py     Ryd( 2p)     0.00067       2.68139
    33    H    3  pz     Ryd( 2p)     0.00084       2.63054

    34    H    4  S      Val( 1S)     0.45972       0.37437
    35    H    4  S      Ryd( 2S)     0.00072       0.78185
    36    H    4  px     Ryd( 2p)     0.00060       2.79627
    37    H    4  py     Ryd( 2p)     0.00158       3.20017
    38    H    4  pz     Ryd( 2p)     0.00083       2.65919

    39    H    5  S      Val( 1S)     0.52688       0.25291
    40    H    5  S      Ryd( 2S)     0.00097       0.67045
    41    H    5  px     Ryd( 2p)     0.00127       2.98464
    42    H    5  py     Ryd( 2p)     0.00118       2.79465
    43    H    5  pz     Ryd( 2p)     0.00071       2.68982

    44    H    6  S      Val( 1S)     0.46502       0.33708
    45    H    6  S      Ryd( 2S)     0.00297       0.81841
    46    H    6  px     Ryd( 2p)     0.00061       2.62363
    47    H    6  py     Ryd( 2p)     0.00073       2.71368
    48    H    6  pz     Ryd( 2p)     0.00168       3.33937


 Summary of Natural Population Analysis:                  
                                                          
                                       Natural Population 
                Natural  -----------------------------------------------
    Atom  No    Charge         Core      Valence    Rydberg      Total
 -----------------------------------------------------------------------
      O    1   -1.03082      1.99987     7.02134    0.00961     9.03082
      O    2   -1.02463      1.99984     7.01465    0.01014     9.02463
      H    3    0.52092      0.00000     0.47551    0.00357     0.47908
      H    4    0.53655      0.00000     0.45972    0.00373     0.46345
      H    5    0.46899      0.00000     0.52688    0.00413     0.53101
      H    6    0.52899      0.00000     0.46502    0.00599     0.47101
 =======================================================================
   * Total *   -0.00000      3.99971    15.96312    0.03717    20.00000

                                 Natural Population      
 --------------------------------------------------------
   Core                       3.99971 ( 99.9927% of   4)
   Valence                   15.96312 ( 99.7695% of  16)
   Natural Minimal Basis     19.96283 ( 99.8142% of  20)
   Natural Rydberg Basis      0.03717 (  0.1858% of  20)
 --------------------------------------------------------

    Atom  No          Natural Electron Configuration
 ----------------------------------------------------------------------------
      O    1      [core]2S( 1.76)2p( 5.26)3d( 0.01)
      O    2      [core]2S( 1.75)2p( 5.27)3d( 0.01)
      H    3            1S( 0.48)
      H    4            1S( 0.46)
      H    5            1S( 0.53)
      H    6            1S( 0.47)


 NBO analysis skipped by request.
 Leave Link  607 at Fri May 15 22:36:25 2020, MaxMem=   134217728 cpu:               0.8 elap:               0.2
 (Enter /home/soft/g16/l9999.exe)

 Test job not archived.
 1\1\GINC-MASTER\SP\RHF\6-31G(d,p)\H4O2\LIWEI01\15-May-2020\0\\#p hf/6-
 31g** 5d 7f pop=npa charge nosymm\\Atom number=6\\0,1\O,0,5.584754,-15
 .592165,-11.469857\O,0,5.59138,-15.533488,-8.700217\H,0,4.678503,-15.3
 4832,-11.658221\H,0,6.003083,-14.77354,-11.203238\H,0,6.309279,-16.070
 726,-8.365208\H,0,5.476258,-15.823936,-9.604992\\Version=ES64L-G16RevA
 .03\HF=-166.6760288\RMSD=3.137e-09\Dipole=0.0088623,0.2783349,-0.69188
 35\Quadrupole=-1.592282,-19.1601624,20.7524444,2.3710904,-4.0064303,11
 .4262912\PG=C01 [X(H4O2)]\\@


 FESTINA LENTE!
     - IMPERATOR AUGUSTUS 
 Job cpu time:       0 days  0 hours  0 minutes  5.3 seconds.
 Elapsed time:       0 days  0 hours  0 minutes  1.5 seconds.
 File lengths (MBytes):  RWF=     72 Int=      0 D2E=      0 Chk=      8 Scr=      8
 Normal termination of Gaussian 16 at Fri May 15 22:36:25 2020.
