 Entering Gaussian System, Link 0=g16
 Input=w32_63.gjf
 Output=w32_63.log
 Initial command:
 /home/soft/g16/l1.exe "/tmp/liwei01/gaussian/wsr/Gau-8032.inp" -scrdir="/tmp/liwei01/gaussian/wsr/"
 Entering Link 1 = /home/soft/g16/l1.exe PID=      8033.
  
 Copyright (c) 1988,1990,1992,1993,1995,1998,2003,2009,2016,
            Gaussian, Inc.  All Rights Reserved.
  
 This is part of the Gaussian(R) 16 program.  It is based on
 the Gaussian(R) 09 system (copyright 2009, Gaussian, Inc.),
 the Gaussian(R) 03 system (copyright 2003, Gaussian, Inc.),
 the Gaussian(R) 98 system (copyright 1998, Gaussian, Inc.),
 the Gaussian(R) 94 system (copyright 1995, Gaussian, Inc.),
 the Gaussian 92(TM) system (copyright 1992, Gaussian, Inc.),
 the Gaussian 90(TM) system (copyright 1990, Gaussian, Inc.),
 the Gaussian 88(TM) system (copyright 1988, Gaussian, Inc.),
 the Gaussian 86(TM) system (copyright 1986, Carnegie Mellon
 University), and the Gaussian 82(TM) system (copyright 1983,
 Carnegie Mellon University). Gaussian is a federally registered
 trademark of Gaussian, Inc.
  
 This software contains proprietary and confidential information,
 including trade secrets, belonging to Gaussian, Inc.
  
 This software is provided under written license and may be
 used, copied, transmitted, or stored only in accord with that
 written license.
  
 The following legend is applicable only to US Government
 contracts under FAR:
  
                    RESTRICTED RIGHTS LEGEND
  
 Use, reproduction and disclosure by the US Government is
 subject to restrictions as set forth in subparagraphs (a)
 and (c) of the Commercial Computer Software - Restricted
 Rights clause in FAR 52.227-19.
  
 Gaussian, Inc.
 340 Quinnipiac St., Bldg. 40, Wallingford CT 06492
  
  
 ---------------------------------------------------------------
 Warning -- This program may not be used in any manner that
 competes with the business of Gaussian, Inc. or will provide
 assistance to any competitor of Gaussian, Inc.  The licensee
 of this program is prohibited from giving any competitor of
 Gaussian, Inc. access to this program.  By using this program,
 the user acknowledges that Gaussian, Inc. is engaged in the
 business of creating and licensing software in the field of
 computational chemistry and represents and warrants to the
 licensee that it is not a competitor of Gaussian, Inc. and that
 it will not use this program in any manner prohibited above.
 ---------------------------------------------------------------
  

 Cite this work as:
 Gaussian 16, Revision A.03,
 M. J. Frisch, G. W. Trucks, H. B. Schlegel, G. E. Scuseria, 
 M. A. Robb, J. R. Cheeseman, G. Scalmani, V. Barone, 
 G. A. Petersson, H. Nakatsuji, X. Li, M. Caricato, A. V. Marenich, 
 J. Bloino, B. G. Janesko, R. Gomperts, B. Mennucci, H. P. Hratchian, 
 J. V. Ortiz, A. F. Izmaylov, J. L. Sonnenberg, D. Williams-Young, 
 F. Ding, F. Lipparini, F. Egidi, J. Goings, B. Peng, A. Petrone, 
 T. Henderson, D. Ranasinghe, V. G. Zakrzewski, J. Gao, N. Rega, 
 G. Zheng, W. Liang, M. Hada, M. Ehara, K. Toyota, R. Fukuda, 
 J. Hasegawa, M. Ishida, T. Nakajima, Y. Honda, O. Kitao, H. Nakai, 
 T. Vreven, K. Throssell, J. A. Montgomery, Jr., J. E. Peralta, 
 F. Ogliaro, M. J. Bearpark, J. J. Heyd, E. N. Brothers, K. N. Kudin, 
 V. N. Staroverov, T. A. Keith, R. Kobayashi, J. Normand, 
 K. Raghavachari, A. P. Rendell, J. C. Burant, S. S. Iyengar, 
 J. Tomasi, M. Cossi, J. M. Millam, M. Klene, C. Adamo, R. Cammi, 
 J. W. Ochterski, R. L. Martin, K. Morokuma, O. Farkas, 
 J. B. Foresman, and D. J. Fox, Gaussian, Inc., Wallingford CT, 2016.
 
 ******************************************
 Gaussian 16:  ES64L-G16RevA.03 25-Dec-2016
                15-May-2020 
 ******************************************
 %chk=w32_63.chk
 %nproc=4
 Will use up to    4 processors via shared memory.
 %mem=1gb
 -----------------------------------------
 #p hf/6-31g** 5d 7f pop=npa charge nosymm
 -----------------------------------------
 1/18=10,28=-2,38=1,125=101,172=1/1;
 2/12=2,15=1,17=6,18=5,40=1/2;
 3/5=1,6=6,7=101,8=11,11=9,25=1,30=1/1,2,3;
 4//1;
 5/5=2,38=5/2;
 6/7=2,8=2,9=2,10=2,28=1,40=-1/1,7;
 99/5=1,9=1/99;
 Leave Link    1 at Fri May 15 22:36:07 2020, MaxMem=   134217728 cpu:               0.3 elap:               0.1
 (Enter /home/soft/g16/l101.exe)
 -------------
 Atom number=9
 -------------
 Symbolic Z-matrix:
 Charge =  0 Multiplicity = 1
 o                     7.25028  -9.85963  -13.10346 
 o                     6.96619  -9.24779  -10.27431 
 o                     4.64126  -8.13828  -12.67115 
 h                     7.12066  -10.22147  -13.9801 
 h                     7.34148  -10.62674  -12.53826 
 h                     6.97515  -9.84502  -11.02229 
 h                     7.68438  -8.63847  -10.4451 
 h                     4.59781  -7.27204  -12.2662 
 h                     5.5765   -8.33841  -12.70997 
 
 ITRead=  0  0  0  0  0  0  0  0  0
 MicOpt= -1 -1 -1 -1 -1 -1 -1 -1 -1
 NAtoms=      9 NQM=        9 NQMF=       0 NMMI=      0 NMMIF=      0
                NMic=       0 NMicF=      0.
                    Isotopes and Nuclear Properties:
 (Nuclear quadrupole moments (NQMom) in fm**2, nuclear magnetic moments (NMagM)
  in nuclear magnetons)

  Atom         1           2           3           4           5           6           7           8           9
 IAtWgt=          16          16          16           1           1           1           1           1           1
 AtmWgt=  15.9949146  15.9949146  15.9949146   1.0078250   1.0078250   1.0078250   1.0078250   1.0078250   1.0078250
 NucSpn=           0           0           0           1           1           1           1           1           1
 AtZEff=  -0.0000000  -0.0000000  -0.0000000  -0.0000000  -0.0000000  -0.0000000  -0.0000000  -0.0000000  -0.0000000
 NQMom=    0.0000000   0.0000000   0.0000000   0.0000000   0.0000000   0.0000000   0.0000000   0.0000000   0.0000000
 NMagM=    0.0000000   0.0000000   0.0000000   2.7928460   2.7928460   2.7928460   2.7928460   2.7928460   2.7928460
 AtZNuc=   8.0000000   8.0000000   8.0000000   1.0000000   1.0000000   1.0000000   1.0000000   1.0000000   1.0000000
 Background charge distribution read from input stream:
 Point Charges:
 XYZ=    8.3923  -11.8129  -11.2005 Q=   -1.0561 A=    0.0000 R=    0.0000 C=    0.0000
 XYZ=    8.1753  -12.5378  -10.6142 Q=    0.5233 A=    0.0000 R=    0.0000 C=    0.0000
 XYZ=    9.2522  -11.5141  -10.9045 Q=    0.5177 A=    0.0000 R=    0.0000 C=    0.0000
 XYZ=   10.7060  -10.8489  -10.0915 Q=   -1.0357 A=    0.0000 R=    0.0000 C=    0.0000
 XYZ=   11.5214  -11.3203   -9.9208 Q=    0.5206 A=    0.0000 R=    0.0000 C=    0.0000
 XYZ=   10.5678  -10.3169   -9.3078 Q=    0.5156 A=    0.0000 R=    0.0000 C=    0.0000
 XYZ=    8.6932  -14.0693   -9.5471 Q=   -1.0099 A=    0.0000 R=    0.0000 C=    0.0000
 XYZ=    8.2201  -13.7327   -8.7861 Q=    0.4999 A=    0.0000 R=    0.0000 C=    0.0000
 XYZ=    8.5528  -15.0157   -9.5178 Q=    0.5079 A=    0.0000 R=    0.0000 C=    0.0000
 XYZ=    5.5704  -12.7600  -10.7338 Q=   -1.0500 A=    0.0000 R=    0.0000 C=    0.0000
 XYZ=    4.6427  -12.8278  -10.5079 Q=    0.5214 A=    0.0000 R=    0.0000 C=    0.0000
 XYZ=    5.9838  -12.4052   -9.9468 Q=    0.5064 A=    0.0000 R=    0.0000 C=    0.0000
 XYZ=    6.9426  -11.8294   -8.3710 Q=   -1.0528 A=    0.0000 R=    0.0000 C=    0.0000
 XYZ=    7.4956  -12.0911   -7.6348 Q=    0.5210 A=    0.0000 R=    0.0000 C=    0.0000
 XYZ=    7.3075  -10.9928   -8.6597 Q=    0.5255 A=    0.0000 R=    0.0000 C=    0.0000
 XYZ=    9.7397  -14.5602  -13.0841 Q=   -1.0029 A=    0.0000 R=    0.0000 C=    0.0000
 XYZ=    9.4367  -13.9209  -12.4394 Q=    0.5215 A=    0.0000 R=    0.0000 C=    0.0000
 XYZ=   10.6527  -14.3230  -13.2466 Q=    0.4988 A=    0.0000 R=    0.0000 C=    0.0000
 XYZ=   10.0849   -9.6030  -13.6944 Q=   -1.0549 A=    0.0000 R=    0.0000 C=    0.0000
 XYZ=    9.8380   -9.8779  -14.5774 Q=    0.5180 A=    0.0000 R=    0.0000 C=    0.0000
 XYZ=    9.2671   -9.6284  -13.1976 Q=    0.5226 A=    0.0000 R=    0.0000 C=    0.0000
 XYZ=    9.4738   -7.9972  -10.9180 Q=   -0.9971 A=    0.0000 R=    0.0000 C=    0.0000
 XYZ=    9.9975   -8.7956  -10.8516 Q=    0.5301 A=    0.0000 R=    0.0000 C=    0.0000
 XYZ=    9.6234   -7.5424  -10.0892 Q=    0.4920 A=    0.0000 R=    0.0000 C=    0.0000
 XYZ=    8.4516  -10.6356  -15.6859 Q=   -1.0322 A=    0.0000 R=    0.0000 C=    0.0000
 XYZ=    8.1250  -10.4069  -16.5562 Q=    0.4798 A=    0.0000 R=    0.0000 C=    0.0000
 XYZ=    9.2622  -11.1166  -15.8526 Q=    0.5341 A=    0.0000 R=    0.0000 C=    0.0000
 XYZ=    4.0391  -11.2243  -12.8044 Q=   -0.9921 A=    0.0000 R=    0.0000 C=    0.0000
 XYZ=    4.5248  -12.0476  -12.7552 Q=    0.4802 A=    0.0000 R=    0.0000 C=    0.0000
 XYZ=    4.4321  -10.7575  -13.5420 Q=    0.5046 A=    0.0000 R=    0.0000 C=    0.0000
 XYZ=    5.5848  -15.5922  -11.4699 Q=   -1.0129 A=    0.0000 R=    0.0000 C=    0.0000
 XYZ=    4.6785  -15.3483  -11.6582 Q=    0.5050 A=    0.0000 R=    0.0000 C=    0.0000
 XYZ=    6.0031  -14.7735  -11.2032 Q=    0.5257 A=    0.0000 R=    0.0000 C=    0.0000
 XYZ=    8.8013  -12.4259   -6.4973 Q=   -0.9852 A=    0.0000 R=    0.0000 C=    0.0000
 XYZ=    9.0556  -11.7490   -5.8701 Q=    0.5006 A=    0.0000 R=    0.0000 C=    0.0000
 XYZ=    8.9395  -13.2499   -6.0303 Q=    0.5083 A=    0.0000 R=    0.0000 C=    0.0000
 XYZ=   10.5523   -9.0602   -7.7657 Q=   -0.9799 A=    0.0000 R=    0.0000 C=    0.0000
 XYZ=   10.0296   -9.4526   -7.0665 Q=    0.5003 A=    0.0000 R=    0.0000 C=    0.0000
 XYZ=   10.0576   -8.2839   -8.0284 Q=    0.4937 A=    0.0000 R=    0.0000 C=    0.0000
 XYZ=    8.4919  -14.1596  -15.7110 Q=   -0.9823 A=    0.0000 R=    0.0000 C=    0.0000
 XYZ=    8.8439  -15.0437  -15.8144 Q=    0.4799 A=    0.0000 R=    0.0000 C=    0.0000
 XYZ=    8.9183  -13.8221  -14.9233 Q=    0.4950 A=    0.0000 R=    0.0000 C=    0.0000
 XYZ=   10.6752  -11.9252  -15.8192 Q=   -0.9837 A=    0.0000 R=    0.0000 C=    0.0000
 XYZ=   11.1454  -12.2597  -15.0555 Q=    0.5055 A=    0.0000 R=    0.0000 C=    0.0000
 XYZ=   10.7694  -12.6123  -16.4789 Q=    0.5125 A=    0.0000 R=    0.0000 C=    0.0000
 XYZ=    7.7593  -16.5050  -13.2460 Q=   -1.0112 A=    0.0000 R=    0.0000 C=    0.0000
 XYZ=    7.3079  -16.2111  -12.4547 Q=    0.4926 A=    0.0000 R=    0.0000 C=    0.0000
 XYZ=    8.5373  -15.9498  -13.2987 Q=    0.4973 A=    0.0000 R=    0.0000 C=    0.0000
 XYZ=   13.4576  -11.7733   -9.7740 Q=   -0.9993 A=    0.0000 R=    0.0000 C=    0.0000
 XYZ=   13.9089  -10.9962  -10.1037 Q=    0.5128 A=    0.0000 R=    0.0000 C=    0.0000
 XYZ=   14.1508  -12.4236   -9.6612 Q=    0.5076 A=    0.0000 R=    0.0000 C=    0.0000
 XYZ=    5.5914  -15.5335   -8.7002 Q=   -1.0162 A=    0.0000 R=    0.0000 C=    0.0000
 XYZ=    6.3093  -16.0707   -8.3652 Q=    0.4831 A=    0.0000 R=    0.0000 C=    0.0000
 XYZ=    5.4763  -15.8239   -9.6050 Q=    0.5237 A=    0.0000 R=    0.0000 C=    0.0000
 XYZ=    5.3398  -11.2122  -15.4745 Q=   -0.9760 A=    0.0000 R=    0.0000 C=    0.0000
 XYZ=    5.8801  -10.4587  -15.7120 Q=    0.4863 A=    0.0000 R=    0.0000 C=    0.0000
 XYZ=    5.4896  -11.8457  -16.1763 Q=    0.4965 A=    0.0000 R=    0.0000 C=    0.0000
 XYZ=   12.9960  -14.7139  -11.2100 Q=   -0.9778 A=    0.0000 R=    0.0000 C=    0.0000
 XYZ=   12.2864  -15.1619  -10.7497 Q=    0.5059 A=    0.0000 R=    0.0000 C=    0.0000
 XYZ=   13.6357  -14.5124  -10.5270 Q=    0.4638 A=    0.0000 R=    0.0000 C=    0.0000
 XYZ=    8.9611  -17.0167   -9.2755 Q=   -0.9921 A=    0.0000 R=    0.0000 C=    0.0000
 XYZ=    8.6736  -17.2191   -8.3852 Q=    0.5092 A=    0.0000 R=    0.0000 C=    0.0000
 XYZ=    8.3026  -17.4234   -9.8386 Q=    0.5103 A=    0.0000 R=    0.0000 C=    0.0000
 XYZ=   12.8900   -9.6906  -13.7511 Q=   -0.9984 A=    0.0000 R=    0.0000 C=    0.0000
 XYZ=   13.4884   -9.8459  -13.0204 Q=    0.4670 A=    0.0000 R=    0.0000 C=    0.0000
 XYZ=   12.0171   -9.7427  -13.3618 Q=    0.5160 A=    0.0000 R=    0.0000 C=    0.0000
 XYZ=    4.9070   -7.9100   -9.1300 Q=   -1.0105 A=    0.0000 R=    0.0000 C=    0.0000
 XYZ=    4.0635   -8.0265   -9.5674 Q=    0.4764 A=    0.0000 R=    0.0000 C=    0.0000
 XYZ=    5.4227   -8.6710   -9.3968 Q=    0.5176 A=    0.0000 R=    0.0000 C=    0.0000
 XYZ=    2.9547  -12.7024   -9.8757 Q=   -0.9915 A=    0.0000 R=    0.0000 C=    0.0000
 XYZ=    3.0641  -13.5048   -9.3654 Q=    0.5019 A=    0.0000 R=    0.0000 C=    0.0000
 XYZ=    2.7384  -12.0329   -9.2268 Q=    0.5105 A=    0.0000 R=    0.0000 C=    0.0000
 XYZ=    4.2108  -13.3306   -7.5546 Q=   -1.0293 A=    0.0000 R=    0.0000 C=    0.0000
 XYZ=    4.9638  -12.7453   -7.4735 Q=    0.4979 A=    0.0000 R=    0.0000 C=    0.0000
 XYZ=    4.5835  -14.1618   -7.8486 Q=    0.5197 A=    0.0000 R=    0.0000 C=    0.0000
 XYZ=    8.5389   -6.2611  -12.9484 Q=   -1.0019 A=    0.0000 R=    0.0000 C=    0.0000
 XYZ=    8.8800   -6.8491  -12.2745 Q=    0.5098 A=    0.0000 R=    0.0000 C=    0.0000
 XYZ=    9.2767   -6.1230  -13.5423 Q=    0.4773 A=    0.0000 R=    0.0000 C=    0.0000
 XYZ=   11.4715  -15.3553   -7.5180 Q=   -1.0197 A=    0.0000 R=    0.0000 C=    0.0000
 XYZ=   10.8644  -15.3558   -8.2581 Q=    0.4753 A=    0.0000 R=    0.0000 C=    0.0000
 XYZ=   11.9075  -14.5045   -7.5658 Q=    0.5146 A=    0.0000 R=    0.0000 C=    0.0000
 XYZ=   12.8138  -13.0185   -7.3663 Q=   -0.9959 A=    0.0000 R=    0.0000 C=    0.0000
 XYZ=   12.4819  -12.4171   -6.6996 Q=    0.4994 A=    0.0000 R=    0.0000 C=    0.0000
 XYZ=   12.6552  -12.5682   -8.1960 Q=    0.5110 A=    0.0000 R=    0.0000 C=    0.0000
 XYZ=   11.3245  -17.0116  -10.7628 Q=   -1.0019 A=    0.0000 R=    0.0000 C=    0.0000
 XYZ=   11.7165  -17.8633  -10.5702 Q=    0.4876 A=    0.0000 R=    0.0000 C=    0.0000
 XYZ=   10.4428  -17.0644  -10.3939 Q=    0.5095 A=    0.0000 R=    0.0000 C=    0.0000
 Pt Chg Charge=             -0.0014 electrons
 Pt Chg Dipole moment (Debye):
    X=             12.7945    Y=             -5.7848    Z=             18.4256  Tot=             23.1661
 Pt Chg Quadrupole moment (Debye-Ang):
   XX=            212.9268   YY=            138.9171   ZZ=           -330.4852
   XY=           -171.1397   XZ=             21.0889   YZ=           -152.5015
 Pt Chg Traceless Quadrupole moment (Debye-Ang):
   XX=            205.8073   YY=            131.7975   ZZ=           -337.6048
   XY=           -171.1397   XZ=             21.0889   YZ=           -152.5015
 Pt Chg Octapole moment (Debye-Ang**2):
  XXX=           2994.5731  YYY=          -2889.6886  ZZZ=           4215.8778  XYY=           2302.6985
  XXY=          -2419.3881  XXZ=           -871.0993  XZZ=          -1354.9797  YZZ=           3224.0358
  YYZ=           1246.5722  XYZ=            147.6390
 Pt Chg Hexadecapole moment (Debye-Ang**3):
 XXXX=          42183.7560 YYYY=          59395.9298 ZZZZ=         -39915.1860 XXXY=         -32012.3351
 XXXZ=         -18977.9580 YYYX=         -33804.6285 YYYZ=          -7137.6096 ZZZX=          20255.6834
 ZZZY=         -43097.1242 XXYY=          28089.2012 XXZZ=          -1255.0345 YYZZ=         -34920.2360
 XXYZ=          12623.7664 YYXZ=          -5164.8796 ZZXY=          10008.2356
 Leave Link  101 at Fri May 15 22:36:07 2020, MaxMem=   134217728 cpu:               0.7 elap:               0.2
 (Enter /home/soft/g16/l202.exe)
                          Input orientation:                          
 ---------------------------------------------------------------------
 Center     Atomic      Atomic             Coordinates (Angstroms)
 Number     Number       Type             X           Y           Z
 ---------------------------------------------------------------------
      1          8           0        7.250284   -9.859627  -13.103456
      2          8           0        6.966193   -9.247795  -10.274305
      3          8           0        4.641258   -8.138278  -12.671145
      4          1           0        7.120660  -10.221473  -13.980096
      5          1           0        7.341484  -10.626744  -12.538261
      6          1           0        6.975152   -9.845016  -11.022289
      7          1           0        7.684375   -8.638472  -10.445098
      8          1           0        4.597809   -7.272042  -12.266198
      9          1           0        5.576498   -8.338407  -12.709967
 ---------------------------------------------------------------------
                    Distance matrix (angstroms):
                    1          2          3          4          5
     1  O    0.000000
     2  O    2.908460   0.000000
     3  O    3.155464   3.518692   0.000000
     4  H    0.957200   3.834683   3.492920   0.000000
     5  H    0.957200   2.677282   3.674417   1.513901   0.000000
     6  H    2.099325   0.957201   3.328474   2.985216   1.744554
     7  H    2.957452   0.957199   3.803425   3.914062   2.907255
     8  H    3.798976   3.671577   0.957201   4.242802   4.342326
     9  H    2.295758   2.947997   0.957200   2.746562   2.895021
                    6          7          8          9
     6  H    0.000000
     7  H    1.513901   0.000000
     8  H    3.717427   3.835417   0.000000
     9  H    2.659767   3.108507   1.513901   0.000000
 Symmetry turned off by external request.
 Stoichiometry    H6O3
 Framework group  C1[X(H6O3)]
 Deg. of freedom    21
 Full point group                 C1      NOp   1
 Rotational constants (GHZ):           6.6485503           4.4244737           2.7106447
 Leave Link  202 at Fri May 15 22:36:07 2020, MaxMem=   134217728 cpu:               0.1 elap:               0.0
 (Enter /home/soft/g16/l301.exe)
 Standard basis: 6-31G(d,p) (5D, 7F)
 Ernie: Thresh=  0.10000D-02 Tol=  0.10000D-05 Strict=F.
    72 basis functions,   126 primitive gaussians,    75 cartesian basis functions
    15 alpha electrons       15 beta electrons
       nuclear repulsion energy        78.0863011293 Hartrees.
 IExCor=    0 DFT=F Ex=HF Corr=None ExCW=0 ScaHFX=  1.000000
 ScaDFX=  1.000000  1.000000  1.000000  1.000000 ScalE2=  1.000000  1.000000
 IRadAn=      5 IRanWt=     -1 IRanGd=            0 ICorTp=0 IEmpDi=  4
 NAtoms=    9 NActive=    9 NUniq=    9 SFac= 1.00D+00 NAtFMM=   60 NAOKFM=F Big=F
 Integral buffers will be    131072 words long.
 Raffenetti 1 integral format.
 Two-electron integral symmetry is turned off.
 Background charge distribution read from rwf.
 PtFMM for NChg=        96 BoxLen=    40.00 Levels= 1 LMax=20 SMax=    22.2 ICnFMM=     1:
 Self energy of the charges =       -14.0817086902 a.u.
 MM   energy of the charges =         0.0000000000 a.u.
 Nuclei-charges interaction =        -1.2998426523 a.u.
 Nuclear repulsion after external point charges =       62.7047497868 Hartrees.
 Leave Link  301 at Fri May 15 22:36:07 2020, MaxMem=   134217728 cpu:               0.3 elap:               0.1
 (Enter /home/soft/g16/l302.exe)
 NPDir=0 NMtPBC=     1 NCelOv=     1 NCel=       1 NClECP=     1 NCelD=      1
         NCelK=      1 NCelE2=     1 NClLst=     1 CellRange=     0.0.
 One-electron integrals computed using PRISM.
 NBasis=    72 RedAO= T EigKep=  2.89D-02  NBF=    72
 NBsUse=    72 1.00D-06 EigRej= -1.00D+00 NBFU=    72
 Leave Link  302 at Fri May 15 22:36:07 2020, MaxMem=   134217728 cpu:               0.5 elap:               0.1
 (Enter /home/soft/g16/l303.exe)
 DipDrv:  MaxL=1.
 Leave Link  303 at Fri May 15 22:36:07 2020, MaxMem=   134217728 cpu:               0.1 elap:               0.1
 (Enter /home/soft/g16/l401.exe)
 ExpMin= 1.61D-01 ExpMax= 5.48D+03 ExpMxC= 8.25D+02 IAcc=3 IRadAn=         5 AccDes= 0.00D+00
 Harris functional with IExCor=  205 and IRadAn=       5 diagonalized for initial guess.
 HarFok:  IExCor=  205 AccDes= 0.00D+00 IRadAn=         5 IDoV= 1 UseB2=F ITyADJ=14
 ICtDFT=  3500011 ScaDFX=  1.000000  1.000000  1.000000  1.000000
 FoFCou: FMM=F IPFlag=           0 FMFlag=      100000 FMFlg1=           0
         NFxFlg=           0 DoJE=T BraDBF=F KetDBF=T FulRan=T
         wScrn=  0.000000 ICntrl=       500 IOpCl=  0 I1Cent=   200000004 NGrid=           0
         NMat0=    1 NMatS0=      1 NMatT0=    0 NMatD0=    1 NMtDS0=    0 NMtDT0=    0
 Symmetry not used in FoFCou.
 Harris En= -242.495726463247    
 JPrj=0 DoOrth=F DoCkMO=F.
 Leave Link  401 at Fri May 15 22:36:08 2020, MaxMem=   134217728 cpu:               1.3 elap:               0.4
 (Enter /home/soft/g16/l502.exe)
 Keep R1 ints in memory in canonical form, NReq=4307997.
 FoFCou: FMM=F IPFlag=           0 FMFlag=           0 FMFlg1=           0
         NFxFlg=           0 DoJE=F BraDBF=F KetDBF=F FulRan=T
         wScrn=  0.000000 ICntrl=       600 IOpCl=  0 I1Cent=           0 NGrid=           0
         NMat0=    1 NMatS0=   2628 NMatT0=    0 NMatD0=    1 NMtDS0=    0 NMtDT0=    0
 Symmetry not used in FoFCou.
 Two-electron integral symmetry not used.
 Closed shell SCF:
 Using DIIS extrapolation, IDIIS=  1040.
 NGot=   134217728 LenX=   130750732 LenY=   130744666
 Requested convergence on RMS density matrix=1.00D-08 within 128 cycles.
 Requested convergence on MAX density matrix=1.00D-06.
 Requested convergence on             energy=1.00D-06.
 No special actions if energy rises.

 Cycle   1  Pass 1  IDiag  1:
 E= -241.974422937562    
 DIIS: error= 5.31D-02 at cycle   1 NSaved=   1.
 NSaved= 1 IEnMin= 1 EnMin= -241.974422937562     IErMin= 1 ErrMin= 5.31D-02
 ErrMax= 5.31D-02  0.00D+00 EMaxC= 1.00D-01 BMatC= 3.63D-01 BMatP= 3.63D-01
 IDIUse=3 WtCom= 4.69D-01 WtEn= 5.31D-01
 Coeff-Com:  0.100D+01
 Coeff-En:   0.100D+01
 Coeff:      0.100D+01
 Gap=     0.634 Goal=   None    Shift=    0.000
 GapD=    0.634 DampG=2.000 DampE=0.500 DampFc=1.0000 IDamp=-1.
 RMSDP=6.79D-03 MaxDP=1.23D-01              OVMax= 1.25D-01

 Cycle   2  Pass 1  IDiag  1:
 E= -242.142425071549     Delta-E=       -0.168002133987 Rises=F Damp=F
 DIIS: error= 2.81D-02 at cycle   2 NSaved=   2.
 NSaved= 2 IEnMin= 2 EnMin= -242.142425071549     IErMin= 2 ErrMin= 2.81D-02
 ErrMax= 2.81D-02  0.00D+00 EMaxC= 1.00D-01 BMatC= 1.10D-01 BMatP= 3.63D-01
 IDIUse=3 WtCom= 7.19D-01 WtEn= 2.81D-01
 Coeff-Com:  0.343D+00 0.657D+00
 Coeff-En:   0.780D-01 0.922D+00
 Coeff:      0.269D+00 0.731D+00
 Gap=     0.675 Goal=   None    Shift=    0.000
 RMSDP=3.05D-03 MaxDP=5.03D-02 DE=-1.68D-01 OVMax= 4.53D-02

 Cycle   3  Pass 1  IDiag  1:
 E= -242.215832182860     Delta-E=       -0.073407111311 Rises=F Damp=F
 DIIS: error= 5.25D-03 at cycle   3 NSaved=   3.
 NSaved= 3 IEnMin= 3 EnMin= -242.215832182860     IErMin= 3 ErrMin= 5.25D-03
 ErrMax= 5.25D-03  0.00D+00 EMaxC= 1.00D-01 BMatC= 2.59D-03 BMatP= 1.10D-01
 IDIUse=3 WtCom= 9.47D-01 WtEn= 5.25D-02
 Coeff-Com: -0.320D-01 0.877D-01 0.944D+00
 Coeff-En:   0.000D+00 0.000D+00 0.100D+01
 Coeff:     -0.304D-01 0.831D-01 0.947D+00
 Gap=     0.662 Goal=   None    Shift=    0.000
 RMSDP=4.15D-04 MaxDP=7.47D-03 DE=-7.34D-02 OVMax= 8.64D-03

 Cycle   4  Pass 1  IDiag  1:
 E= -242.217857678786     Delta-E=       -0.002025495926 Rises=F Damp=F
 DIIS: error= 4.72D-04 at cycle   4 NSaved=   4.
 NSaved= 4 IEnMin= 4 EnMin= -242.217857678786     IErMin= 4 ErrMin= 4.72D-04
 ErrMax= 4.72D-04  0.00D+00 EMaxC= 1.00D-01 BMatC= 2.20D-05 BMatP= 2.59D-03
 IDIUse=3 WtCom= 9.95D-01 WtEn= 4.72D-03
 Coeff-Com:  0.710D-02-0.437D-01-0.312D+00 0.135D+01
 Coeff-En:   0.000D+00 0.000D+00 0.000D+00 0.100D+01
 Coeff:      0.707D-02-0.435D-01-0.310D+00 0.135D+01
 Gap=     0.665 Goal=   None    Shift=    0.000
 RMSDP=9.67D-05 MaxDP=1.20D-03 DE=-2.03D-03 OVMax= 2.27D-03

 Cycle   5  Pass 1  IDiag  1:
 E= -242.217897494076     Delta-E=       -0.000039815290 Rises=F Damp=F
 DIIS: error= 8.12D-05 at cycle   5 NSaved=   5.
 NSaved= 5 IEnMin= 5 EnMin= -242.217897494076     IErMin= 5 ErrMin= 8.12D-05
 ErrMax= 8.12D-05  0.00D+00 EMaxC= 1.00D-01 BMatC= 4.86D-07 BMatP= 2.20D-05
 IDIUse=1 WtCom= 1.00D+00 WtEn= 0.00D+00
 Coeff-Com:  0.249D-03 0.130D-02 0.467D-02-0.147D+00 0.114D+01
 Coeff:      0.249D-03 0.130D-02 0.467D-02-0.147D+00 0.114D+01
 Gap=     0.665 Goal=   None    Shift=    0.000
 RMSDP=1.83D-05 MaxDP=2.24D-04 DE=-3.98D-05 OVMax= 4.23D-04

 Cycle   6  Pass 1  IDiag  1:
 E= -242.217898611884     Delta-E=       -0.000001117808 Rises=F Damp=F
 DIIS: error= 2.83D-05 at cycle   6 NSaved=   6.
 NSaved= 6 IEnMin= 6 EnMin= -242.217898611884     IErMin= 6 ErrMin= 2.83D-05
 ErrMax= 2.83D-05  0.00D+00 EMaxC= 1.00D-01 BMatC= 3.71D-08 BMatP= 4.86D-07
 IDIUse=1 WtCom= 1.00D+00 WtEn= 0.00D+00
 Coeff-Com: -0.290D-03 0.205D-02 0.147D-01-0.754D-01 0.758D-01 0.983D+00
 Coeff:     -0.290D-03 0.205D-02 0.147D-01-0.754D-01 0.758D-01 0.983D+00
 Gap=     0.665 Goal=   None    Shift=    0.000
 RMSDP=3.99D-06 MaxDP=7.05D-05 DE=-1.12D-06 OVMax= 8.77D-05

 Cycle   7  Pass 1  IDiag  1:
 E= -242.217898669324     Delta-E=       -0.000000057440 Rises=F Damp=F
 DIIS: error= 5.93D-06 at cycle   7 NSaved=   7.
 NSaved= 7 IEnMin= 7 EnMin= -242.217898669324     IErMin= 7 ErrMin= 5.93D-06
 ErrMax= 5.93D-06  0.00D+00 EMaxC= 1.00D-01 BMatC= 4.47D-09 BMatP= 3.71D-08
 IDIUse=1 WtCom= 1.00D+00 WtEn= 0.00D+00
 Coeff-Com: -0.824D-04 0.282D-03 0.250D-02-0.483D-03-0.100D+00 0.209D+00
 Coeff-Com:  0.889D+00
 Coeff:     -0.824D-04 0.282D-03 0.250D-02-0.483D-03-0.100D+00 0.209D+00
 Coeff:      0.889D+00
 Gap=     0.665 Goal=   None    Shift=    0.000
 RMSDP=1.14D-06 MaxDP=1.90D-05 DE=-5.74D-08 OVMax= 2.64D-05

 Cycle   8  Pass 1  IDiag  1:
 E= -242.217898675141     Delta-E=       -0.000000005817 Rises=F Damp=F
 DIIS: error= 1.74D-06 at cycle   8 NSaved=   8.
 NSaved= 8 IEnMin= 8 EnMin= -242.217898675141     IErMin= 8 ErrMin= 1.74D-06
 ErrMax= 1.74D-06  0.00D+00 EMaxC= 1.00D-01 BMatC= 1.90D-10 BMatP= 4.47D-09
 IDIUse=1 WtCom= 1.00D+00 WtEn= 0.00D+00
 Coeff-Com:  0.396D-04-0.206D-03-0.164D-02 0.504D-02 0.253D-01-0.121D+00
 Coeff-Com: -0.247D+00 0.134D+01
 Coeff:      0.396D-04-0.206D-03-0.164D-02 0.504D-02 0.253D-01-0.121D+00
 Coeff:     -0.247D+00 0.134D+01
 Gap=     0.665 Goal=   None    Shift=    0.000
 RMSDP=3.28D-07 MaxDP=5.71D-06 DE=-5.82D-09 OVMax= 6.93D-06

 Cycle   9  Pass 1  IDiag  1:
 E= -242.217898675571     Delta-E=       -0.000000000430 Rises=F Damp=F
 DIIS: error= 2.72D-07 at cycle   9 NSaved=   9.
 NSaved= 9 IEnMin= 9 EnMin= -242.217898675571     IErMin= 9 ErrMin= 2.72D-07
 ErrMax= 2.72D-07  0.00D+00 EMaxC= 1.00D-01 BMatC= 4.89D-12 BMatP= 1.90D-10
 IDIUse=1 WtCom= 1.00D+00 WtEn= 0.00D+00
 Coeff-Com: -0.261D-05 0.197D-04 0.151D-03-0.840D-03 0.930D-03 0.890D-02
 Coeff-Com: -0.413D-03-0.186D+00 0.118D+01
 Coeff:     -0.261D-05 0.197D-04 0.151D-03-0.840D-03 0.930D-03 0.890D-02
 Coeff:     -0.413D-03-0.186D+00 0.118D+01
 Gap=     0.665 Goal=   None    Shift=    0.000
 RMSDP=5.49D-08 MaxDP=7.80D-07 DE=-4.30D-10 OVMax= 1.19D-06

 Cycle  10  Pass 1  IDiag  1:
 E= -242.217898675582     Delta-E=       -0.000000000011 Rises=F Damp=F
 DIIS: error= 4.28D-08 at cycle  10 NSaved=  10.
 NSaved=10 IEnMin=10 EnMin= -242.217898675582     IErMin=10 ErrMin= 4.28D-08
 ErrMax= 4.28D-08  0.00D+00 EMaxC= 1.00D-01 BMatC= 2.42D-13 BMatP= 4.89D-12
 IDIUse=1 WtCom= 1.00D+00 WtEn= 0.00D+00
 Coeff-Com: -0.153D-05 0.760D-05 0.615D-04-0.158D-03-0.122D-02 0.440D-02
 Coeff-Com:  0.112D-01-0.386D-01-0.150D+00 0.117D+01
 Coeff:     -0.153D-05 0.760D-05 0.615D-04-0.158D-03-0.122D-02 0.440D-02
 Coeff:      0.112D-01-0.386D-01-0.150D+00 0.117D+01
 Gap=     0.665 Goal=   None    Shift=    0.000
 RMSDP=1.45D-08 MaxDP=1.70D-07 DE=-1.14D-11 OVMax= 3.19D-07

 Cycle  11  Pass 1  IDiag  1:
 E= -242.217898675583     Delta-E=       -0.000000000001 Rises=F Damp=F
 DIIS: error= 1.48D-08 at cycle  11 NSaved=  11.
 NSaved=11 IEnMin=11 EnMin= -242.217898675583     IErMin=11 ErrMin= 1.48D-08
 ErrMax= 1.48D-08  0.00D+00 EMaxC= 1.00D-01 BMatC= 1.93D-14 BMatP= 2.42D-13
 IDIUse=1 WtCom= 1.00D+00 WtEn= 0.00D+00
 Coeff-Com:  0.263D-07-0.441D-06-0.310D-05 0.270D-04-0.108D-03-0.128D-03
 Coeff-Com:  0.713D-03 0.602D-02-0.641D-01 0.681D-01 0.989D+00
 Coeff:      0.263D-07-0.441D-06-0.310D-05 0.270D-04-0.108D-03-0.128D-03
 Coeff:      0.713D-03 0.602D-02-0.641D-01 0.681D-01 0.989D+00
 Gap=     0.665 Goal=   None    Shift=    0.000
 RMSDP=3.32D-09 MaxDP=4.98D-08 DE=-1.02D-12 OVMax= 8.41D-08

 SCF Done:  E(RHF) =  -242.217898676     A.U. after   11 cycles
            NFock= 11  Conv=0.33D-08     -V/T= 2.0637
 KE= 2.277041797657D+02 PE=-6.967308154672D+02 EE= 1.641039872391D+02
 Leave Link  502 at Fri May 15 22:36:08 2020, MaxMem=   134217728 cpu:               0.9 elap:               0.3
 (Enter /home/soft/g16/l601.exe)
 Copying SCF densities to generalized density rwf, IOpCl= 0 IROHF=0.

 **********************************************************************

            Population analysis using the SCF density.

 **********************************************************************

 Alpha  occ. eigenvalues --  -20.53924 -20.52851 -20.47978  -1.32448  -1.30996
 Alpha  occ. eigenvalues --   -1.26317  -0.69702  -0.66366  -0.62914  -0.56430
 Alpha  occ. eigenvalues --   -0.54147  -0.49422  -0.48272  -0.47104  -0.42062
 Alpha virt. eigenvalues --    0.24474   0.30977   0.31080   0.37052   0.43150
 Alpha virt. eigenvalues --    0.46687   1.01303   1.06646   1.09358   1.11057
 Alpha virt. eigenvalues --    1.13309   1.14103   1.16147   1.20526   1.23340
 Alpha virt. eigenvalues --    1.26990   1.28875   1.32769   1.35575   1.40641
 Alpha virt. eigenvalues --    1.44558   1.62004   1.69073   1.77282   1.82852
 Alpha virt. eigenvalues --    1.84523   1.85576   1.88058   1.90722   1.93095
 Alpha virt. eigenvalues --    1.96382   2.00299   2.03430   2.58029   2.59242
 Alpha virt. eigenvalues --    2.64344   2.65835   2.66907   2.69758   2.81714
 Alpha virt. eigenvalues --    2.89063   2.89830   3.00504   3.01366   3.03058
 Alpha virt. eigenvalues --    3.04214   3.06051   3.07285   3.40961   3.43304
 Alpha virt. eigenvalues --    3.46424   3.78944   3.80985   3.85361   3.97396
 Alpha virt. eigenvalues --    4.02571   4.04527
          Condensed to atoms (all electrons):
               1          2          3          4          5          6
     1  O    8.127814  -0.004757  -0.002771   0.311482   0.304691   0.009406
     2  O   -0.004757   8.153866  -0.000389   0.000230   0.000654   0.315651
     3  O   -0.002771  -0.000389   8.095089   0.000197   0.000110   0.000602
     4  H    0.311482   0.000230   0.000197   0.316314  -0.016126  -0.000352
     5  H    0.304691   0.000654   0.000110  -0.016126   0.318773  -0.000162
     6  H    0.009406   0.315651   0.000602  -0.000352  -0.000162   0.295398
     7  H    0.001096   0.320808   0.000061  -0.000023   0.000169  -0.026724
     8  H    0.000077   0.000095   0.309205  -0.000004  -0.000001  -0.000012
     9  H    0.012090   0.002490   0.308577  -0.000627  -0.000763   0.000012
               7          8          9
     1  O    0.001096   0.000077   0.012090
     2  O    0.320808   0.000095   0.002490
     3  O    0.000061   0.309205   0.308577
     4  H   -0.000023  -0.000004  -0.000627
     5  H    0.000169  -0.000001  -0.000763
     6  H   -0.026724  -0.000012   0.000012
     7  H    0.328359   0.000007   0.000055
     8  H    0.000007   0.386761  -0.025398
     9  H    0.000055  -0.025398   0.338314
 Mulliken charges:
               1
     1  O   -0.759128
     2  O   -0.788648
     3  O   -0.710681
     4  H    0.388910
     5  H    0.392655
     6  H    0.406180
     7  H    0.376192
     8  H    0.329271
     9  H    0.365249
 Sum of Mulliken charges =  -0.00000
 Mulliken charges with hydrogens summed into heavy atoms:
               1
     1  O    0.022437
     2  O   -0.006276
     3  O   -0.016160
 Electronic spatial extent (au):  <R**2>=          29042.1296
 Charge=             -0.0000 electrons
 Dipole moment (field-independent basis, Debye):
    X=              3.3368    Y=             -1.3548    Z=             -2.2633  Tot=              4.2535
 Quadrupole moment (field-independent basis, Debye-Ang):
   XX=             20.1338   YY=             15.2242   ZZ=             31.3828
   XY=            -41.0051   XZ=            -56.1649   YZ=             41.9627
 Traceless Quadrupole moment (field-independent basis, Debye-Ang):
   XX=             -2.1131   YY=             -7.0227   ZZ=              9.1359
   XY=            -41.0051   XZ=            -56.1649   YZ=             41.9627
 Octapole moment (field-independent basis, Debye-Ang**2):
  XXX=             -6.9115  YYY=            -80.5932  ZZZ=           -175.9932  XYY=            410.9542
  XXY=           -262.8823  XXZ=           -344.9376  XZZ=            727.4828  YZZ=           -608.0819
  YYZ=           -465.6544  XYZ=            673.4624
 Hexadecapole moment (field-independent basis, Debye-Ang**3):
 XXXX=          -1816.5888 YYYY=           -599.8204 ZZZZ=          -3221.7617 XXXY=           -464.7643
 XXXZ=           -540.2071 YYYX=          -3530.5337 YYYZ=           4017.8885 ZZZX=          -7882.9910
 ZZZY=           6347.1072 XXYY=           2720.0321 XXZZ=           4462.7926 YYZZ=           7132.9630
 XXYZ=           4338.0053 YYXZ=          -6925.9122 ZZXY=          -8995.0761
 N-N= 6.270474978684D+01 E-N=-6.967308152862D+02  KE= 2.277041797657D+02
 No NMR shielding tensors so no spin-rotation constants.
 Leave Link  601 at Fri May 15 22:36:08 2020, MaxMem=   134217728 cpu:               0.6 elap:               0.2
 (Enter /home/soft/g16/l607.exe)
 ******************************Gaussian NBO Version 3.1******************************
             N A T U R A L   A T O M I C   O R B I T A L   A N D
          N A T U R A L   B O N D   O R B I T A L   A N A L Y S I S
 ******************************Gaussian NBO Version 3.1******************************
       /RESON  / : Allow strongly delocalized NBO set

 Analyzing the SCF density

 Job title: Atom number=9                                                   

 Storage needed:     15894 in NPA ( 134217269 available)
 GSVD:  LWork=        2304 too small for GESVD, short by        3132 words or        3132 for optimal perf.


 NATURAL POPULATIONS:  Natural atomic orbital occupancies 
                                                          
   NAO  Atom  No  lang   Type(AO)    Occupancy      Energy
 ----------------------------------------------------------
     1    O    1  S      Cor( 1S)     1.99986     -20.36504
     2    O    1  S      Val( 2S)     1.75755      -1.13464
     3    O    1  S      Ryd( 3S)     0.00104       1.72948
     4    O    1  px     Val( 2p)     1.98256      -0.46480
     5    O    1  px     Ryd( 3p)     0.00074       1.23011
     6    O    1  py     Val( 2p)     1.74265      -0.39161
     7    O    1  py     Ryd( 3p)     0.00034       1.31799
     8    O    1  pz     Val( 2p)     1.54634      -0.32103
     9    O    1  pz     Ryd( 3p)     0.00157       1.40214
    10    O    1  dxy    Ryd( 3d)     0.00147       2.28904
    11    O    1  dxz    Ryd( 3d)     0.00012       2.34938
    12    O    1  dyz    Ryd( 3d)     0.00170       3.08149
    13    O    1  dx2y2  Ryd( 3d)     0.00186       2.51992
    14    O    1  dz2    Ryd( 3d)     0.00053       2.75085

    15    O    2  S      Cor( 1S)     1.99986     -20.37118
    16    O    2  S      Val( 2S)     1.75139      -1.14449
    17    O    2  S      Ryd( 3S)     0.00066       1.82671
    18    O    2  px     Val( 2p)     1.79657      -0.41981
    19    O    2  px     Ryd( 3p)     0.00089       1.23543
    20    O    2  py     Val( 2p)     1.69004      -0.37533
    21    O    2  py     Ryd( 3p)     0.00163       1.31554
    22    O    2  pz     Val( 2p)     1.79875      -0.42627
    23    O    2  pz     Ryd( 3p)     0.00067       1.21552
    24    O    2  dxy    Ryd( 3d)     0.00097       2.74806
    25    O    2  dxz    Ryd( 3d)     0.00118       2.37969
    26    O    2  dyz    Ryd( 3d)     0.00107       2.80891
    27    O    2  dx2y2  Ryd( 3d)     0.00054       2.40111
    28    O    2  dz2    Ryd( 3d)     0.00128       2.55919

    29    O    3  S      Cor( 1S)     1.99985     -20.31410
    30    O    3  S      Val( 2S)     1.75366      -1.07693
    31    O    3  S      Ryd( 3S)     0.00112       1.85212
    32    O    3  px     Val( 2p)     1.65431      -0.31059
    33    O    3  px     Ryd( 3p)     0.00100       1.33170
    34    O    3  py     Val( 2p)     1.64579      -0.29962
    35    O    3  py     Ryd( 3p)     0.00128       1.33330
    36    O    3  pz     Val( 2p)     1.92381      -0.39307
    37    O    3  pz     Ryd( 3p)     0.00081       1.26218
    38    O    3  dxy    Ryd( 3d)     0.00120       2.54836
    39    O    3  dxz    Ryd( 3d)     0.00113       2.36554
    40    O    3  dyz    Ryd( 3d)     0.00116       2.62888
    41    O    3  dx2y2  Ryd( 3d)     0.00183       3.13138
    42    O    3  dz2    Ryd( 3d)     0.00123       2.52861

    43    H    4  S      Val( 1S)     0.46964       0.41739
    44    H    4  S      Ryd( 2S)     0.00055       0.78122
    45    H    4  px     Ryd( 2p)     0.00075       2.66168
    46    H    4  py     Ryd( 2p)     0.00075       2.81097
    47    H    4  pz     Ryd( 2p)     0.00143       3.33923

    48    H    5  S      Val( 1S)     0.47428       0.41262
    49    H    5  S      Ryd( 2S)     0.00073       0.85987
    50    H    5  px     Ryd( 2p)     0.00083       2.64886
    51    H    5  py     Ryd( 2p)     0.00142       3.19699
    52    H    5  pz     Ryd( 2p)     0.00084       2.98885

    53    H    6  S      Val( 1S)     0.46982       0.41303
    54    H    6  S      Ryd( 2S)     0.00104       0.89020
    55    H    6  px     Ryd( 2p)     0.00057       2.66155
    56    H    6  py     Ryd( 2p)     0.00087       3.00261
    57    H    6  pz     Ryd( 2p)     0.00131       3.15513

    58    H    7  S      Val( 1S)     0.48131       0.38585
    59    H    7  S      Ryd( 2S)     0.00063       0.74740
    60    H    7  px     Ryd( 2p)     0.00129       3.07628
    61    H    7  py     Ryd( 2p)     0.00105       2.96648
    62    H    7  pz     Ryd( 2p)     0.00068       2.68895

    63    H    8  S      Val( 1S)     0.52018       0.38765
    64    H    8  S      Ryd( 2S)     0.00109       0.80266
    65    H    8  px     Ryd( 2p)     0.00063       2.72665
    66    H    8  py     Ryd( 2p)     0.00149       3.32111
    67    H    8  pz     Ryd( 2p)     0.00111       2.80321

    68    H    9  S      Val( 1S)     0.48930       0.43529
    69    H    9  S      Ryd( 2S)     0.00124       0.90946
    70    H    9  px     Ryd( 2p)     0.00161       3.50196
    71    H    9  py     Ryd( 2p)     0.00071       2.77024
    72    H    9  pz     Ryd( 2p)     0.00084       2.68895


 Summary of Natural Population Analysis:                  
                                                          
                                       Natural Population 
                Natural  -----------------------------------------------
    Atom  No    Charge         Core      Valence    Rydberg      Total
 -----------------------------------------------------------------------
      O    1   -1.03833      1.99986     7.02910    0.00937     9.03833
      O    2   -1.04551      1.99986     7.03676    0.00890     9.04551
      O    3   -0.98818      1.99985     6.97757    0.01076     8.98818
      H    4    0.52688      0.00000     0.46964    0.00348     0.47312
      H    5    0.52190      0.00000     0.47428    0.00383     0.47810
      H    6    0.52640      0.00000     0.46982    0.00378     0.47360
      H    7    0.51504      0.00000     0.48131    0.00365     0.48496
      H    8    0.47550      0.00000     0.52018    0.00432     0.52450
      H    9    0.50631      0.00000     0.48930    0.00439     0.49369
 =======================================================================
   * Total *   -0.00000      5.99957    23.94795    0.05248    30.00000

                                 Natural Population      
 --------------------------------------------------------
   Core                       5.99957 ( 99.9928% of   6)
   Valence                   23.94795 ( 99.7831% of  24)
   Natural Minimal Basis     29.94752 ( 99.8251% of  30)
   Natural Rydberg Basis      0.05248 (  0.1749% of  30)
 --------------------------------------------------------

    Atom  No          Natural Electron Configuration
 ----------------------------------------------------------------------------
      O    1      [core]2S( 1.76)2p( 5.27)3d( 0.01)
      O    2      [core]2S( 1.75)2p( 5.29)3d( 0.01)
      O    3      [core]2S( 1.75)2p( 5.22)3d( 0.01)
      H    4            1S( 0.47)
      H    5            1S( 0.47)
      H    6            1S( 0.47)
      H    7            1S( 0.48)
      H    8            1S( 0.52)
      H    9            1S( 0.49)


 NBO analysis skipped by request.
 Leave Link  607 at Fri May 15 22:36:08 2020, MaxMem=   134217728 cpu:               0.8 elap:               0.2
 (Enter /home/soft/g16/l9999.exe)

 Test job not archived.
 1\1\GINC-MASTER\SP\RHF\6-31G(d,p)\H6O3\LIWEI01\15-May-2020\0\\#p hf/6-
 31g** 5d 7f pop=npa charge nosymm\\Atom number=9\\0,1\O,0,7.250284,-9.
 859627,-13.103456\O,0,6.966193,-9.247795,-10.274305\O,0,4.641258,-8.13
 8278,-12.671145\H,0,7.12066,-10.221473,-13.980096\H,0,7.341484,-10.626
 744,-12.538261\H,0,6.975152,-9.845016,-11.022289\H,0,7.684375,-8.63847
 2,-10.445098\H,0,4.597809,-7.272042,-12.266198\H,0,5.576498,-8.338407,
 -12.709967\\Version=ES64L-G16RevA.03\HF=-242.2178987\RMSD=3.318e-09\Di
 pole=1.3127883,-0.5330076,-0.8904674\Quadrupole=-1.5710532,-5.2212323,
 6.7922855,-30.4862669,-41.7572193,31.1982419\PG=C01 [X(H6O3)]\\@


 WISDOM IS KNOWING WHAT TO DO,
 SKILL IS KNOWING HOW TO DO IT,
 AND VIRTUE IS NOT DOING IT.
 Job cpu time:       0 days  0 hours  0 minutes  5.8 seconds.
 Elapsed time:       0 days  0 hours  0 minutes  1.7 seconds.
 File lengths (MBytes):  RWF=     72 Int=      0 D2E=      0 Chk=      8 Scr=      8
 Normal termination of Gaussian 16 at Fri May 15 22:36:09 2020.
