Atom number=6                                                           
SP        RHF                                                         6-31G(d,p)          
Number of atoms                            I                6
Info1-9                                    I   N=           9
         107         106           0           0           0         111
           1           1           2
Full Title                                 C   N=           2
Atom number=6           
Route                                      C   N=           4
#p hf/6-31g** 5d 7f pop=npa charge nosymm       
Charge                                     I                0
Multiplicity                               I                1
Number of electrons                        I               20
Number of alpha electrons                  I               10
Number of beta electrons                   I               10
Number of basis functions                  I               48
Number of independent functions            I               48
Number of point charges in /Mol/           I                0
Number of translation vectors              I                0
Atomic numbers                             I   N=           6
           8           8           1           1           1           1
Nuclear charges                            R   N=           6
  8.00000000E+00  8.00000000E+00  1.00000000E+00  1.00000000E+00  1.00000000E+00
  1.00000000E+00
Current cartesian coordinates              R   N=          18
  1.58591958E+01 -2.23232232E+01 -2.11658453E+01  1.31641969E+01 -1.74757998E+01
 -1.94156226E+01  1.54490326E+01 -2.36930366E+01 -2.00580047E+01  1.74840371E+01
 -2.17584956E+01 -2.06064713E+01  1.31811270E+01 -1.86043839E+01 -2.08291075E+01
  1.45213642E+01 -1.63243462E+01 -1.97383746E+01
Number of symbols in /Mol/                 I                0
Force Field                                I                0
Atom Types                                 C   N=           6
                                                            
            
Int Atom Types                             I   N=           6
           0           0           0           0           0           0
MM charges                                 R   N=           6
  0.00000000E+00  0.00000000E+00  0.00000000E+00  0.00000000E+00  0.00000000E+00
  0.00000000E+00
Integer atomic weights                     I   N=           6
          16          16           1           1           1           1
Real atomic weights                        R   N=           6
  1.59949146E+01  1.59949146E+01  1.00782504E+00  1.00782504E+00  1.00782504E+00
  1.00782504E+00
Atom fragment info                         I   N=           6
           0           0           0           0           0           0
Atom residue num                           I   N=           6
           0           0           0           0           0           0
Nuclear spins                              I   N=           6
           0           0           1           1           1           1
Nuclear ZEff                               R   N=           6
 -5.60000000E+00 -5.60000000E+00 -1.00000000E+00 -1.00000000E+00 -1.00000000E+00
 -1.00000000E+00
Nuclear ZNuc                               R   N=           6
  8.00000000E+00  8.00000000E+00  1.00000000E+00  1.00000000E+00  1.00000000E+00
  1.00000000E+00
Nuclear QMom                               R   N=           6
  0.00000000E+00  0.00000000E+00  0.00000000E+00  0.00000000E+00  0.00000000E+00
  0.00000000E+00
Nuclear GFac                               R   N=           6
  0.00000000E+00  0.00000000E+00  2.79284600E+00  2.79284600E+00  2.79284600E+00
  2.79284600E+00
MicOpt                                     I   N=           6
          -1          -1          -1          -1          -1          -1
Number of residues                         I                0
Number of secondary structures             I                0
Number of contracted shells                I               20
Number of primitive shells                 I               42
Pure/Cartesian d shells                    I                0
Pure/Cartesian f shells                    I                0
Highest angular momentum                   I                2
Largest degree of contraction              I                6
Shell types                                I   N=          20
           0          -1          -1          -2           0          -1
          -1          -2           0           0           1           0
           0           1           0           0           1           0
           0           1
Number of primitives per shell             I   N=          20
           6           3           1           1           6           3
           1           1           3           1           1           3
           1           1           3           1           1           3
           1           1
Shell to atom map                          I   N=          20
           1           1           1           1           2           2
           2           2           3           3           3           4
           4           4           5           5           5           6
           6           6
Primitive exponents                        R   N=          42
  5.48467166E+03  8.25234946E+02  1.88046958E+02  5.29645000E+01  1.68975704E+01
  5.79963534E+00  1.55396162E+01  3.59993359E+00  1.01376175E+00  2.70005823E-01
  8.00000000E-01  5.48467166E+03  8.25234946E+02  1.88046958E+02  5.29645000E+01
  1.68975704E+01  5.79963534E+00  1.55396162E+01  3.59993359E+00  1.01376175E+00
  2.70005823E-01  8.00000000E-01  1.87311370E+01  2.82539436E+00  6.40121692E-01
  1.61277759E-01  1.10000000E+00  1.87311370E+01  2.82539436E+00  6.40121692E-01
  1.61277759E-01  1.10000000E+00  1.87311370E+01  2.82539436E+00  6.40121692E-01
  1.61277759E-01  1.10000000E+00  1.87311370E+01  2.82539436E+00  6.40121692E-01
  1.61277759E-01  1.10000000E+00
Contraction coefficients                   R   N=          42
  1.83107443E-03  1.39501722E-02  6.84450781E-02  2.32714336E-01  4.70192898E-01
  3.58520853E-01 -1.10777550E-01 -1.48026263E-01  1.13076702E+00  1.00000000E+00
  1.00000000E+00  1.83107443E-03  1.39501722E-02  6.84450781E-02  2.32714336E-01
  4.70192898E-01  3.58520853E-01 -1.10777550E-01 -1.48026263E-01  1.13076702E+00
  1.00000000E+00  1.00000000E+00  3.34946043E-02  2.34726953E-01  8.13757326E-01
  1.00000000E+00  1.00000000E+00  3.34946043E-02  2.34726953E-01  8.13757326E-01
  1.00000000E+00  1.00000000E+00  3.34946043E-02  2.34726953E-01  8.13757326E-01
  1.00000000E+00  1.00000000E+00  3.34946043E-02  2.34726953E-01  8.13757326E-01
  1.00000000E+00  1.00000000E+00
P(S=P) Contraction coefficients            R   N=          42
  0.00000000E+00  0.00000000E+00  0.00000000E+00  0.00000000E+00  0.00000000E+00
  0.00000000E+00  7.08742682E-02  3.39752839E-01  7.27158577E-01  1.00000000E+00
  0.00000000E+00  0.00000000E+00  0.00000000E+00  0.00000000E+00  0.00000000E+00
  0.00000000E+00  0.00000000E+00  7.08742682E-02  3.39752839E-01  7.27158577E-01
  1.00000000E+00  0.00000000E+00  0.00000000E+00  0.00000000E+00  0.00000000E+00
  0.00000000E+00  0.00000000E+00  0.00000000E+00  0.00000000E+00  0.00000000E+00
  0.00000000E+00  0.00000000E+00  0.00000000E+00  0.00000000E+00  0.00000000E+00
  0.00000000E+00  0.00000000E+00  0.00000000E+00  0.00000000E+00  0.00000000E+00
  0.00000000E+00  0.00000000E+00
Coordinates of each shell                  R   N=          60
  1.58591958E+01 -2.23232232E+01 -2.11658453E+01  1.58591958E+01 -2.23232232E+01
 -2.11658453E+01  1.58591958E+01 -2.23232232E+01 -2.11658453E+01  1.58591958E+01
 -2.23232232E+01 -2.11658453E+01  1.31641969E+01 -1.74757998E+01 -1.94156226E+01
  1.31641969E+01 -1.74757998E+01 -1.94156226E+01  1.31641969E+01 -1.74757998E+01
 -1.94156226E+01  1.31641969E+01 -1.74757998E+01 -1.94156226E+01  1.54490326E+01
 -2.36930366E+01 -2.00580047E+01  1.54490326E+01 -2.36930366E+01 -2.00580047E+01
  1.54490326E+01 -2.36930366E+01 -2.00580047E+01  1.74840371E+01 -2.17584956E+01
 -2.06064713E+01  1.74840371E+01 -2.17584956E+01 -2.06064713E+01  1.74840371E+01
 -2.17584956E+01 -2.06064713E+01  1.31811270E+01 -1.86043839E+01 -2.08291075E+01
  1.31811270E+01 -1.86043839E+01 -2.08291075E+01  1.31811270E+01 -1.86043839E+01
 -2.08291075E+01  1.45213642E+01 -1.63243462E+01 -1.97383746E+01  1.45213642E+01
 -1.63243462E+01 -1.97383746E+01  1.45213642E+01 -1.63243462E+01 -1.97383746E+01
Num ILSW                                   I              100
ILSW                                       I   N=         100
           0           0           0           0           2           0
           0           0           0           0           0          -1
           5           0           0           0           0           0
           0           0           0           0           0           0
           1           1           0           0           0           0
           0           0      100000           0          -1           0
           0           0           0           0           0           0
           0           0           0           1           0           0
           0 -2000000000           1           0           0           0
           0           0           4          52           0           0
           0           1           0           0           0           0
           0           0           0           6           0           1
           0           0           0           0           0           0
           0           0           0           0           0           0
           0           0           0           0           0           0
           0           0           0           0           0           0
           0           0           0           0
Num RLSW                                   I               52
RLSW                                       R   N=          52
  1.00000000E+00  1.00000000E+00  1.00000000E+00  1.00000000E+00  1.00000000E+00
  0.00000000E+00  0.00000000E+00  1.00000000E+00  0.00000000E+00  0.00000000E+00
  0.00000000E+00  0.00000000E+00  1.00000000E+00  0.00000000E+00  0.00000000E+00
  0.00000000E+00  0.00000000E+00  1.00000000E+00  0.00000000E+00  0.00000000E+00
  0.00000000E+00  0.00000000E+00  1.00000000E+00  0.00000000E+00  0.00000000E+00
  0.00000000E+00  0.00000000E+00  1.00000000E+00  0.00000000E+00  0.00000000E+00
  0.00000000E+00  0.00000000E+00  1.00000000E+00  0.00000000E+00  0.00000000E+00
  0.00000000E+00  0.00000000E+00  0.00000000E+00  1.00000000E+00  1.00000000E+00
  0.00000000E+00  1.00000000E+00  0.00000000E+00  0.00000000E+00  0.00000000E+00
  0.00000000E+00  0.00000000E+00  0.00000000E+00  0.00000000E+00  0.00000000E+00
  0.00000000E+00  0.00000000E+00
MxBond                                     I                2
NBond                                      I   N=           6
           2           2           1           1           1           1
IBond                                      I   N=          12
           3           4           5           6           1           0
           1           0           2           0           2           0
RBond                                      R   N=          12
  1.00000000E+00  1.00000000E+00  1.00000000E+00  1.00000000E+00  1.00000000E+00
  0.00000000E+00  1.00000000E+00  0.00000000E+00  1.00000000E+00  0.00000000E+00
  1.00000000E+00  0.00000000E+00
Virial Ratio                               R      2.097891893621418E+00
SCF Energy                                 R     -1.666309358752559E+02
Total Energy                               R     -1.666309358752559E+02
RMS Density                                R      2.518962111054032E-09
Job Status                                 I                1
Nuclear derivative order                   I                0
External E-field                           R   N=          35
  0.00000000E+00  0.00000000E+00  0.00000000E+00  0.00000000E+00  0.00000000E+00
  0.00000000E+00  0.00000000E+00  0.00000000E+00  0.00000000E+00  0.00000000E+00
  0.00000000E+00  0.00000000E+00  0.00000000E+00  0.00000000E+00  0.00000000E+00
  0.00000000E+00  0.00000000E+00  0.00000000E+00  0.00000000E+00  0.00000000E+00
  0.00000000E+00  0.00000000E+00  0.00000000E+00  0.00000000E+00  0.00000000E+00
  0.00000000E+00  0.00000000E+00  0.00000000E+00  0.00000000E+00  0.00000000E+00
  0.00000000E+00  0.00000000E+00  0.00000000E+00  0.00000000E+00  0.00000000E+00
IOpCl                                      I                0
IROHF                                      I                0
Alpha Orbital Energies                     R   N=          48
 -2.05466288E+01 -2.05412012E+01 -1.32990636E+00 -1.32240242E+00 -6.88495577E-01
 -6.85647708E-01 -5.72071380E-01 -5.60622690E-01 -4.98719851E-01 -4.77672088E-01
  2.41576680E-01  2.95601596E-01  3.66460538E-01  3.79126719E-01  1.01439036E+00
  1.03540646E+00  1.09124329E+00  1.12592922E+00  1.13913210E+00  1.18187318E+00
  1.19607627E+00  1.29493627E+00  1.31617251E+00  1.35042742E+00  1.60717006E+00
  1.66546106E+00  1.81792774E+00  1.82907939E+00  1.83136735E+00  1.84896839E+00
  1.93236368E+00  1.96833335E+00  2.59847602E+00  2.60408609E+00  2.61177125E+00
  2.62067531E+00  2.82621671E+00  2.83842657E+00  2.99260857E+00  2.99878679E+00
  3.01483060E+00  3.03303503E+00  3.40059224E+00  3.40593209E+00  3.76669180E+00
  3.79596853E+00  3.95108125E+00  3.96216155E+00
Alpha MO coefficients                      R   N=        2304
  9.95700299E-01  2.20175458E-02  1.05172513E-03 -6.69149897E-04  1.48440799E-03
 -5.94501429E-03 -4.22123314E-04  2.22353166E-04 -6.79571808E-04 -1.19807235E-04
  7.69938188E-05 -2.46167161E-04  6.31801022E-05  3.39673909E-04  2.94081966E-05
  9.13442310E-05 -2.50547586E-05  1.57502850E-05 -4.48950784E-06 -4.10098755E-04
  8.51739924E-05  1.76906974E-04  2.08038140E-04 -2.81188123E-05  1.92833713E-06
 -5.21870277E-05  2.70772884E-05  1.08964681E-05 -5.20958434E-04  1.20827320E-03
 -2.19241954E-04 -8.54353332E-04  7.39024883E-04 -5.08848416E-04  1.21399521E-03
  1.02378340E-03  3.28988915E-04  4.00615125E-04 -1.80147620E-05  6.46875078E-04
  1.09382112E-05  5.46963144E-05  9.87173527E-05  8.25123165E-06 -1.55148914E-04
  5.98414778E-06  1.97960214E-05 -1.15524490E-05 -2.14210959E-05  4.85466341E-05
 -2.63035352E-05  2.62198102E-05 -1.93882673E-05 -2.67266956E-05  1.46710090E-04
 -1.48837630E-04  8.84231184E-05  1.78098313E-05  1.43486271E-05 -1.44747716E-05
  1.34743730E-05  3.52420148E-05  9.95703308E-01  2.20185778E-02  1.24960446E-03
  2.55336620E-05 -1.49591492E-03 -6.07862189E-03 -5.67911255E-04  4.72325113E-05
  7.91237890E-04 -4.20313240E-05 -6.84487536E-05  2.34217401E-04 -8.29342018E-05
  3.23318249E-04 -3.60772566E-05 -5.71834278E-05 -2.62615868E-05 -1.09439363E-05
  5.24342596E-06 -3.71236104E-05 -5.94424486E-05  1.65880456E-05  2.50760034E-05
 -5.52923500E-06 -4.93875855E-04  1.44788249E-03  6.37541027E-05 -6.50060593E-04
 -8.75403349E-04 -5.09003283E-04  1.22851490E-03  8.74359113E-04  7.00892750E-04
 -2.64403492E-04 -2.00829611E-01  4.42179130E-01  4.12540002E-02 -2.60576399E-02
  5.65516883E-02  4.25696426E-01  1.51086492E-02 -6.14262236E-03  1.89328981E-02
  2.64701552E-04  2.10149458E-03 -2.21742009E-03  7.45967720E-05 -1.73670624E-04
 -7.08029272E-02  1.56069544E-01  1.71298505E-02 -1.28306618E-03 -2.05071427E-02
  1.48095604E-01  6.72579762E-03 -1.82050388E-03 -4.93027580E-03  1.28158167E-04
 -9.18870295E-04  6.49301883E-04  2.82240727E-04  1.43940691E-04  1.32691312E-01
  7.24937230E-03  7.09315416E-03  1.93741157E-02 -1.42294983E-02  1.31810173E-01
  5.39089446E-03 -2.28695503E-02 -9.49169192E-03 -6.48584416E-03  4.86879413E-02
  4.16350584E-03  8.32603358E-04  5.27937414E-03  6.49124021E-03  4.70027253E-02
  3.56385902E-03 -6.49812872E-03 -6.00506857E-03  1.18157660E-03  7.17873794E-02
 -1.58846215E-01 -1.58838387E-02  1.10957464E-02 -2.00750172E-02 -1.52282487E-01
 -8.06285294E-03  5.76676535E-03 -6.77546140E-03 -2.92218534E-04 -9.37727163E-04
  1.17069896E-03 -2.74539236E-04 -3.79838366E-04 -2.01179453E-01  4.43858036E-01
  4.77101052E-02  6.96518765E-04 -5.64662717E-02  4.25575405E-01  1.69141336E-02
 -1.30261134E-03 -1.49617486E-02  5.36931491E-04 -2.46528371E-03  1.26783298E-03
  1.10023731E-03  1.31172807E-03 -4.79337639E-02 -1.70129064E-03 -2.39588634E-03
 -6.92126165E-03  4.99268860E-03 -4.76319301E-02 -1.22987220E-04  8.06237285E-03
  3.20995673E-03  2.27452446E-03  1.32643978E-01  3.26831498E-03  1.32973708E-03
  1.63568918E-02  1.84720526E-02  1.34960085E-01  8.22861723E-03 -1.82169796E-02
 -1.69320522E-02  3.40646647E-03 -7.04685301E-04 -1.12637526E-04  3.52396928E-01
  3.49929715E-01 -1.02993744E-01  7.55625899E-03  2.06166945E-01  2.09022567E-01
 -6.22831911E-02 -8.43209990E-03  1.31742967E-02  1.84931668E-02  1.99927340E-02
  4.21740370E-03  1.67932196E-03 -3.78404654E-03 -2.08990014E-02 -5.10661569E-02
 -2.75874733E-02 -6.77619105E-03 -1.02701878E-02 -3.05444665E-02 -1.70313504E-02
  1.82562239E-03 -9.12625688E-05  2.48915081E-03 -8.53438046E-04 -2.24317568E-03
 -2.35258099E-01 -1.02712435E-01  2.49887719E-03 -1.54917313E-02  1.67662870E-02
  2.25565079E-01  9.86754762E-02 -1.92279821E-02 -1.03357949E-03 -1.25628577E-02
  3.00749478E-02  1.41122931E-02 -9.20870876E-05  1.11512160E-03  2.26003754E-03
 -2.70947469E-02 -9.90968252E-03  2.02789755E-03  7.85677434E-04 -1.57474541E-03
  1.01955006E-03 -1.95034226E-03  7.27532361E-02  1.42237086E-02 -4.52805782E-03
 -6.47268626E-03  4.78173203E-02  2.52094503E-03 -2.49520104E-03 -1.08177835E-03
  2.82387034E-03  9.34105520E-04  2.90009958E-03  6.59551246E-04  1.05421714E-03
 -3.33972007E-03  2.33043880E-01  4.00870873E-01  1.93738706E-01 -4.21373221E-03
  1.36307836E-01  2.33063103E-01  1.13967753E-01 -1.56529740E-02 -2.79700704E-03
 -1.84968097E-02  9.75246442E-03  1.61642045E-02 -1.91914183E-02 -1.19618436E-02
  1.25045858E-03 -1.63792947E-03  1.50428228E-03  3.74572865E-02  1.53960279E-02
 -2.95712911E-03 -1.18413814E-03 -1.80157987E-03 -2.30830829E-01 -1.06475105E-01
  5.81583513E-03 -8.23992740E-03 -1.96342115E-02  2.30849067E-01  1.13227786E-01
 -1.68241532E-02 -9.37961480E-03  1.25043363E-02  4.76519902E-02 -1.11425351E-01
  2.58001507E-01 -1.65139309E-01  2.98898973E-01 -2.01941512E-01  1.88991014E-01
 -1.27887716E-01  2.24431334E-01  4.57671930E-03  1.37963964E-02 -1.00141124E-02
  4.69289535E-03 -2.43463064E-03 -4.27253612E-02  9.51853191E-02 -2.40770390E-01
 -1.96842081E-02  2.49243675E-01  1.97172100E-01 -1.82105959E-01 -1.55273505E-02
  1.78780942E-01 -2.77919641E-03  1.26198455E-02 -5.46895353E-04 -5.11800743E-03
 -3.38459247E-03  1.00134281E-01  4.30958615E-02  1.01539735E-02  6.64906166E-03
 -7.20305538E-04  1.15362926E-01  4.57967978E-02 -7.89563166E-03 -9.72108881E-03
  2.49190603E-03 -7.64919709E-02 -6.51119290E-02 -7.46424123E-03 -5.83826663E-03
 -2.31225443E-03 -1.03381811E-01 -4.28785764E-02  3.89069715E-03  8.45699737E-03
  3.66859046E-03 -4.21149919E-02  9.93477414E-02 -1.73285265E-01  1.02184506E-01
 -2.95147359E-01  1.77031650E-01 -1.25270352E-01  7.25889537E-02 -2.20248995E-01
 -5.40976122E-03 -1.12276588E-02  7.57616975E-03 -2.58926372E-03  1.77071881E-03
 -4.69887151E-02  1.10645773E-01 -2.51280878E-01  7.29920280E-03  3.52523017E-01
  1.90812988E-01 -1.86906229E-01  9.43026760E-03  2.70122699E-01 -7.57654536E-03
  1.50593046E-02 -3.85379559E-03 -4.18910215E-03 -3.07980895E-03 -9.05500994E-02
 -3.93357208E-02 -7.65846070E-03 -7.24753414E-03 -2.33233876E-04 -8.72016646E-02
 -4.10733400E-02  6.96111297E-03  6.93183681E-03 -3.97852875E-03 -1.16901954E-01
 -1.66707808E-02 -5.89167607E-03 -9.85530500E-03 -2.74597933E-03 -1.02526548E-01
 -4.64835525E-02  3.65603257E-03  9.45311092E-03  6.15224932E-03  3.04391590E-03
 -8.34632765E-03 -2.11036722E-01  3.07134134E-01  3.19299457E-01 -1.29165307E-02
 -1.73319030E-01  2.54525602E-01  2.57010113E-01  1.51862688E-02  7.53601167E-04
  5.08404198E-03 -1.09295362E-03  8.61936904E-03 -3.35453006E-04 -3.41086947E-03
  2.18245178E-01 -2.07499401E-01  2.36888384E-01  7.21509607E-03  1.78945068E-01
 -1.75578569E-01  1.88121796E-01 -1.08388754E-02  4.55229741E-04  5.06411021E-03
  4.70113122E-03 -6.68685320E-03  4.61855277E-03  7.30228400E-03 -5.69738322E-03
  9.47977772E-03  8.64014561E-03 -7.19982607E-04  6.82281443E-03 -6.45131193E-03
  8.51618104E-03  9.04104963E-03 -2.45504411E-02  6.64803738E-03  7.57680722E-03
 -1.06181545E-02  3.15079974E-03 -6.10225523E-03  1.11495070E-02  6.46616088E-03
 -5.79242672E-03  6.97175133E-03  3.91078477E-03 -1.07632858E-02  1.78275203E-01
 -2.60384013E-01 -2.34061257E-01 -1.79279054E-02  1.36261545E-01 -2.01418536E-01
 -1.86438826E-01 -1.18747310E-02 -8.05164366E-04 -3.07377714E-03 -2.32539872E-04
 -8.42048428E-03  1.51674400E-03 -7.40438656E-03  3.27772233E-01 -3.24821481E-01
  2.12501460E-01  6.32549400E-03  2.63029176E-01 -2.55874456E-01  1.65798773E-01
 -9.83838760E-03 -2.21770155E-03  8.04267738E-03  7.63226224E-03 -6.77735964E-03
  3.87310072E-03  8.25924180E-03  5.87411380E-03 -7.25283838E-03 -8.03090512E-03
 -4.05299828E-04  1.54780291E-02  4.58188612E-03 -8.31692411E-03 -7.38726746E-03
  1.38116938E-02 -1.80812224E-02  8.31205026E-03 -6.63994385E-03  7.80940335E-03
 -3.15858944E-03  5.07979389E-04  1.05073962E-02 -9.68302176E-03  6.64010918E-03
 -7.13916422E-02  1.16917665E-01  3.84832280E-02 -6.32779116E-03  1.00216993E-01
  8.55190367E-01  1.44224239E-01 -9.58472958E-02  2.64967088E-01  3.05678251E-03
  6.08675851E-03 -7.65408362E-03  3.81519567E-03  9.22776815E-03 -6.18793625E-02
  8.79422029E-02  1.01220386E-01 -1.29243757E-02 -9.32058106E-02  8.11114416E-01
  2.17359959E-01  1.60016309E-02 -2.57783562E-01  2.41821923E-03 -8.04226763E-03
  4.59334142E-03  1.32811481E-03  9.71347663E-03 -5.34193298E-02 -7.07051255E-01
 -3.93743617E-03 -6.88017912E-03  5.64389104E-03 -3.77531881E-02 -6.74406037E-01
  8.46523562E-03  4.38908851E-03  1.97715827E-03 -4.46976548E-02 -6.39349611E-01
 -1.25029752E-03 -3.70491470E-03 -3.78769326E-03 -3.93346801E-02 -7.11055204E-01
  7.95837347E-03  6.30222192E-03 -1.52330659E-03 -5.48162488E-02  7.14434043E-02
  6.64553979E-02 -1.18977023E-01  1.08655729E-01  7.84471203E-01  9.52364381E-02
 -2.22628502E-01  2.65301754E-01 -4.71602385E-05  3.59585642E-03 -1.02768303E-02
 -3.74694702E-03 -1.79187500E-03  6.21699140E-02 -8.83853697E-02 -1.17807194E-01
 -9.32768730E-02  6.92505270E-02 -8.38155937E-01 -3.22438102E-01 -1.94663458E-01
  1.80844632E-01  3.65459403E-03  8.99022687E-03  1.27621611E-03 -2.83247051E-03
 -8.76711172E-03 -4.98044351E-02 -8.95170600E-01  7.70271906E-04 -7.81971601E-03
  3.47441603E-03 -4.30644807E-02 -4.57421255E-01  1.56615708E-03  9.88874812E-06
  5.97635749E-04  4.81353052E-02  3.08097455E-01 -1.43398724E-03  2.76877630E-03
  1.58408660E-03  6.68345206E-02  1.09729530E+00 -6.98192705E-03 -7.84884987E-03
  2.83685395E-03 -7.81028533E-03 -1.35065705E-02  2.38970554E-01  5.68819755E-02
  1.49264558E-02  2.56153517E-01  4.52218570E-01  2.35315870E-01 -1.89705631E-02
 -7.97877071E-03  9.28013749E-03  2.26752732E-03  8.32200134E-03 -8.48707065E-03
  2.42873467E-02 -4.05148830E-02  9.79799430E-02  1.76528240E-01  1.35367430E-01
 -3.12371046E-01  1.99236746E-01  4.75760653E-01  3.30110667E-01 -8.81697176E-03
  9.74360096E-04 -1.11196428E-02  3.82797581E-03  1.11085311E-02  2.86687767E-02
  5.77358693E-01  6.89115753E-03  3.76276475E-03 -2.05466985E-03 -5.05348370E-02
 -1.10512888E+00  6.50934593E-03 -6.48204864E-05  2.01339184E-03  8.35051052E-02
  1.27494846E+00  1.06161596E-03  5.70232557E-03  5.73204050E-03 -1.55679594E-02
 -7.46472621E-01  6.35663652E-03  6.43098718E-03 -4.46094474E-04 -5.62304804E-03
  3.30765087E-02  1.39949106E-01  2.24342604E-01 -7.23765275E-02 -4.72563744E-02
  4.06595675E-01  4.79081760E-01 -1.34099374E-01 -5.44644112E-04  4.99912961E-03
  1.20491673E-02  9.39836508E-03  9.03443463E-03 -5.09855216E-03  9.76362774E-03
 -9.07006790E-02 -1.71083037E-01 -9.33829937E-02  6.19182330E-02 -2.33702549E-01
 -4.25927610E-01 -2.20973656E-01  6.96471090E-03  8.85013614E-04  8.10287889E-03
 -5.43921377E-03 -6.31861033E-03  5.95335856E-02  1.14005057E+00 -1.20546875E-04
  6.21845344E-03 -2.98893013E-03 -5.90685381E-02 -1.00673979E+00  5.98914989E-03
  6.68984803E-03 -5.90771287E-05 -5.37410332E-02 -9.48358079E-01 -8.62822520E-04
 -4.54251624E-03 -3.08459086E-03  4.90836396E-02  8.39080672E-01 -4.78266357E-03
 -3.56660272E-03  7.84009663E-04  3.15249844E-03 -2.69402999E-02  3.00805361E-03
 -7.56522388E-02  4.02750600E-02  1.11665576E-03 -2.79231814E-01 -2.30688907E-01
  4.71586531E-02 -4.72176774E-02  7.87341489E-02  1.15798407E-01  1.20025106E-01
  3.22143412E-03  1.03806831E-02 -5.29715709E-02  1.29973950E-02 -8.84730864E-02
 -7.36607535E-03  8.81609625E-03 -2.18378338E-01 -1.99615552E-01 -7.84034827E-02
 -9.20336864E-02 -2.49081877E-02 -9.41277339E-02  3.92844187E-02  1.10668566E-01
 -5.99902625E-01  4.11448890E-01 -6.74152107E-03  4.95572291E-02 -5.84950325E-02
  5.46331275E-01 -3.74707170E-01  4.80569179E-02 -1.10789697E-02  4.13795506E-02
 -4.06493300E-01  3.39727355E-01 -3.19060982E-02  9.23521865E-03  5.24931647E-02
  6.15745611E-01 -4.04433782E-01  6.34225041E-02  3.67098923E-02 -3.15851558E-02
 -3.82175343E-03  5.21026255E-02 -1.74420331E-01  1.06523169E-01 -2.00070561E-02
 -1.89493522E-02 -9.61149543E-02 -2.88717942E-01  5.64322566E-02 -4.54243409E-02
  7.96269656E-02  7.95014850E-02  1.14677241E-01  5.37189431E-02  1.34310518E-02
 -6.08192847E-02  1.38293501E-01 -3.25309001E-02  5.76966133E-02 -2.86144478E-02
 -7.88322902E-04  3.46208224E-01  1.64686781E-01  1.02037689E-01  2.69953123E-02
  1.35586273E-01 -6.20875276E-02 -6.73719274E-02 -4.06340071E-01  3.30130744E-01
 -3.10297144E-02  2.17660672E-02 -3.40807576E-02  5.61138394E-01 -4.22027119E-01
  6.91290423E-02  1.55106716E-02  4.14693276E-02  6.72674100E-01 -3.88823145E-01
  1.40884892E-02 -3.19545025E-02 -6.82503835E-02 -4.34870463E-01  3.78558410E-01
 -4.38531984E-02 -1.62560620E-02  4.46865312E-02  1.96982542E-02 -1.24460536E-01
 -2.65120301E-01  2.98615598E-01 -8.41607270E-02  2.46525365E-01  2.55206471E-01
 -1.99762868E-01 -2.57477042E-02 -2.73054963E-02 -5.07618145E-03 -1.24787683E-01
 -1.66311956E-02  1.07075203E-01  2.69884874E-02 -1.63454125E-01  7.27671848E-02
 -2.40591950E-01  3.96233828E-01  2.10560829E-01 -1.88956856E-01  2.10901454E-01
 -2.95057977E-01 -2.95491923E-02 -2.55650315E-02  5.50794332E-02 -1.41521535E-02
  1.46899014E-01  5.41232309E-01 -4.93094177E-01 -5.63289781E-02 -9.56080641E-02
  7.39792472E-02  2.16466478E-01 -1.44960006E-01  7.27181113E-02  6.32601511E-02
 -5.22852131E-03  2.58848683E-01 -7.40547709E-02 -3.91602878E-02 -7.13788732E-02
 -5.14066678E-02  5.28850531E-01 -4.71682646E-01  9.48085526E-02  8.20244382E-02
  9.13683994E-03 -8.07623085E-03  2.72884074E-02  7.77274150E-02 -2.61664577E-01
 -5.25310464E-01  1.31006477E-01 -9.28430269E-02  2.81808945E-01  5.84211503E-01
 -1.05834459E-02  1.62517811E-02  2.54796607E-03  1.89271078E-02  3.80474427E-02
  2.41188479E-04 -6.78069083E-02 -5.85664758E-01  3.53490657E-01  9.99632095E-02
  3.83467589E-01  6.18523847E-01 -3.98358714E-01 -1.52410554E-01 -1.09092399E-03
 -1.73910718E-02  8.76916358E-02 -3.60817222E-02  5.89332284E-02 -8.83710221E-03
 -4.66774270E-02 -1.55908528E-02 -3.50250858E-02  3.78038594E-03  9.08372571E-02
 -1.88382593E-01  5.47739913E-02  1.24913402E-02  3.62244093E-03  2.28767131E-01
 -4.89074585E-01 -1.48950707E-02 -9.37515642E-02 -8.46285728E-02  1.51762254E-01
 -2.20268909E-01  4.76547346E-02  8.04478918E-02  8.61191435E-03  2.85473280E-02
 -2.19581673E-01  5.36258004E-03 -1.12413319E-01 -4.70593115E-01  4.15442659E-01
 -8.42756121E-02  1.19355202E-01  4.12029160E-01 -6.13536705E-02  3.00518402E-02
 -9.90632989E-02  2.62020942E-02  1.38495387E-01 -2.92379049E-03  2.20695873E-02
  3.18938390E-01  2.82549351E-02 -3.29380442E-01 -2.65171241E-01 -3.49422100E-01
 -8.53959517E-02  2.95488380E-01  3.43637227E-03  1.92687274E-02 -8.49087454E-02
  2.79633556E-02 -9.78930887E-02  4.33030538E-01 -4.59795535E-01 -6.76639827E-02
 -1.10771541E-01  5.18810457E-02  4.93296006E-01 -4.63885628E-01  1.13337576E-01
  6.60681400E-02  5.79181724E-04 -3.33894820E-01  3.46425956E-01  2.70809736E-02
  7.40581059E-02  6.76573963E-02 -2.21159827E-01  3.57156427E-01 -8.05270548E-02
 -9.03926058E-02 -1.31093109E-02 -4.70265012E-02  3.14835862E-01 -1.90312707E-01
  1.98305000E-01 -3.34886032E-01 -1.10623930E-01  3.32764065E-01 -2.99381310E-01
  5.45218183E-01  5.11102031E-02 -2.87247004E-02  1.64220367E-02 -3.78664833E-02
 -8.23754731E-02  5.23776366E-02 -3.93428294E-01  3.29926974E-01  1.72589600E-01
 -3.61416525E-01  1.45854401E-01 -5.37783338E-01 -2.70263722E-01  5.33878569E-01
 -1.30672370E-03  4.05052351E-03  5.04758196E-02 -2.05067691E-02  5.03214658E-02
 -2.89406446E-01 -4.42237450E-02  2.52798332E-02 -8.44305967E-03  2.83405081E-02
 -4.50569707E-01  2.61223866E-01 -2.67519384E-02 -2.27414633E-02  2.44755765E-03
  2.35562742E-01 -4.10598662E-02 -2.81498275E-02 -1.43703296E-02 -2.03965611E-02
  3.71352655E-01 -1.64048791E-02 -2.89471145E-02 -1.56779523E-02  1.93315304E-02
  3.80121110E-02 -2.54492994E-01  1.46314744E-01 -9.79720093E-03  4.20334158E-01
  5.97145296E-02 -2.73718796E-01  8.73522362E-02 -6.07703286E-01 -2.06263865E-02
 -7.26617710E-03 -4.26447980E-02 -1.74831249E-04  5.63367010E-02  3.52134110E-02
 -2.09116699E-01 -1.89754788E-01  1.55111927E-01 -5.74753173E-01  6.24899584E-02
  1.33683188E-01 -6.45725371E-02  8.41220327E-01 -2.84692221E-02 -7.00469738E-03
  4.09350578E-02 -1.37088734E-02  8.48270026E-02  3.09590013E-01 -1.02307709E-01
 -1.71630048E-02 -2.52407592E-03 -5.48791553E-03  2.55887090E-01  2.39256760E-03
 -1.15743027E-02  1.26119907E-02 -1.98051452E-02  3.97194385E-01 -2.44649827E-02
 -1.90751808E-02  7.32092262E-03  3.48349543E-02  3.00699313E-01 -2.42288369E-01
  3.00399562E-02  4.88650869E-02  1.32045736E-02 -1.26916526E-03  1.02337909E-01
  4.46073016E-01 -3.48237381E-01 -2.14243357E-01 -3.38634814E-01 -5.98895446E-01