#INFO: **** input file is /home/liwei01/wsr/dftpart/test_2body/w32/gfea_c8.py ****
from dftpart import gfea3
from pyscf import lib

par = 8
with lib.with_omp_threads(par):
    fr0 = gfea3.GFEA()
    fr0.inputstyle = 'frg'
    fr0.method = ['hf', '6-31gss','charge']
    fr0.gjfname = 'w32'
    fr0.output = 'w32'
    fr0.verbose = 9
    fr0.showinter = True
    #fr0.do_deriv = True
    fr0.kernel()

#INFO: ******************** input file end ********************


System: uname_result(system='Linux', node='master', release='3.10.0-693.el7.x86_64', version='#1 SMP Tue Aug 22 21:09:27 UTC 2017', machine='x86_64', processor='x86_64')  Threads 8
Python 3.7.6 (default, Jan  8 2020, 19:59:22) 
[GCC 7.3.0]
numpy 1.18.1  scipy 1.4.1
Date: Tue Jun 16 20:57:53 2020
PySCF version 1.6.1
PySCF path  /home/liwei01/zcheng/pyscf/pyscf
GIT HEAD      ref: refs/heads/master
GIT master branch  3adc7fd25839fe674469a52b764c3661e32d7318

[CONFIG] DEBUG = False
[CONFIG] MAX_MEMORY = 4000
[CONFIG] TMPDIR = .
[CONFIG] UNIT = angstrom
[CONFIG] VERBOSE = 3
[CONFIG] conf_file = None
[INPUT] verbose = 9
[INPUT] max_memory = 4000 
[INPUT] num. atoms = 15
[INPUT] num. electrons = 50
[INPUT] charge = 0
[INPUT] spin (= nelec alpha-beta = 2S) = 0
[INPUT] symmetry False subgroup None
[INPUT] Mole.unit = angstrom
[INPUT]  1 O      9.739714000000 -14.560219000000 -13.084136000000 AA   18.405391991592 -27.514826223689 -24.725433616562 Bohr
[INPUT]  2 O      8.451586000000 -10.635579000000 -15.685931000000 AA   15.971182858208 -20.098331486176 -29.642113598825 Bohr
[INPUT]  3 O      8.491932000000 -14.159618000000 -15.711024000000 AA   16.047425748430 -26.757800048462 -29.689532496469 Bohr
[INPUT]  4 O     10.675204000000 -11.925165000000 -15.819193000000 AA   20.173211883861 -22.535295840249 -29.893942281637 Bohr
[INPUT]  5 O      7.759345000000 -16.504968000000 -13.246021000000 AA   14.663036956013 -31.189869214710 -25.031351930237 Bohr
[INPUT]  6 H      9.436683000000 -13.920876000000 -12.439430000000 AA   17.832746394339 -26.306643054031 -23.507115845698 Bohr
[INPUT]  7 H     10.652707000000 -14.322974000000 -13.246584000000 AA   20.130698715237 -27.066498149266 -25.032415846046 Bohr
[INPUT]  8 H      8.125035000000 -10.406856000000 -16.556152000000 AA   15.354090902505 -19.666107657787 -31.286592956670 Bohr
[INPUT]  9 H      9.262189000000 -11.116608000000 -15.852568000000 AA   17.503000523959 -21.007344554149 -29.957011891044 Bohr
[INPUT] 10 H      8.843942000000 -15.043720000000 -15.814399000000 AA   16.712628241538 -28.428510694642 -29.884882934596 Bohr
[INPUT] 11 H      8.918348000000 -13.822113000000 -14.923311000000 AA   16.853235203563 -26.120008032790 -28.200970661709 Bohr
[INPUT] 12 H     11.145373000000 -12.259719000000 -15.055487000000 AA   21.061702526122 -23.167511274127 -28.450747101950 Bohr
[INPUT] 13 H     10.769363000000 -12.612255000000 -16.478945000000 AA   20.351146606024 -23.833707763176 -31.140692871771 Bohr
[INPUT] 14 H      7.307919000000 -16.211137000000 -12.454749000000 AA   13.809965450505 -30.634609097803 -23.536064560201 Bohr
[INPUT] 15 H      8.537292000000 -15.949757000000 -13.298681000000 AA   16.133143725440 -30.140672483364 -25.130864907957 Bohr
[INPUT] ---------------- BASIS SET ---------------- 
[INPUT] l, kappa, [nprim/nctr], expnt,             c_1 c_2 ...
[INPUT] H
[INPUT] 0    0    [3    /1   ]  18.731137         0.0334946
                                2.8253937         0.23472695
                                0.6401217         0.81375733
[INPUT] 0    0    [1    /1   ]  0.1612778            1
[INPUT] 1    0    [1    /1   ]  1.1                  1
[INPUT] O
[INPUT] 0    0    [6    /1   ]  5484.6717         0.0018311
                                825.23495         0.0139501
                                188.04696         0.0684451
                                52.9645           0.2327143
                                16.89757          0.470193
                                5.7996353         0.3585209
[INPUT] 0    0    [3    /1   ]  15.539616         -0.1107775
                                3.5999336         -0.1480263
                                1.0137618         1.130767
[INPUT] 0    0    [1    /1   ]  0.2700058            1
[INPUT] 1    0    [3    /1   ]  15.539616         0.0708743
                                3.5999336         0.3397528
                                1.0137618         0.7271586
[INPUT] 1    0    [1    /1   ]  0.2700058            1
[INPUT] 2    0    [1    /1   ]  0.8                  1

nuclear repulsion = 193.064409971554
number of shells = 60
number of NR pGTOs = 205
number of NR cGTOs = 120
basis = 6-31gss
ecp = {}
bas 0, expnt(s) = [5484.6717     825.23495    188.04696     52.9645      16.89757
    5.7996353]
bas 1, expnt(s) = [15.539616   3.5999336  1.0137618]
bas 2, expnt(s) = [0.2700058]
bas 3, expnt(s) = [15.539616   3.5999336  1.0137618]
bas 4, expnt(s) = [0.2700058]
bas 5, expnt(s) = [0.8]
bas 6, expnt(s) = [5484.6717     825.23495    188.04696     52.9645      16.89757
    5.7996353]
bas 7, expnt(s) = [15.539616   3.5999336  1.0137618]
bas 8, expnt(s) = [0.2700058]
bas 9, expnt(s) = [15.539616   3.5999336  1.0137618]
bas 10, expnt(s) = [0.2700058]
bas 11, expnt(s) = [0.8]
bas 12, expnt(s) = [5484.6717     825.23495    188.04696     52.9645      16.89757
    5.7996353]
bas 13, expnt(s) = [15.539616   3.5999336  1.0137618]
bas 14, expnt(s) = [0.2700058]
bas 15, expnt(s) = [15.539616   3.5999336  1.0137618]
bas 16, expnt(s) = [0.2700058]
bas 17, expnt(s) = [0.8]
bas 18, expnt(s) = [5484.6717     825.23495    188.04696     52.9645      16.89757
    5.7996353]
bas 19, expnt(s) = [15.539616   3.5999336  1.0137618]
bas 20, expnt(s) = [0.2700058]
bas 21, expnt(s) = [15.539616   3.5999336  1.0137618]
bas 22, expnt(s) = [0.2700058]
bas 23, expnt(s) = [0.8]
bas 24, expnt(s) = [5484.6717     825.23495    188.04696     52.9645      16.89757
    5.7996353]
bas 25, expnt(s) = [15.539616   3.5999336  1.0137618]
bas 26, expnt(s) = [0.2700058]
bas 27, expnt(s) = [15.539616   3.5999336  1.0137618]
bas 28, expnt(s) = [0.2700058]
bas 29, expnt(s) = [0.8]
bas 30, expnt(s) = [18.731137   2.8253937  0.6401217]
bas 31, expnt(s) = [0.1612778]
bas 32, expnt(s) = [1.1]
bas 33, expnt(s) = [18.731137   2.8253937  0.6401217]
bas 34, expnt(s) = [0.1612778]
bas 35, expnt(s) = [1.1]
bas 36, expnt(s) = [18.731137   2.8253937  0.6401217]
bas 37, expnt(s) = [0.1612778]
bas 38, expnt(s) = [1.1]
bas 39, expnt(s) = [18.731137   2.8253937  0.6401217]
bas 40, expnt(s) = [0.1612778]
bas 41, expnt(s) = [1.1]
bas 42, expnt(s) = [18.731137   2.8253937  0.6401217]
bas 43, expnt(s) = [0.1612778]
bas 44, expnt(s) = [1.1]
bas 45, expnt(s) = [18.731137   2.8253937  0.6401217]
bas 46, expnt(s) = [0.1612778]
bas 47, expnt(s) = [1.1]
bas 48, expnt(s) = [18.731137   2.8253937  0.6401217]
bas 49, expnt(s) = [0.1612778]
bas 50, expnt(s) = [1.1]
bas 51, expnt(s) = [18.731137   2.8253937  0.6401217]
bas 52, expnt(s) = [0.1612778]
bas 53, expnt(s) = [1.1]
bas 54, expnt(s) = [18.731137   2.8253937  0.6401217]
bas 55, expnt(s) = [0.1612778]
bas 56, expnt(s) = [1.1]
bas 57, expnt(s) = [18.731137   2.8253937  0.6401217]
bas 58, expnt(s) = [0.1612778]
bas 59, expnt(s) = [1.1]
CPU time:       727.97
arg.atm = [[ 8 20  1 23  0  0]
 [ 8 24  1 27  0  0]
 [ 8 28  1 31  0  0]
 [ 8 32  1 35  0  0]
 [ 8 36  1 39  0  0]
 [ 1 40  1 43  0  0]
 [ 1 44  1 47  0  0]
 [ 1 48  1 51  0  0]
 [ 1 52  1 55  0  0]
 [ 1 56  1 59  0  0]
 [ 1 60  1 63  0  0]
 [ 1 64  1 67  0  0]
 [ 1 68  1 71  0  0]
 [ 1 72  1 75  0  0]
 [ 1 76  1 79  0  0]]
arg.bas = [[  0   0   6   1   0  90  96   0]
 [  0   0   3   1   0 102 105   0]
 [  0   0   1   1   0 108 109   0]
 [  0   1   3   1   0 110 113   0]
 [  0   1   1   1   0 116 117   0]
 [  0   2   1   1   0 118 119   0]
 [  1   0   6   1   0  90  96   0]
 [  1   0   3   1   0 102 105   0]
 [  1   0   1   1   0 108 109   0]
 [  1   1   3   1   0 110 113   0]
 [  1   1   1   1   0 116 117   0]
 [  1   2   1   1   0 118 119   0]
 [  2   0   6   1   0  90  96   0]
 [  2   0   3   1   0 102 105   0]
 [  2   0   1   1   0 108 109   0]
 [  2   1   3   1   0 110 113   0]
 [  2   1   1   1   0 116 117   0]
 [  2   2   1   1   0 118 119   0]
 [  3   0   6   1   0  90  96   0]
 [  3   0   3   1   0 102 105   0]
 [  3   0   1   1   0 108 109   0]
 [  3   1   3   1   0 110 113   0]
 [  3   1   1   1   0 116 117   0]
 [  3   2   1   1   0 118 119   0]
 [  4   0   6   1   0  90  96   0]
 [  4   0   3   1   0 102 105   0]
 [  4   0   1   1   0 108 109   0]
 [  4   1   3   1   0 110 113   0]
 [  4   1   1   1   0 116 117   0]
 [  4   2   1   1   0 118 119   0]
 [  5   0   3   1   0  80  83   0]
 [  5   0   1   1   0  86  87   0]
 [  5   1   1   1   0  88  89   0]
 [  6   0   3   1   0  80  83   0]
 [  6   0   1   1   0  86  87   0]
 [  6   1   1   1   0  88  89   0]
 [  7   0   3   1   0  80  83   0]
 [  7   0   1   1   0  86  87   0]
 [  7   1   1   1   0  88  89   0]
 [  8   0   3   1   0  80  83   0]
 [  8   0   1   1   0  86  87   0]
 [  8   1   1   1   0  88  89   0]
 [  9   0   3   1   0  80  83   0]
 [  9   0   1   1   0  86  87   0]
 [  9   1   1   1   0  88  89   0]
 [ 10   0   3   1   0  80  83   0]
 [ 10   0   1   1   0  86  87   0]
 [ 10   1   1   1   0  88  89   0]
 [ 11   0   3   1   0  80  83   0]
 [ 11   0   1   1   0  86  87   0]
 [ 11   1   1   1   0  88  89   0]
 [ 12   0   3   1   0  80  83   0]
 [ 12   0   1   1   0  86  87   0]
 [ 12   1   1   1   0  88  89   0]
 [ 13   0   3   1   0  80  83   0]
 [ 13   0   1   1   0  86  87   0]
 [ 13   1   1   1   0  88  89   0]
 [ 14   0   3   1   0  80  83   0]
 [ 14   0   1   1   0  86  87   0]
 [ 14   1   1   1   0  88  89   0]]
arg.env = [ 1.37036000e+02  0.00000000e+00  0.00000000e+00  0.00000000e+00
  0.00000000e+00  0.00000000e+00  0.00000000e+00  0.00000000e+00
  0.00000000e+00  0.00000000e+00  0.00000000e+00  0.00000000e+00
  0.00000000e+00  0.00000000e+00  0.00000000e+00  0.00000000e+00
  0.00000000e+00  0.00000000e+00  0.00000000e+00  0.00000000e+00
  1.84053920e+01 -2.75148262e+01 -2.47254336e+01  0.00000000e+00
  1.59711829e+01 -2.00983315e+01 -2.96421136e+01  0.00000000e+00
  1.60474257e+01 -2.67578000e+01 -2.96895325e+01  0.00000000e+00
  2.01732119e+01 -2.25352958e+01 -2.98939423e+01  0.00000000e+00
  1.46630370e+01 -3.11898692e+01 -2.50313519e+01  0.00000000e+00
  1.78327464e+01 -2.63066431e+01 -2.35071158e+01  0.00000000e+00
  2.01306987e+01 -2.70664981e+01 -2.50324158e+01  0.00000000e+00
  1.53540909e+01 -1.96661077e+01 -3.12865930e+01  0.00000000e+00
  1.75030005e+01 -2.10073446e+01 -2.99570119e+01  0.00000000e+00
  1.67126282e+01 -2.84285107e+01 -2.98848829e+01  0.00000000e+00
  1.68532352e+01 -2.61200080e+01 -2.82009707e+01  0.00000000e+00
  2.10617025e+01 -2.31675113e+01 -2.84507471e+01  0.00000000e+00
  2.03511466e+01 -2.38337078e+01 -3.11406929e+01  0.00000000e+00
  1.38099655e+01 -3.06346091e+01 -2.35360646e+01  0.00000000e+00
  1.61331437e+01 -3.01406725e+01 -2.51308649e+01  0.00000000e+00
  1.87311370e+01  2.82539370e+00  6.40121700e-01  7.61926220e-01
  1.29237100e+00  1.47131900e+00  1.61277800e-01  6.42977783e-01
  1.10000000e+00  3.28643653e+00  5.48467170e+03  8.25234950e+02
  1.88046960e+02  5.29645000e+01  1.68975700e+01  5.79963530e+00
  2.94842455e+00  5.42657124e+00  8.78126489e+00  1.15432129e+01
  9.90055015e+00  3.38516599e+00  1.55396160e+01  3.59993360e+00
  1.01376180e+00 -2.19051792e+00 -9.77405528e-01  2.88629094e+00
  2.70005800e-01  9.46334873e-01  1.55396160e+01  3.59993360e+00
  1.01376180e+00  6.37930734e+00  4.91490975e+00  2.15791055e+00
  2.70005800e-01  5.67807022e-01  8.00000000e-01  1.76578110e+00]
ecpbas  = []


******** <class 'pyscf.qmmm.itrf.mm_charge.<locals>.QMMM'> ********
method = QMMM-RHF
initial guess = minao
damping factor = 0
level shift factor = 0
DIIS = <class 'pyscf.scf.diis.CDIIS'>
DIIS start cycle = 1
DIIS space = 8
SCF tol = 1e-09
SCF gradient tol = None
max. SCF cycles = 50
direct_scf = True
direct_scf_tol = 1e-13
chkfile to save SCF result = /home/liwei01/wsr/dftpart/test_2body/w32/tmpeyueczd7
max_memory 4000 MB (current use 328 MB)
** Add background charges for <class 'pyscf.scf.hf.RHF'> **
Charge      Location
-1.056075    [ 15.8591958  -22.32322322 -21.16584533]
0.523264    [ 15.44903263 -23.69303655 -20.05800473]
0.517699    [ 17.48403712 -21.75849557 -20.60647128]
-1.035697    [ 20.23144001 -20.50137794 -19.07019386]
0.520608    [ 21.7723038  -21.39222885 -18.74761761]
0.515624    [ 19.97024207 -19.49608333 -17.58928542]
-1.009926    [ 16.42785407 -26.58707085 -18.04142885]
0.499922    [ 15.53371882 -25.95112132 -16.60336995]
0.507893    [ 16.16245338 -28.37548309 -17.98600129]
-1.024266    [ 13.70105109 -18.63199472 -24.76194313]
0.515186    [ 13.45609723 -19.31578456 -26.41855264]
0.515422    [ 13.87339411 -20.08163576 -23.69387937]
-1.050024    [ 10.52651529 -24.11298283 -20.2839555 ]
0.521386    [  8.7734466  -24.2410798  -19.85703047]
0.506414    [ 11.30765248 -23.44237383 -18.79666545]
-1.032359    [ 13.1641969  -17.47579981 -19.41562257]
0.514165    [ 13.18112696 -18.60438393 -20.82910748]
0.518479    [ 14.52136419 -16.32434621 -19.73837456]
-1.052762    [ 13.11969196 -22.35429031 -15.81898054]
0.521035    [ 14.16458201 -22.84877684 -14.42771692]
0.525545    [ 13.80909996 -20.77345693 -16.36451423]
-1.054902    [ 19.05772167 -18.14703431 -25.87868434]
0.517977    [ 18.59105569 -18.66655214 -27.54728983]
0.522623    [ 17.51229609 -18.19498233 -24.93991564]
-0.997115    [ 17.90283445 -15.11249509 -20.63210731]
0.530073    [ 18.89257472 -16.62132612 -20.50652934]
0.49195    [ 18.18557149 -14.25298717 -19.06582671]
-0.992133    [  7.63287216 -21.21078113 -24.19682809]
0.480184    [  8.55071592 -22.76668147 -24.10379498]
0.504586    [  8.37549106 -20.32880248 -25.59058803]
-1.012936    [ 10.55365553 -29.46492154 -21.67488842]
0.504954    [  8.84108934 -29.00412127 -22.03084479]
0.525721    [ 11.34418277 -27.91794449 -21.17105153]
-0.985176    [ 16.63195772 -23.48150439 -12.27810621]
0.500614    [ 17.11266814 -22.20236011 -11.09293235]
0.508291    [ 16.89319913 -25.03868407 -11.39557387]
-0.979947    [ 19.94097588 -17.12125506 -14.67509908]
0.500341    [ 18.95312155 -17.86288753 -13.35371942]
0.493696    [ 19.00620207 -15.6543646  -15.17143564]
-0.999332    [ 25.43111026 -22.24828235 -18.47023794]
0.512801    [ 26.28398524 -20.77981964 -19.09325419]
0.507583    [ 26.7410892  -23.47726762 -18.25698991]
-1.016163    [ 10.56617686 -29.35403808 -16.44102735]
0.483053    [ 11.92280935 -30.36927076 -15.8079521 ]
0.523726    [ 10.34862781 -29.90290525 -18.15080431]
-0.976012    [ 10.09067452 -21.18806662 -29.24260093]
0.486289    [ 11.11173701 -19.76402949 -29.69146191]
0.496485    [ 10.37375928 -22.38512875 -30.56881072]
-0.977833    [ 24.5589393  -27.80514674 -21.18389789]
0.50587    [ 23.21796885 -28.65180829 -20.31390388]
0.463809    [ 25.76766104 -27.42438582 -19.8931866 ]
-0.989717    [  8.77070649 -15.37911655 -23.94499373]
0.487556    [  8.68859978 -13.74216775 -23.17975481]
0.496916    [ 10.53805395 -15.75730555 -24.01835668]
-0.992057    [ 16.93410036 -32.15697813 -17.52810554]
0.50918    [ 16.39069828 -32.53931319 -15.84570882]
0.510293    [ 15.6895513  -32.92540692 -18.59231236]
-0.998393    [ 24.35861321 -18.31258187 -25.98586582]
0.466984    [ 25.48944989 -18.60606579 -24.60492389]
0.51604    [ 22.70911474 -18.4111103  -25.25008395]
-1.010464    [  9.27281806 -14.9477601  -17.25327322]
0.476424    [  7.6789399  -15.16789619 -18.07972415]
0.517552    [ 10.24747455 -16.38576609 -17.75736144]
-0.991473    [  5.5836248  -24.00414405 -18.66237963]
0.501887    [  5.79022289 -25.52045085 -17.69798247]
0.510487    [  5.17491673 -22.73885336 -17.43603619]
-1.029267    [  7.95719829 -25.19119252 -14.2761212 ]
0.497876    [  9.38018663 -24.0850659  -14.1227926 ]
0.519667    [  8.66153702 -26.76190075 -14.83174226]
-1.001943    [ 16.13613705 -11.83176802 -24.46883904]
0.509813    [ 16.78082846 -12.94299123 -23.1954641 ]
0.477312    [ 17.5304658  -11.57071369 -25.59117007]
-1.019724    [ 21.67798379 -29.0173418  -14.20699124]
0.475311    [ 20.53074618 -29.01816194 -15.60548117]
0.514632    [ 22.50198564 -27.40961194 -14.29731259]
-0.9959    [ 24.21450458 -24.60133719 -13.9203349 ]
0.499354    [ 23.58737251 -23.46499007 -12.66043371]
0.511038    [ 23.91476757 -23.75039163 -15.48812918]
-1.001922    [ 21.40011279 -32.14724982 -20.33868764]
0.487648    [ 22.14106118 -33.75675602 -19.97480576]
0.509505    [ 19.73399418 -32.24696878 -19.64152988]
Set gradient conv threshold to 3.16228e-05
Nelec from initial guess = 49.944258151559694
cond(S) = 179.96301137550222
E1 = -901.5535821677425  E_coul = 329.4275143983315
init E= -379.429505705215
    CPU time for initialize scf      2.16 sec, wall time      0.28 sec
  HOMO = -0.438468763905161  LUMO = 0.0755265729550848
  mo_energy =
[-20.86373466 -20.79937277 -20.79308723 -20.78889603 -20.75912083
  -1.69664201  -1.63636579  -1.61189606  -1.60261458  -1.57138113
  -0.82929403  -0.75179225  -0.74796533  -0.74655838  -0.71366406
  -0.66592378  -0.60343576  -0.58753129  -0.57361041  -0.53686356
  -0.53042373  -0.48578853  -0.46716841  -0.45740661  -0.43846876
   0.07552657   0.11751607   0.15825216   0.18183656   0.20765797
   0.25485293   0.27119243   0.30333469   0.3307109    0.34878663
   0.84148917   0.89015337   0.91385316   0.92037647   0.93886514
   0.96290357   0.98398374   1.00073727   1.01537422   1.01904522
   1.03526318   1.04894779   1.07179354   1.08244353   1.11845432
   1.133482     1.13574077   1.1700098    1.21035493   1.22425099
   1.24412051   1.25605471   1.28386477   1.31981134   1.33911581
   1.4882506    1.5225206    1.56777117   1.65335818   1.66653551
   1.68231266   1.7140619    1.72651923   1.7331926    1.73431682
   1.74111419   1.75580477   1.76115049   1.80044359   1.81843646
   1.82100209   1.83742049   1.86476617   1.88851734   1.95765785
   2.47603113   2.49096182   2.51208513   2.52758973   2.55368481
   2.56188841   2.57086015   2.59562295   2.61602361   2.64153189
   2.7297906    2.73811264   2.76731406   2.82179516   2.85959768
   2.8675683    2.88983603   2.92231232   2.9390023    2.9504463
   2.95727676   2.95999279   2.96517831   2.99584807   3.01968397
   3.30136298   3.33854927   3.34240117   3.36704272   3.37890587
   3.69247963   3.72293971   3.72580576   3.7402855    3.76144297
   3.8281896    3.87747275   3.89825929   3.92788824   3.94682067]
E1 = -913.8566189095181  E_coul = 341.1709037113606
cycle= 1 E= -379.989153133962  delta_E= -0.56  |g|= 0.964  |ddm|= 2.65
    CPU time for cycle= 1      0.30 sec, wall time      0.04 sec
diis-norm(errvec)=1.73862
diis-c [-3.02280377  1.        ]
  HOMO = -0.356082788604022  LUMO = 0.148344023107108
  mo_energy =
[-20.42657805 -20.42637222 -20.28002248 -20.2576174  -20.24485164
  -1.34437583  -1.34221975  -1.23869144  -1.23747429  -1.21110637
  -0.71918622  -0.71647558  -0.65709738  -0.62513852  -0.61767796
  -0.5498978   -0.54809919  -0.49699974  -0.48823994  -0.45108643
  -0.44610228  -0.42622122  -0.38593396  -0.38229528  -0.35608279
   0.14834402   0.22268035   0.25540359   0.26669153   0.2964974
   0.31776448   0.32798643   0.3970832    0.48441946   0.50675532
   0.94822123   0.95668187   0.99911033   1.04882712   1.05858963
   1.06597277   1.0841322    1.10059972   1.13415743   1.15687808
   1.18942737   1.22525866   1.25116083   1.26005161   1.28420625
   1.29847752   1.31106243   1.3244367    1.34805031   1.37333828
   1.38808419   1.40942592   1.42711557   1.43424532   1.47880668
   1.64377824   1.65299257   1.7186141    1.77503698   1.77912043
   1.7978613    1.82881017   1.84088615   1.85824238   1.87374691
   1.8926482    1.89671309   1.91616303   1.93727474   1.99087224
   2.00962499   2.01474815   2.03356071   2.0458968    2.09030906
   2.49789183   2.50964053   2.5702176    2.5759275    2.61624678
   2.63980239   2.65195293   2.67897513   2.74595248   2.77591537
   2.78594575   2.79394173   2.870884     2.91090815   2.93941443
   2.94567794   2.96948592   2.99754876   3.01353952   3.03146255
   3.04829743   3.05638252   3.08844003   3.09314306   3.14630768
   3.34883373   3.35248434   3.44317613   3.46471004   3.48013154
   3.72361817   3.74836311   3.82726386   3.85839106   3.8645768
   3.89799082   3.92836135   4.04959922   4.08719324   4.12889966]
E1 = -906.3098157158306  E_coul = 333.48363450718205
cycle= 2 E= -380.129619144452  delta_E= -0.14  |g|= 0.467  |ddm|= 0.784
    CPU time for cycle= 2      0.31 sec, wall time      0.04 sec
diis-norm(errvec)=0.777231
diis-c [-0.14318266  0.28575103  0.71424897]
  HOMO = -0.453582388447201  LUMO = 0.153160090979483
  mo_energy =
[-20.61905366 -20.61296209 -20.57296353 -20.56306017 -20.53520007
  -1.39367906  -1.38427177  -1.33937592  -1.32393088  -1.30042941
  -0.7520974   -0.74495641  -0.72965154  -0.68916615  -0.6788302
  -0.61992203  -0.60799545  -0.5667107   -0.56282744  -0.53620959
  -0.52598565  -0.5183813   -0.49459828  -0.47597319  -0.45358239
   0.15316009   0.2206235    0.2469836    0.25633102   0.2911859
   0.30817087   0.32966722   0.37970398   0.45577724   0.46854975
   0.93385483   0.94928802   0.97202046   1.02120684   1.03529777
   1.04663244   1.05580323   1.08716106   1.09456805   1.11880933
   1.14392128   1.14959246   1.18145092   1.2047399    1.21980883
   1.23539427   1.24202955   1.26721684   1.29097184   1.3243946
   1.34607351   1.35513218   1.36893213   1.37736757   1.42097268
   1.59194756   1.60811773   1.66821585   1.75244642   1.7620258
   1.76838283   1.78128611   1.79399377   1.81959235   1.8274164
   1.84232118   1.84845647   1.87275212   1.88345985   1.93663543
   1.93929802   1.95501967   1.97349163   1.98892055   2.03841854
   2.50702649   2.52517205   2.5530371    2.55508862   2.61397303
   2.61806594   2.62548761   2.6544352    2.69774979   2.72296083
   2.76414565   2.77777526   2.83229586   2.90173171   2.92008569
   2.93562513   2.95369378   2.97930555   2.98240923   3.00692109
   3.02127685   3.03449161   3.04570083   3.05903361   3.09018024
   3.34338758   3.3543564    3.41529751   3.42105245   3.44913118
   3.72017711   3.74369435   3.79259104   3.81517031   3.8213725
   3.87086164   3.90658092   3.99522763   4.02794159   4.05985778]
E1 = -909.6445760237692  E_coul = 336.7805573890952
cycle= 3 E= -380.167456570478  delta_E= -0.0378  |g|= 0.0687  |ddm|= 0.305
    CPU time for cycle= 3      0.30 sec, wall time      0.04 sec
diis-norm(errvec)=0.127839
diis-c [-0.00767938 -0.02630987  0.06447179  0.96183808]
  HOMO = -0.44347160517433  LUMO = 0.161168397296416
  mo_energy =
[-20.59085019 -20.58401836 -20.53920828 -20.52411133 -20.50018067
  -1.38001131  -1.36905341  -1.32787814  -1.30928468  -1.28743621
  -0.73864034  -0.73023915  -0.71995264  -0.67641251  -0.6675256
  -0.61048739  -0.59696144  -0.55790241  -0.55203743  -0.52645496
  -0.51547837  -0.50829051  -0.48593835  -0.46450309  -0.44347161
   0.1611684    0.2272003    0.25259072   0.26249132   0.29821697
   0.31450935   0.33861354   0.38727898   0.46227714   0.47396626
   0.94132425   0.95891855   0.9808639    1.02927912   1.04268769
   1.05549786   1.06785207   1.09801332   1.10610904   1.12917372
   1.15346001   1.15798107   1.18859518   1.21316742   1.2272021
   1.24475092   1.25067805   1.27672454   1.3004396    1.33394781
   1.35767001   1.36493046   1.37781981   1.38886384   1.43039978
   1.60189199   1.61895982   1.67922865   1.76369709   1.77364713
   1.78188658   1.7908794    1.80340335   1.8307094    1.83829879
   1.85178921   1.85870478   1.88264941   1.89431162   1.94691086
   1.94751973   1.96409445   1.98259904   1.99776147   2.04803784
   2.51867546   2.53865855   2.56524314   2.56851146   2.62406195
   2.62846447   2.63487041   2.66447968   2.70821356   2.73189295
   2.77762151   2.79223958   2.84455144   2.91380356   2.93146594
   2.94606645   2.96595869   2.98960321   2.99294651   3.01739364
   3.03067088   3.04383837   3.05195266   3.067124     3.09942411
   3.35523771   3.36765545   3.42387759   3.4287753    3.45763832
   3.73639397   3.75974978   3.80644907   3.82724911   3.83412341
   3.88431327   3.92093833   4.00748836   4.03865515   4.0689761 ]
E1 = -909.2658260818689  E_coul = 336.40071256747706
cycle= 4 E= -380.168551450196  delta_E= -0.00109  |g|= 0.0115  |ddm|= 0.0459
    CPU time for cycle= 4      0.29 sec, wall time      0.04 sec
diis-norm(errvec)=0.0235823
diis-c [-1.50206337e-04 -9.11041374e-03 -3.95091533e-02 -1.64981385e-01
  1.21360095e+00]
  HOMO = -0.444998378690837  LUMO = 0.161396104471807
  mo_energy =
[-20.5913465  -20.58420011 -20.53990307 -20.52878378 -20.50200556
  -1.38018245  -1.36897087  -1.32854852  -1.31133036  -1.28840112
  -0.73800276  -0.72937411  -0.72004254  -0.67748069  -0.66765463
  -0.61050299  -0.59696938  -0.55834585  -0.55319679  -0.52736572
  -0.51642473  -0.50912465  -0.48710394  -0.4670174   -0.44499838
   0.1613961    0.22729162   0.25257425   0.26253758   0.29844557
   0.31454061   0.33929698   0.38714348   0.46254224   0.4740619
   0.94135043   0.95909717   0.98078756   1.02907388   1.04240654
   1.05523478   1.06790739   1.09768002   1.10614942   1.12869337
   1.15279967   1.15740354   1.18800082   1.2127595    1.22650408
   1.24476041   1.24998466   1.27670759   1.29991806   1.33343019
   1.35728466   1.36455919   1.37751833   1.38883514   1.4300265
   1.60142932   1.61853842   1.67861679   1.76386224   1.77380312
   1.78233914   1.79071141   1.80326221   1.83041139   1.837468
   1.85157376   1.85821845   1.88234227   1.89427927   1.94607595
   1.94702593   1.96354869   1.98225078   1.99755757   2.04777725
   2.51918471   2.5394108    2.56565279   2.56912881   2.62371998
   2.62783617   2.63466843   2.66457484   2.70797699   2.73174871
   2.77824086   2.79299738   2.84389198   2.91436136   2.93171913
   2.94656718   2.96670441   2.9895692    2.99331177   3.01711165
   3.03044967   3.04360821   3.05193619   3.06704846   3.09947012
   3.35595892   3.36864505   3.42369707   3.42857417   3.45772563
   3.73705844   3.7604288    3.80585735   3.82711696   3.8339997
   3.88507019   3.92183328   4.00673307   4.03878279   4.069224  ]
E1 = -909.2766946179953  E_coul = 336.4115220692941
cycle= 5 E= -380.168610484505  delta_E= -5.9e-05  |g|= 0.0023  |ddm|= 0.015
    CPU time for cycle= 5      0.30 sec, wall time      0.04 sec
diis-norm(errvec)=0.00418655
diis-c [-1.20904515e-05  1.47357396e-03  3.51133863e-03 -9.07256490e-03
 -1.00778049e-01  1.10486570e+00]
  HOMO = -0.445186292466954  LUMO = 0.161340157232304
  mo_energy =
[-20.59185395 -20.58472681 -20.54096697 -20.5267857  -20.50198502
  -1.38044527  -1.36923647  -1.3289959   -1.31076589  -1.28849221
  -0.73804904  -0.72943308  -0.72034626  -0.67695005  -0.66770938
  -0.61082992  -0.59715023  -0.55876203  -0.5530287   -0.52780134
  -0.51650998  -0.50932275  -0.48766636  -0.46663568  -0.44518629
   0.16134016   0.22719975   0.25250537   0.26254292   0.29845499
   0.31449673   0.33927338   0.38720222   0.46240517   0.47379911
   0.94116456   0.95895679   0.98063507   1.02888754   1.04228291
   1.05494655   1.06781116   1.09761714   1.10603819   1.12862246
   1.15265268   1.15720736   1.18777884   1.21253831   1.22638896
   1.2445583    1.24987975   1.27652824   1.29983111   1.33351753
   1.35716892   1.36454266   1.37737146   1.38864177   1.4300201
   1.60130579   1.61848736   1.67861426   1.76359348   1.77358444
   1.78210699   1.79058819   1.80301248   1.83036923   1.8375668
   1.851287     1.85818943   1.88214288   1.89407495   1.94613753
   1.94681655   1.96349088   1.98208674   1.99734472   2.04767803
   2.51903966   2.53927371   2.56542884   2.56892438   2.623715
   2.62793082   2.63456272   2.6644594    2.70784687   2.73144045
   2.77803774   2.79279561   2.84409893   2.91418732   2.93155665
   2.94640278   2.96652479   2.98939793   2.99323913   3.01721188
   3.03041845   3.04356394   3.0516098    3.06691098   3.09911418
   3.35579685   3.36848749   3.42359395   3.42846936   3.45758263
   3.73689591   3.76026886   3.80598732   3.8269149    3.83388587
   3.88484104   3.92162119   4.00703017   4.03862548   4.06878362]
E1 = -909.2743257566511  E_coul = 336.4091511702505
cycle= 6 E= -380.168612522205  delta_E= -2.04e-06  |g|= 0.00101  |ddm|= 0.00299
    CPU time for cycle= 6      0.30 sec, wall time      0.04 sec
diis-norm(errvec)=0.00175993
diis-c [-9.06635448e-07  1.20241370e-03  4.55316551e-03  9.69567325e-03
 -1.27989193e-01  2.91703736e-01  8.20834205e-01]
  HOMO = -0.445231458097254  LUMO = 0.16135505617235
  mo_energy =
[-20.59153978 -20.58436376 -20.54046248 -20.52762398 -20.50193191
  -1.38035989  -1.36912047  -1.32885921  -1.31105723  -1.28848722
  -0.73794078  -0.72929197  -0.72023659  -0.6771324   -0.66766989
  -0.61073769  -0.59708242  -0.55867352  -0.55319419  -0.52775226
  -0.51656447  -0.50933207  -0.48756497  -0.46696001  -0.44523146
   0.16135506   0.22721584   0.2525161    0.26253395   0.29845725
   0.31450674   0.33931437   0.38715876   0.46242158   0.4738332
   0.94116794   0.95896499   0.98063143   1.02889103   1.0422668
   1.05498417   1.06781367   1.09758034   1.10604562   1.1285957
   1.15263086   1.15720727   1.18778139   1.21256263   1.22634806
   1.24460855   1.24984923   1.27658649   1.29979519   1.33344255
   1.35718298   1.36450637   1.37739427   1.3886892    1.4299966
   1.6013117    1.6184884    1.67857462   1.76364177   1.77362493
   1.7821743    1.79058313   1.80305083   1.83033157   1.83745367
   1.85134214   1.85813861   1.88216683   1.89412043   1.94606101
   1.9468082    1.96345892   1.98209738   1.99736754   2.04766957
   2.51905304   2.53930488   2.56546814   2.56897916   2.62365644
   2.62781386   2.63452929   2.66445519   2.70784233   2.73149544
   2.7780799    2.79285646   2.84394171   2.9142117    2.93157071
   2.94642612   2.9665694    2.98942215   2.99324025   3.01710657
   3.03038164   3.04353131   3.05163538   3.06689291   3.09917551
   3.35582463   3.36853571   3.42355614   3.4284265    3.45758153
   3.73694881   3.76032079   3.80587862   3.82694373   3.8338851
   3.88489756   3.92169165   4.00683628   4.03862989   4.06886179]
E1 = -909.2727309191648  E_coul = 336.40755606521134
cycle= 7 E= -380.168612789757  delta_E= -2.68e-07  |g|= 0.000182  |ddm|= 0.000926
    CPU time for cycle= 7      0.29 sec, wall time      0.04 sec
diis-norm(errvec)=0.000338597
diis-c [-2.73332958e-08 -2.04939727e-04 -5.51140380e-04 -1.11793438e-03
  1.94402886e-02 -1.09976611e-01 -7.67222200e-02  1.16913256e+00]
  HOMO = -0.445240360072805  LUMO = 0.161357041398149
  mo_energy =
[-20.5915402  -20.58438745 -20.54046618 -20.52751743 -20.50190263
  -1.38036133  -1.36912638  -1.32886573  -1.31103178  -1.28848358
  -0.73792643  -0.72927845  -0.72023317  -0.67710177  -0.6676624
  -0.61074004  -0.59708465  -0.55868464  -0.55318913  -0.52776617
  -0.51656987  -0.50934195  -0.48758595  -0.46695165  -0.44524036
   0.16135704   0.22721757   0.25251614   0.262539     0.29846606
   0.31451019   0.33932445   0.38716799   0.4624281    0.47384096
   0.94117424   0.95897199   0.98063732   1.02889543   1.04227189
   1.05498098   1.06781965   1.09758607   1.10605005   1.12859858
   1.15262887   1.15720793   1.18777896   1.21256165   1.22635053
   1.24460872   1.24985104   1.2765897    1.29980086   1.33345503
   1.3571877    1.36451865   1.37739909   1.38869203   1.43000648
   1.60131834   1.61849384   1.67858348   1.76364341   1.77362645
   1.78217523   1.79058627   1.80305099   1.83033637   1.83746217
   1.85133893   1.85814382   1.88216782   1.89412026   1.94606905
   1.94681029   1.96346327   1.98209917   1.99737034   2.04767203
   2.51905877   2.53931533   2.56547127   2.56898248   2.62366077
   2.6278244    2.63453613   2.66446104   2.70784557   2.73149005
   2.77808564   2.79286239   2.84395732   2.91421706   2.93157654
   2.94643227   2.96657684   2.98941654   2.99324723   3.01711753
   3.0303847    3.04353518   3.05164401   3.06689908   3.09917825
   3.35583196   3.36854574   3.42356287   3.42843334   3.4575868
   3.73695518   3.76032903   3.80589128   3.8269452    3.83389128
   3.88490522   3.92169727   4.00685552   4.03863702   4.06887003]
E1 = -909.2723879427725  E_coul = 336.4072130746149
cycle= 8 E= -380.168612803962  delta_E= -1.42e-08  |g|= 2.58e-05  |ddm|= 0.00027
    CPU time for cycle= 8      0.30 sec, wall time      0.04 sec
diis-norm(errvec)=4.71441e-05
diis-c [-1.36512071e-09 -3.72598152e-05 -1.36185774e-04 -3.36333654e-04
  3.97612976e-03 -9.83556084e-03 -2.40928328e-02  1.02639850e-03
  1.02943564e+00]
  HOMO = -0.445239965800944  LUMO = 0.161357633254543
  mo_energy =
[-20.59153903 -20.58436583 -20.540471   -20.52751653 -20.50190037
  -1.38036004  -1.36911925  -1.32886793  -1.31103144  -1.28848279
  -0.73792342  -0.7292712   -0.72023344  -0.67709958  -0.66765937
  -0.61074066  -0.59707934  -0.55868583  -0.55318762  -0.52776668
  -0.51656733  -0.5093394   -0.48758845  -0.4669527   -0.44523997
   0.16135763   0.2272183    0.25251667   0.26253972   0.29846696
   0.31451088   0.33932605   0.38716898   0.46242899   0.47383913
   0.94117382   0.95897296   0.98063771   1.02889501   1.04227227
   1.0549802    1.06782077   1.09758583   1.10605138   1.12859947
   1.15262973   1.15720686   1.18777831   1.21256251   1.22635066
   1.24461138   1.24985211   1.27659159   1.2998009    1.33345703
   1.35718892   1.36451947   1.37739937   1.38869559   1.43000792
   1.60131795   1.61849635   1.67858431   1.76364345   1.7736277
   1.78217891   1.79058724   1.80305074   1.83033797   1.83746223
   1.85133864   1.8581444    1.88216786   1.89412244   1.94606857
   1.946809     1.96346413   1.98209953   1.99737025   2.04767402
   2.51906008   2.53931716   2.56547251   2.56898633   2.62366138
   2.62782438   2.63453586   2.66446191   2.70784658   2.73148994
   2.77808747   2.79286642   2.8439578    2.91421719   2.93157805
   2.94643381   2.96657943   2.98941766   2.99324904   3.01711738
   3.03038559   3.04353564   3.05164122   3.06689908   3.09917662
   3.3558334    3.3685487    3.42356242   3.42843285   3.45758745
   3.7369582    3.76033222   3.80589169   3.82694517   3.83389189
   3.88490674   3.92170164   4.00685606   4.03863801   4.0688671 ]
E1 = -909.272354899286  E_coul = 336.4071800308361
cycle= 9 E= -380.168612804254  delta_E= -2.92e-10  |g|= 9.68e-06  |ddm|= 3.76e-05
    CPU time for cycle= 9      0.30 sec, wall time      0.04 sec
  HOMO = -0.445239466046418  LUMO = 0.161357277802978
  mo_energy =
[-20.59153738 -20.58437722 -20.54046655 -20.52751711 -20.50190033
  -1.38035915  -1.36912282  -1.32886612  -1.31103145  -1.2884826
  -0.73792292  -0.72927409  -0.720232    -0.67709957  -0.66766006
  -0.61073968  -0.59708168  -0.55868447  -0.55318883  -0.52776543
  -0.51656866  -0.50934084  -0.48758642  -0.46695259  -0.44523947
   0.16135728   0.22721814   0.25251661   0.2625396    0.2984666
   0.31451063   0.33932553   0.38716885   0.46242857   0.47383993
   0.94117418   0.95897247   0.98063748   1.0288952    1.0422721
   1.05498091   1.06782035   1.09758553   1.10605057   1.12859908
   1.15262912   1.15720768   1.18777896   1.21256224   1.2263508
   1.24461046   1.249852     1.27659163   1.29980117   1.33345624
   1.35718897   1.36451946   1.37739986   1.38869372   1.43000748
   1.60131862   1.61849519   1.67858405   1.7636441    1.77362794
   1.78217704   1.79058711   1.80305132   1.83033721   1.83746223
   1.85133954   1.85814419   1.88216819   1.89412155   1.94606893
   1.94680988   1.96346395   1.98209966   1.99737067   2.04767311
   2.51906029   2.53931614   2.56547293   2.56898432   2.62366118
   2.62782442   2.63453621   2.6644615    2.70784643   2.73149086
   2.77808768   2.79286451   2.84395762   2.91421747   2.93157746
   2.94643428   2.9665781    2.989418     2.99324824   3.01711703
   3.03038554   3.04353567   3.05164221   3.06689896   3.09917768
   3.35583366   3.3685472    3.42356286   3.42843327   3.45758735
   3.73695755   3.76033109   3.80589161   3.82694573   3.83389182
   3.8849068    3.92169963   4.00685601   4.03863782   4.06886849]
E1 = -909.2723772053754  E_coul = 336.40720233688756
Extra cycle  E= -380.168612804292  delta_E= -3.8e-11  |g|= 5.24e-06  |ddm|= 1.35e-05
    CPU time for scf_cycle      5.14 sec, wall time      0.65 sec
    CPU time for SCF      5.22 sec, wall time      0.68 sec
converged SCF energy = -380.168612804292
