#INFO: **** input file is /home/liwei01/wsr/dftpart/test_2body/w32/gfea_c8.py ****
from dftpart import gfea3
from pyscf import lib

par = 8
with lib.with_omp_threads(par):
    fr0 = gfea3.GFEA()
    fr0.inputstyle = 'frg'
    fr0.method = ['hf', '6-31gss','charge']
    fr0.gjfname = 'w32'
    fr0.output = 'w32'
    fr0.verbose = 9
    fr0.showinter = True
    #fr0.do_deriv = True
    fr0.kernel()

#INFO: ******************** input file end ********************


System: uname_result(system='Linux', node='master', release='3.10.0-693.el7.x86_64', version='#1 SMP Tue Aug 22 21:09:27 UTC 2017', machine='x86_64', processor='x86_64')  Threads 8
Python 3.7.6 (default, Jan  8 2020, 19:59:22) 
[GCC 7.3.0]
numpy 1.18.1  scipy 1.4.1
Date: Tue Jun 16 20:57:59 2020
PySCF version 1.6.1
PySCF path  /home/liwei01/zcheng/pyscf/pyscf
GIT HEAD      ref: refs/heads/master
GIT master branch  3adc7fd25839fe674469a52b764c3661e32d7318

[CONFIG] DEBUG = False
[CONFIG] MAX_MEMORY = 4000
[CONFIG] TMPDIR = .
[CONFIG] UNIT = angstrom
[CONFIG] VERBOSE = 3
[CONFIG] conf_file = None
[INPUT] verbose = 9
[INPUT] max_memory = 4000 
[INPUT] num. atoms = 15
[INPUT] num. electrons = 50
[INPUT] charge = 0
[INPUT] spin (= nelec alpha-beta = 2S) = 0
[INPUT] symmetry False subgroup None
[INPUT] Mole.unit = angstrom
[INPUT]  1 O      9.739714000000 -14.560219000000 -13.084136000000 AA   18.405391991592 -27.514826223689 -24.725433616562 Bohr
[INPUT]  2 O     10.084912000000  -9.602997000000 -13.694410000000 AA   19.057721670340 -18.147034305020 -25.878684337505 Bohr
[INPUT]  3 O      8.451586000000 -10.635579000000 -15.685931000000 AA   15.971182858208 -20.098331486176 -29.642113598825 Bohr
[INPUT]  4 O      8.491932000000 -14.159618000000 -15.711024000000 AA   16.047425748430 -26.757800048462 -29.689532496469 Bohr
[INPUT]  5 O     10.675204000000 -11.925165000000 -15.819193000000 AA   20.173211883861 -22.535295840249 -29.893942281637 Bohr
[INPUT]  6 H      9.436683000000 -13.920876000000 -12.439430000000 AA   17.832746394339 -26.306643054031 -23.507115845698 Bohr
[INPUT]  7 H     10.652707000000 -14.322974000000 -13.246584000000 AA   20.130698715237 -27.066498149266 -25.032415846046 Bohr
[INPUT]  8 H      9.837963000000  -9.877914000000 -14.577398000000 AA   18.591055693604 -18.666552142007 -27.547289828782 Bohr
[INPUT]  9 H      9.267108000000  -9.628370000000 -13.197635000000 AA   17.512296086766 -18.194982325979 -24.939915641974 Bohr
[INPUT] 10 H      8.125035000000 -10.406856000000 -16.556152000000 AA   15.354090902505 -19.666107657787 -31.286592956670 Bohr
[INPUT] 11 H      9.262189000000 -11.116608000000 -15.852568000000 AA   17.503000523959 -21.007344554149 -29.957011891044 Bohr
[INPUT] 12 H      8.843942000000 -15.043720000000 -15.814399000000 AA   16.712628241538 -28.428510694642 -29.884882934596 Bohr
[INPUT] 13 H      8.918348000000 -13.822113000000 -14.923311000000 AA   16.853235203563 -26.120008032790 -28.200970661709 Bohr
[INPUT] 14 H     11.145373000000 -12.259719000000 -15.055487000000 AA   21.061702526122 -23.167511274127 -28.450747101950 Bohr
[INPUT] 15 H     10.769363000000 -12.612255000000 -16.478945000000 AA   20.351146606024 -23.833707763176 -31.140692871771 Bohr
[INPUT] ---------------- BASIS SET ---------------- 
[INPUT] l, kappa, [nprim/nctr], expnt,             c_1 c_2 ...
[INPUT] H
[INPUT] 0    0    [3    /1   ]  18.731137         0.0334946
                                2.8253937         0.23472695
                                0.6401217         0.81375733
[INPUT] 0    0    [1    /1   ]  0.1612778            1
[INPUT] 1    0    [1    /1   ]  1.1                  1
[INPUT] O
[INPUT] 0    0    [6    /1   ]  5484.6717         0.0018311
                                825.23495         0.0139501
                                188.04696         0.0684451
                                52.9645           0.2327143
                                16.89757          0.470193
                                5.7996353         0.3585209
[INPUT] 0    0    [3    /1   ]  15.539616         -0.1107775
                                3.5999336         -0.1480263
                                1.0137618         1.130767
[INPUT] 0    0    [1    /1   ]  0.2700058            1
[INPUT] 1    0    [3    /1   ]  15.539616         0.0708743
                                3.5999336         0.3397528
                                1.0137618         0.7271586
[INPUT] 1    0    [1    /1   ]  0.2700058            1
[INPUT] 2    0    [1    /1   ]  0.8                  1

nuclear repulsion = 198.032213686301
number of shells = 60
number of NR pGTOs = 205
number of NR cGTOs = 120
basis = 6-31gss
ecp = {}
bas 0, expnt(s) = [5484.6717     825.23495    188.04696     52.9645      16.89757
    5.7996353]
bas 1, expnt(s) = [15.539616   3.5999336  1.0137618]
bas 2, expnt(s) = [0.2700058]
bas 3, expnt(s) = [15.539616   3.5999336  1.0137618]
bas 4, expnt(s) = [0.2700058]
bas 5, expnt(s) = [0.8]
bas 6, expnt(s) = [5484.6717     825.23495    188.04696     52.9645      16.89757
    5.7996353]
bas 7, expnt(s) = [15.539616   3.5999336  1.0137618]
bas 8, expnt(s) = [0.2700058]
bas 9, expnt(s) = [15.539616   3.5999336  1.0137618]
bas 10, expnt(s) = [0.2700058]
bas 11, expnt(s) = [0.8]
bas 12, expnt(s) = [5484.6717     825.23495    188.04696     52.9645      16.89757
    5.7996353]
bas 13, expnt(s) = [15.539616   3.5999336  1.0137618]
bas 14, expnt(s) = [0.2700058]
bas 15, expnt(s) = [15.539616   3.5999336  1.0137618]
bas 16, expnt(s) = [0.2700058]
bas 17, expnt(s) = [0.8]
bas 18, expnt(s) = [5484.6717     825.23495    188.04696     52.9645      16.89757
    5.7996353]
bas 19, expnt(s) = [15.539616   3.5999336  1.0137618]
bas 20, expnt(s) = [0.2700058]
bas 21, expnt(s) = [15.539616   3.5999336  1.0137618]
bas 22, expnt(s) = [0.2700058]
bas 23, expnt(s) = [0.8]
bas 24, expnt(s) = [5484.6717     825.23495    188.04696     52.9645      16.89757
    5.7996353]
bas 25, expnt(s) = [15.539616   3.5999336  1.0137618]
bas 26, expnt(s) = [0.2700058]
bas 27, expnt(s) = [15.539616   3.5999336  1.0137618]
bas 28, expnt(s) = [0.2700058]
bas 29, expnt(s) = [0.8]
bas 30, expnt(s) = [18.731137   2.8253937  0.6401217]
bas 31, expnt(s) = [0.1612778]
bas 32, expnt(s) = [1.1]
bas 33, expnt(s) = [18.731137   2.8253937  0.6401217]
bas 34, expnt(s) = [0.1612778]
bas 35, expnt(s) = [1.1]
bas 36, expnt(s) = [18.731137   2.8253937  0.6401217]
bas 37, expnt(s) = [0.1612778]
bas 38, expnt(s) = [1.1]
bas 39, expnt(s) = [18.731137   2.8253937  0.6401217]
bas 40, expnt(s) = [0.1612778]
bas 41, expnt(s) = [1.1]
bas 42, expnt(s) = [18.731137   2.8253937  0.6401217]
bas 43, expnt(s) = [0.1612778]
bas 44, expnt(s) = [1.1]
bas 45, expnt(s) = [18.731137   2.8253937  0.6401217]
bas 46, expnt(s) = [0.1612778]
bas 47, expnt(s) = [1.1]
bas 48, expnt(s) = [18.731137   2.8253937  0.6401217]
bas 49, expnt(s) = [0.1612778]
bas 50, expnt(s) = [1.1]
bas 51, expnt(s) = [18.731137   2.8253937  0.6401217]
bas 52, expnt(s) = [0.1612778]
bas 53, expnt(s) = [1.1]
bas 54, expnt(s) = [18.731137   2.8253937  0.6401217]
bas 55, expnt(s) = [0.1612778]
bas 56, expnt(s) = [1.1]
bas 57, expnt(s) = [18.731137   2.8253937  0.6401217]
bas 58, expnt(s) = [0.1612778]
bas 59, expnt(s) = [1.1]
CPU time:       743.77
arg.atm = [[ 8 20  1 23  0  0]
 [ 8 24  1 27  0  0]
 [ 8 28  1 31  0  0]
 [ 8 32  1 35  0  0]
 [ 8 36  1 39  0  0]
 [ 1 40  1 43  0  0]
 [ 1 44  1 47  0  0]
 [ 1 48  1 51  0  0]
 [ 1 52  1 55  0  0]
 [ 1 56  1 59  0  0]
 [ 1 60  1 63  0  0]
 [ 1 64  1 67  0  0]
 [ 1 68  1 71  0  0]
 [ 1 72  1 75  0  0]
 [ 1 76  1 79  0  0]]
arg.bas = [[  0   0   6   1   0  90  96   0]
 [  0   0   3   1   0 102 105   0]
 [  0   0   1   1   0 108 109   0]
 [  0   1   3   1   0 110 113   0]
 [  0   1   1   1   0 116 117   0]
 [  0   2   1   1   0 118 119   0]
 [  1   0   6   1   0  90  96   0]
 [  1   0   3   1   0 102 105   0]
 [  1   0   1   1   0 108 109   0]
 [  1   1   3   1   0 110 113   0]
 [  1   1   1   1   0 116 117   0]
 [  1   2   1   1   0 118 119   0]
 [  2   0   6   1   0  90  96   0]
 [  2   0   3   1   0 102 105   0]
 [  2   0   1   1   0 108 109   0]
 [  2   1   3   1   0 110 113   0]
 [  2   1   1   1   0 116 117   0]
 [  2   2   1   1   0 118 119   0]
 [  3   0   6   1   0  90  96   0]
 [  3   0   3   1   0 102 105   0]
 [  3   0   1   1   0 108 109   0]
 [  3   1   3   1   0 110 113   0]
 [  3   1   1   1   0 116 117   0]
 [  3   2   1   1   0 118 119   0]
 [  4   0   6   1   0  90  96   0]
 [  4   0   3   1   0 102 105   0]
 [  4   0   1   1   0 108 109   0]
 [  4   1   3   1   0 110 113   0]
 [  4   1   1   1   0 116 117   0]
 [  4   2   1   1   0 118 119   0]
 [  5   0   3   1   0  80  83   0]
 [  5   0   1   1   0  86  87   0]
 [  5   1   1   1   0  88  89   0]
 [  6   0   3   1   0  80  83   0]
 [  6   0   1   1   0  86  87   0]
 [  6   1   1   1   0  88  89   0]
 [  7   0   3   1   0  80  83   0]
 [  7   0   1   1   0  86  87   0]
 [  7   1   1   1   0  88  89   0]
 [  8   0   3   1   0  80  83   0]
 [  8   0   1   1   0  86  87   0]
 [  8   1   1   1   0  88  89   0]
 [  9   0   3   1   0  80  83   0]
 [  9   0   1   1   0  86  87   0]
 [  9   1   1   1   0  88  89   0]
 [ 10   0   3   1   0  80  83   0]
 [ 10   0   1   1   0  86  87   0]
 [ 10   1   1   1   0  88  89   0]
 [ 11   0   3   1   0  80  83   0]
 [ 11   0   1   1   0  86  87   0]
 [ 11   1   1   1   0  88  89   0]
 [ 12   0   3   1   0  80  83   0]
 [ 12   0   1   1   0  86  87   0]
 [ 12   1   1   1   0  88  89   0]
 [ 13   0   3   1   0  80  83   0]
 [ 13   0   1   1   0  86  87   0]
 [ 13   1   1   1   0  88  89   0]
 [ 14   0   3   1   0  80  83   0]
 [ 14   0   1   1   0  86  87   0]
 [ 14   1   1   1   0  88  89   0]]
arg.env = [ 1.37036000e+02  0.00000000e+00  0.00000000e+00  0.00000000e+00
  0.00000000e+00  0.00000000e+00  0.00000000e+00  0.00000000e+00
  0.00000000e+00  0.00000000e+00  0.00000000e+00  0.00000000e+00
  0.00000000e+00  0.00000000e+00  0.00000000e+00  0.00000000e+00
  0.00000000e+00  0.00000000e+00  0.00000000e+00  0.00000000e+00
  1.84053920e+01 -2.75148262e+01 -2.47254336e+01  0.00000000e+00
  1.90577217e+01 -1.81470343e+01 -2.58786843e+01  0.00000000e+00
  1.59711829e+01 -2.00983315e+01 -2.96421136e+01  0.00000000e+00
  1.60474257e+01 -2.67578000e+01 -2.96895325e+01  0.00000000e+00
  2.01732119e+01 -2.25352958e+01 -2.98939423e+01  0.00000000e+00
  1.78327464e+01 -2.63066431e+01 -2.35071158e+01  0.00000000e+00
  2.01306987e+01 -2.70664981e+01 -2.50324158e+01  0.00000000e+00
  1.85910557e+01 -1.86665521e+01 -2.75472898e+01  0.00000000e+00
  1.75122961e+01 -1.81949823e+01 -2.49399156e+01  0.00000000e+00
  1.53540909e+01 -1.96661077e+01 -3.12865930e+01  0.00000000e+00
  1.75030005e+01 -2.10073446e+01 -2.99570119e+01  0.00000000e+00
  1.67126282e+01 -2.84285107e+01 -2.98848829e+01  0.00000000e+00
  1.68532352e+01 -2.61200080e+01 -2.82009707e+01  0.00000000e+00
  2.10617025e+01 -2.31675113e+01 -2.84507471e+01  0.00000000e+00
  2.03511466e+01 -2.38337078e+01 -3.11406929e+01  0.00000000e+00
  1.87311370e+01  2.82539370e+00  6.40121700e-01  7.61926220e-01
  1.29237100e+00  1.47131900e+00  1.61277800e-01  6.42977783e-01
  1.10000000e+00  3.28643653e+00  5.48467170e+03  8.25234950e+02
  1.88046960e+02  5.29645000e+01  1.68975700e+01  5.79963530e+00
  2.94842455e+00  5.42657124e+00  8.78126489e+00  1.15432129e+01
  9.90055015e+00  3.38516599e+00  1.55396160e+01  3.59993360e+00
  1.01376180e+00 -2.19051792e+00 -9.77405528e-01  2.88629094e+00
  2.70005800e-01  9.46334873e-01  1.55396160e+01  3.59993360e+00
  1.01376180e+00  6.37930734e+00  4.91490975e+00  2.15791055e+00
  2.70005800e-01  5.67807022e-01  8.00000000e-01  1.76578110e+00]
ecpbas  = []


******** <class 'pyscf.qmmm.itrf.mm_charge.<locals>.QMMM'> ********
method = QMMM-RHF
initial guess = minao
damping factor = 0
level shift factor = 0
DIIS = <class 'pyscf.scf.diis.CDIIS'>
DIIS start cycle = 1
DIIS space = 8
SCF tol = 1e-09
SCF gradient tol = None
max. SCF cycles = 50
direct_scf = True
direct_scf_tol = 1e-13
chkfile to save SCF result = /home/liwei01/wsr/dftpart/test_2body/w32/tmpwncugr7a
max_memory 4000 MB (current use 328 MB)
** Add background charges for <class 'pyscf.scf.hf.RHF'> **
Charge      Location
-1.056075    [ 15.8591958  -22.32322322 -21.16584533]
0.523264    [ 15.44903263 -23.69303655 -20.05800473]
0.517699    [ 17.48403712 -21.75849557 -20.60647128]
-1.035697    [ 20.23144001 -20.50137794 -19.07019386]
0.520608    [ 21.7723038  -21.39222885 -18.74761761]
0.515624    [ 19.97024207 -19.49608333 -17.58928542]
-1.009926    [ 16.42785407 -26.58707085 -18.04142885]
0.499922    [ 15.53371882 -25.95112132 -16.60336995]
0.507893    [ 16.16245338 -28.37548309 -17.98600129]
-1.024266    [ 13.70105109 -18.63199472 -24.76194313]
0.515186    [ 13.45609723 -19.31578456 -26.41855264]
0.515422    [ 13.87339411 -20.08163576 -23.69387937]
-1.050024    [ 10.52651529 -24.11298283 -20.2839555 ]
0.521386    [  8.7734466  -24.2410798  -19.85703047]
0.506414    [ 11.30765248 -23.44237383 -18.79666545]
-1.032359    [ 13.1641969  -17.47579981 -19.41562257]
0.514165    [ 13.18112696 -18.60438393 -20.82910748]
0.518479    [ 14.52136419 -16.32434621 -19.73837456]
-1.052762    [ 13.11969196 -22.35429031 -15.81898054]
0.521035    [ 14.16458201 -22.84877684 -14.42771692]
0.525545    [ 13.80909996 -20.77345693 -16.36451423]
-0.997115    [ 17.90283445 -15.11249509 -20.63210731]
0.530073    [ 18.89257472 -16.62132612 -20.50652934]
0.49195    [ 18.18557149 -14.25298717 -19.06582671]
-0.992133    [  7.63287216 -21.21078113 -24.19682809]
0.480184    [  8.55071592 -22.76668147 -24.10379498]
0.504586    [  8.37549106 -20.32880248 -25.59058803]
-1.012936    [ 10.55365553 -29.46492154 -21.67488842]
0.504954    [  8.84108934 -29.00412127 -22.03084479]
0.525721    [ 11.34418277 -27.91794449 -21.17105153]
-0.985176    [ 16.63195772 -23.48150439 -12.27810621]
0.500614    [ 17.11266814 -22.20236011 -11.09293235]
0.508291    [ 16.89319913 -25.03868407 -11.39557387]
-0.979947    [ 19.94097588 -17.12125506 -14.67509908]
0.500341    [ 18.95312155 -17.86288753 -13.35371942]
0.493696    [ 19.00620207 -15.6543646  -15.17143564]
-1.011239    [ 14.66303696 -31.18986921 -25.03135193]
0.492592    [ 13.80996545 -30.6346091  -23.53606456]
0.497341    [ 16.13314373 -30.14067248 -25.13086491]
-0.999332    [ 25.43111026 -22.24828235 -18.47023794]
0.512801    [ 26.28398524 -20.77981964 -19.09325419]
0.507583    [ 26.7410892  -23.47726762 -18.25698991]
-1.016163    [ 10.56617686 -29.35403808 -16.44102735]
0.483053    [ 11.92280935 -30.36927076 -15.8079521 ]
0.523726    [ 10.34862781 -29.90290525 -18.15080431]
-0.976012    [ 10.09067452 -21.18806662 -29.24260093]
0.486289    [ 11.11173701 -19.76402949 -29.69146191]
0.496485    [ 10.37375928 -22.38512875 -30.56881072]
-0.977833    [ 24.5589393  -27.80514674 -21.18389789]
0.50587    [ 23.21796885 -28.65180829 -20.31390388]
0.463809    [ 25.76766104 -27.42438582 -19.8931866 ]
-0.989717    [  8.77070649 -15.37911655 -23.94499373]
0.487556    [  8.68859978 -13.74216775 -23.17975481]
0.496916    [ 10.53805395 -15.75730555 -24.01835668]
-0.992057    [ 16.93410036 -32.15697813 -17.52810554]
0.50918    [ 16.39069828 -32.53931319 -15.84570882]
0.510293    [ 15.6895513  -32.92540692 -18.59231236]
-0.998393    [ 24.35861321 -18.31258187 -25.98586582]
0.466984    [ 25.48944989 -18.60606579 -24.60492389]
0.51604    [ 22.70911474 -18.4111103  -25.25008395]
-1.010464    [  9.27281806 -14.9477601  -17.25327322]
0.476424    [  7.6789399  -15.16789619 -18.07972415]
0.517552    [ 10.24747455 -16.38576609 -17.75736144]
-0.991473    [  5.5836248  -24.00414405 -18.66237963]
0.501887    [  5.79022289 -25.52045085 -17.69798247]
0.510487    [  5.17491673 -22.73885336 -17.43603619]
-1.029267    [  7.95719829 -25.19119252 -14.2761212 ]
0.497876    [  9.38018663 -24.0850659  -14.1227926 ]
0.519667    [  8.66153702 -26.76190075 -14.83174226]
-1.001943    [ 16.13613705 -11.83176802 -24.46883904]
0.509813    [ 16.78082846 -12.94299123 -23.1954641 ]
0.477312    [ 17.5304658  -11.57071369 -25.59117007]
-1.019724    [ 21.67798379 -29.0173418  -14.20699124]
0.475311    [ 20.53074618 -29.01816194 -15.60548117]
0.514632    [ 22.50198564 -27.40961194 -14.29731259]
-0.9959    [ 24.21450458 -24.60133719 -13.9203349 ]
0.499354    [ 23.58737251 -23.46499007 -12.66043371]
0.511038    [ 23.91476757 -23.75039163 -15.48812918]
-1.001922    [ 21.40011279 -32.14724982 -20.33868764]
0.487648    [ 22.14106118 -33.75675602 -19.97480576]
0.509505    [ 19.73399418 -32.24696878 -19.64152988]
Set gradient conv threshold to 3.16228e-05
Nelec from initial guess = 49.944707208501065
cond(S) = 205.66496266663552
E1 = -911.5453279579029  E_coul = 334.3901484946934
init E= -379.437746981507
    CPU time for initialize scf      2.21 sec, wall time      0.28 sec
  HOMO = -0.453190902951646  LUMO = 0.0744339773008072
  mo_energy =
[-20.82254974 -20.80894668 -20.79873642 -20.79322946 -20.7870935
  -1.68503141  -1.63173568  -1.61431689  -1.59867215  -1.59361297
  -0.8130316   -0.75527515  -0.74547728  -0.7434808   -0.73326938
  -0.64488039  -0.60637378  -0.59825665  -0.57672284  -0.55573596
  -0.49854198  -0.48036879  -0.47740251  -0.47038083  -0.4531909
   0.07443398   0.12609809   0.17302359   0.18089473   0.19999589
   0.24178642   0.27239949   0.29228879   0.29932869   0.37112902
   0.84728007   0.88664756   0.9289002    0.94443268   0.94910411
   0.97307429   0.97900381   0.98892623   1.00652076   1.01725651
   1.03845311   1.0557172    1.06388814   1.09609329   1.11172505
   1.13075089   1.15236415   1.17874643   1.19273707   1.20807239
   1.23531459   1.27003787   1.29259062   1.30075269   1.31830961
   1.49546085   1.51921984   1.57324714   1.60728638   1.6853225
   1.69860853   1.70644917   1.72881593   1.72912918   1.73449374
   1.73545761   1.75515679   1.78203925   1.80113643   1.81404842
   1.82105894   1.82833773   1.88079998   1.89475528   1.92499833
   2.47977215   2.48533853   2.51090482   2.51815413   2.52692203
   2.57391249   2.58914918   2.59523182   2.60234468   2.64498953
   2.73012674   2.7338958    2.74723302   2.75390062   2.8726074
   2.89144408   2.91314516   2.92247396   2.93321741   2.93656872
   2.95290846   2.95472389   2.98427324   2.9968381    3.02337075
   3.31397029   3.33430064   3.34020358   3.35057823   3.39664469
   3.700843     3.71464694   3.72072612   3.74302019   3.75682486
   3.83738132   3.86511816   3.88917591   3.9180156    4.01553417]
E1 = -923.8904960284704  E_coul = 346.1666267472947
cycle= 1 E= -380.006436799473  delta_E= -0.569  |g|= 0.957  |ddm|= 2.65
    CPU time for cycle= 1      0.30 sec, wall time      0.04 sec
diis-norm(errvec)=1.71287
diis-c [-2.93393363  1.        ]
  HOMO = -0.36873440996039  LUMO = 0.155095425190388
  mo_energy =
[-20.43195597 -20.36933347 -20.30129972 -20.2802504  -20.25510034
  -1.34540558  -1.31350009  -1.26071624  -1.23704325  -1.2155491
  -0.71835123  -0.69152577  -0.67526811  -0.62259043  -0.59701454
  -0.55939447  -0.54305822  -0.4980405   -0.47652373  -0.47107944
  -0.44861866  -0.43606806  -0.39648608  -0.38125356  -0.36873441
   0.15509543   0.22779393   0.25680755   0.26990798   0.30108698
   0.32832537   0.34516274   0.40239151   0.45450051   0.52058576
   0.95942487   0.9789792    0.98571104   1.04745684   1.06518918
   1.07383734   1.10026604   1.12079362   1.1257615    1.16809685
   1.17519254   1.21323288   1.2246769    1.25689712   1.26070317
   1.3068597    1.31024353   1.33541944   1.36338307   1.36892134
   1.38403411   1.42171597   1.43511713   1.45395678   1.48418118
   1.6366532    1.64125147   1.72936513   1.74824256   1.78312483
   1.80033788   1.82095352   1.83404065   1.86613121   1.86681443
   1.87682174   1.90534043   1.91792211   1.9328778    1.9830677
   1.99308427   2.00975721   2.03543383   2.06230101   2.0858305
   2.50467707   2.53508065   2.57255402   2.58951441   2.62298187
   2.62710246   2.6747549    2.67614549   2.71049924   2.77008505
   2.79922796   2.80713292   2.87578619   2.90130553   2.91578258
   2.94995481   2.96582562   2.99062187   3.002169     3.03187224
   3.05451746   3.05766199   3.069408     3.0946562    3.15309235
   3.35170801   3.36205634   3.43406522   3.44525848   3.51797551
   3.72607673   3.75099195   3.82707087   3.85322851   3.86720691
   3.91621734   3.94549427   4.04748458   4.06936009   4.17207828]
E1 = -916.3479344067752  E_coul = 338.4875019383044
cycle= 2 E= -380.142999986769  delta_E= -0.137  |g|= 0.461  |ddm|= 0.767
    CPU time for cycle= 2      0.31 sec, wall time      0.04 sec
diis-norm(errvec)=0.77241
diis-c [-0.14413173  0.28710532  0.71289468]
  HOMO = -0.46396369946068  LUMO = 0.156399639597239
  mo_energy =
[-20.61682516 -20.61672005 -20.57025785 -20.55756688 -20.54089829
  -1.39269315  -1.37953927  -1.3433323   -1.31985028  -1.30563983
  -0.75082555  -0.73995975  -0.7357682   -0.68523047  -0.66799616
  -0.6217472   -0.61585797  -0.57265566  -0.55806927  -0.54252529
  -0.53548619  -0.51951268  -0.48761477  -0.47185251  -0.4639637
   0.15639964   0.22291123   0.24858282   0.26412158   0.29445129
   0.31597714   0.33832567   0.38323021   0.42305956   0.49000011
   0.9382904    0.95500061   0.9717887    1.02417811   1.04108484
   1.05474122   1.07566156   1.08615277   1.09041866   1.12073239
   1.1301354    1.14562508   1.17056386   1.1946465    1.20062617
   1.23826278   1.26042536   1.27428729   1.30280208   1.31434928
   1.33470494   1.36848014   1.38321484   1.38993166   1.42482437
   1.59035241   1.59783143   1.68514438   1.69693078   1.76359083
   1.77162568   1.78044789   1.79195114   1.82090648   1.82310049
   1.83072435   1.85761673   1.87167927   1.88743831   1.92695754
   1.94043729   1.95169282   1.97973726   2.01235639   2.02445
   2.51036586   2.54813693   2.55382844   2.55487201   2.61710622
   2.62062824   2.6258929    2.64857232   2.66789954   2.73138544
   2.77436068   2.78058176   2.83784316   2.8559636    2.9048573
   2.94204851   2.9500038    2.97643322   2.98154597   3.01041054
   3.02802062   3.03338952   3.03604573   3.06201442   3.10927196
   3.34697494   3.35015708   3.40089706   3.41948552   3.48436261
   3.71272011   3.73971232   3.79448659   3.81271447   3.83180566
   3.88430371   3.91041025   3.9935848    4.01404731   4.11717663]
E1 = -919.6699689066875  E_coul = 341.77250153703835
cycle= 3 E= -380.180034887947  delta_E= -0.037  |g|= 0.0673  |ddm|= 0.301
    CPU time for cycle= 3      0.30 sec, wall time      0.04 sec
diis-norm(errvec)=0.124658
diis-c [-0.00738835 -0.02780027  0.05971446  0.96808581]
  HOMO = -0.454722169671778  LUMO = 0.16367354836459
  mo_energy =
[-20.59010738 -20.57884766 -20.54104409 -20.52049942 -20.50984605
  -1.37968405  -1.36272212  -1.33204418  -1.30550545  -1.29393996
  -0.73809576  -0.72602133  -0.7244878   -0.67259557  -0.65781312
  -0.61251618  -0.60329192  -0.56411967  -0.54683735  -0.53415522
  -0.52617842  -0.5071909   -0.47939094  -0.46046791  -0.45472217
   0.16367355   0.22924259   0.25458635   0.27087091   0.30148427
   0.32102362   0.34631908   0.39050602   0.42857046   0.49574993
   0.94609189   0.96293704   0.98226764   1.03179083   1.04992295
   1.06696398   1.08572543   1.09611831   1.10006542   1.12966893
   1.13912092   1.15291787   1.18044231   1.20399953   1.20890146
   1.24551993   1.27154845   1.28245042   1.31209048   1.32395878
   1.34437138   1.37872535   1.39277972   1.39884451   1.43230506
   1.60162047   1.60840224   1.69684541   1.70622106   1.77567787
   1.78553571   1.7897589    1.80217294   1.83013374   1.83432284
   1.84135634   1.8669613    1.88261346   1.89837584   1.93549953
   1.95103562   1.96022205   1.98940506   2.02156493   2.03195737
   2.5213359    2.56131317   2.56592289   2.56793549   2.62706233
   2.63068477   2.63680014   2.65743121   2.67659001   2.74109666
   2.78822921   2.79416996   2.84999163   2.86551713   2.91606107
   2.95287601   2.96250876   2.98530421   2.99363436   3.02128085
   3.03644697   3.04128921   3.04545011   3.06889789   3.118375
   3.35843461   3.36277588   3.408421     3.42919729   3.49194514
   3.72921488   3.75491242   3.80823862   3.82476602   3.84380277
   3.89784679   3.92456997   4.00515976   4.02445971   4.12629904]
E1 = -919.2953245845268  E_coul = 341.3968121879923
cycle= 4 E= -380.181079914832  delta_E= -0.00105  |g|= 0.0112  |ddm|= 0.0441
    CPU time for cycle= 4      0.29 sec, wall time      0.04 sec
diis-norm(errvec)=0.023076
diis-c [-1.53950123e-04 -8.70061880e-03 -3.81141745e-02 -1.58060896e-01
  1.20487569e+00]
  HOMO = -0.455610973975944  LUMO = 0.163587793676454
  mo_energy =
[-20.59074488 -20.58271669 -20.54094371 -20.52430638 -20.51046867
  -1.37990864  -1.36411326  -1.33231299  -1.30723377  -1.29449089
  -0.73760535  -0.72588583  -0.72490987  -0.67346489  -0.65786825
  -0.61247617  -0.60420605  -0.56432399  -0.54824336  -0.5345181
  -0.52697801  -0.50921858  -0.48031057  -0.46264796  -0.45561097
   0.16358779   0.2292303    0.25465083   0.27086048   0.30159364
   0.32088059   0.34650911   0.39026987   0.42876244   0.4958273
   0.9460412    0.96265224   0.98208432   1.03166987   1.04990648
   1.06662696   1.08536919   1.0957236    1.09961074   1.12905384
   1.13887068   1.15260712   1.17947188   1.20327273   1.20831048
   1.24504548   1.27121321   1.2823241    1.31134054   1.32353105
   1.34402022   1.37831415   1.39239822   1.39858833   1.4320097
   1.60079611   1.6080042    1.69616098   1.70600739   1.77581614
   1.78503087   1.78983539   1.80198812   1.83000362   1.83365965
   1.84063311   1.86682138   1.88209762   1.89793371   1.93533208
   1.95015877   1.96005223   1.98876365   2.02129308   2.03179113
   2.52178129   2.56138609   2.56612136   2.56763368   2.62692392
   2.63042006   2.63619034   2.65728817   2.67653908   2.74131906
   2.78830997   2.79432144   2.84941919   2.86556342   2.91657381
   2.95330719   2.96250853   2.98557004   2.9934848    3.02102081
   3.03643992   3.04121394   3.04497911   3.068949     3.11856044
   3.35903215   3.36290577   3.40864522   3.4288065    3.49202528
   3.72914255   3.75514464   3.80779371   3.82465078   3.84404709
   3.89816109   3.92467602   4.00471077   4.02452682   4.12661146]
E1 = -919.3089555029492  E_coul = 341.4103868646299
cycle= 5 E= -380.181136156617  delta_E= -5.62e-05  |g|= 0.00244  |ddm|= 0.0148
    CPU time for cycle= 5      0.30 sec, wall time      0.04 sec
diis-norm(errvec)=0.00446215
diis-c [-1.43190697e-05  1.13166788e-03  2.00134079e-03 -1.67940472e-02
 -5.96686347e-02  1.07332967e+00]
  HOMO = -0.456168424585955  LUMO = 0.163607869233358
  mo_energy =
[-20.59118555 -20.58093933 -20.54233673 -20.52308362 -20.51151194
  -1.38013581  -1.36356243  -1.33283483  -1.30688898  -1.29495
  -0.73761982  -0.72617989  -0.7243761   -0.67307453  -0.6581451
  -0.61281272  -0.60373602  -0.56477229  -0.54794574  -0.53499828
  -0.52740089  -0.50888336  -0.48098623  -0.46246336  -0.45616842
   0.16360787   0.22919023   0.25459519   0.27091848   0.30165686
   0.3207449    0.34658288   0.39036627   0.42853416   0.49557307
   0.9458128    0.96252815   0.98219586   1.0314356    1.04968888
   1.06668893   1.08532058   1.09571747   1.09951281   1.12912883
   1.13854216   1.15235926   1.17953707   1.20330595   1.20809176
   1.24464437   1.27142763   1.28209662   1.31138001   1.32361187
   1.34394008   1.37811471   1.39237799   1.39843108   1.43165916
   1.60091519   1.60799025   1.69632028   1.70567569   1.77566948
   1.78525732   1.78953165   1.80182285   1.82970988   1.83383712
   1.84065295   1.8664811    1.88211195   1.89794336   1.93497586
   1.95031304   1.95968877   1.98880753   2.02113206   2.03141024
   2.5216369    2.56147143   2.56602408   2.56783298   2.6268451
   2.63041275   2.63626919   2.65691645   2.67626709   2.74098595
   2.78838692   2.79435002   2.84955468   2.86520244   2.91641785
   2.95318717   2.96270199   2.98533071   2.99362353   3.02110032
   3.03615589   3.04093997   3.04503849   3.06863558   3.11820111
   3.35891771   3.36307055   3.40832744   3.42889066   3.49170866
   3.72930841   3.75512993   3.80783765   3.824387     3.84373479
   3.89815426   3.92482433   4.00477095   4.02426319   4.12618475]
E1 = -919.3062972314283  E_coul = 341.4077263439008
cycle= 6 E= -380.181138405825  delta_E= -2.25e-06  |g|= 0.00107  |ddm|= 0.00315
    CPU time for cycle= 6      0.29 sec, wall time      0.04 sec
diis-norm(errvec)=0.00188542
diis-c [-9.60561820e-07  1.23784169e-03  4.81994266e-03  1.02277862e-02
 -1.36081007e-01  2.65478336e-01  8.54317100e-01]
  HOMO = -0.456067782644125  LUMO = 0.163605371298969
  mo_energy =
[-20.59090292 -20.58154459 -20.54169899 -20.52349612 -20.51102861
  -1.38005515  -1.36375939  -1.33265368  -1.30704992  -1.29481087
  -0.73751358  -0.72604587  -0.72447304  -0.67316153  -0.65800233
  -0.61270893  -0.60393859  -0.56465514  -0.54814058  -0.53489688
  -0.5273433   -0.50912724  -0.48085716  -0.46267047  -0.45606778
   0.16360537   0.22919495   0.25461185   0.27089971   0.30164437
   0.32075997   0.34658615   0.39032736   0.42858669   0.49561408
   0.94583427   0.96251807   0.98213923   1.03146249   1.04973011
   1.06663856   1.08529442   1.09567089   1.09950554   1.12904904
   1.13859118   1.15239501   1.17944606   1.2032258    1.20810478
   1.24471221   1.27135382   1.28216701   1.31130542   1.32356164
   1.34394893   1.37813806   1.3923712    1.39846313   1.43174362
   1.6008591    1.60798766   1.69623505   1.7057594    1.77569576
   1.78516002   1.78959405   1.80184965   1.82976503   1.83373088
   1.84059002   1.86654756   1.88207129   1.89790925   1.93505934
   1.95020837   1.95977084   1.98875135   2.02114733   2.03150092
   2.52165782   2.56143701   2.56603106   2.56773583   2.62681896
   2.63037007   2.63618239   2.65697997   2.67629699   2.74106463
   2.78834154   2.79431876   2.84945494   2.865268     2.91645243
   2.95320841   2.96262118   2.98538298   2.9935645    3.02102522
   3.03618908   3.04097541   3.04497691   3.06868051   3.11827764
   3.35894125   3.3630038    3.40838095   3.42880893   3.4917539
   3.72925122   3.75513043   3.8077852    3.82442856   3.84380706
   3.89813865   3.92475662   4.00469694   4.02430227   4.12628053]
E1 = -919.3048482960997  E_coul = 341.40627708602455
cycle= 7 E= -380.181138728373  delta_E= -3.23e-07  |g|= 0.000184  |ddm|= 0.00107
    CPU time for cycle= 7      0.30 sec, wall time      0.04 sec
diis-norm(errvec)=0.000344545
diis-c [-2.58708963e-08 -2.10500699e-04 -5.71856169e-04 -1.08793178e-03
  2.05150884e-02 -1.04348294e-01 -1.09155182e-01  1.19485868e+00]
  HOMO = -0.456089551463055  LUMO = 0.163609399050689
  mo_energy =
[-20.5908916  -20.58145003 -20.5417163  -20.523444   -20.51103503
  -1.38005061  -1.36372839  -1.33265888  -1.30704152  -1.29481983
  -0.73749321  -0.72603772  -0.72443408  -0.6731433   -0.6579969
  -0.612708    -0.60391436  -0.56466328  -0.54813425  -0.53491359
  -0.52735264  -0.50911933  -0.48088334  -0.4626768   -0.45608955
   0.1636094    0.22920094   0.25461721   0.27090504   0.301656
   0.32075625   0.34659733   0.39033607   0.42859327   0.49562363
   0.94584143   0.96252271   0.98215602   1.03146592   1.04973178
   1.06665142   1.08530133   1.09568097   1.09950983   1.12905705
   1.13858357   1.15239231   1.17945258   1.20323591   1.208104
   1.24470398   1.27137836   1.28216904   1.31131229   1.32357661
   1.34395584   1.37814238   1.39238276   1.39846973   1.43173976
   1.60086926   1.6079999    1.69624768   1.70575968   1.77570241
   1.78517957   1.78959736   1.80185674   1.82976326   1.83374156
   1.84059158   1.86654432   1.88207945   1.89791962   1.93505981
   1.95021445   1.95976601   1.98875918   2.02115285   2.03149649
   2.52166817   2.56145311   2.56604159   2.56775619   2.62682612
   2.6303723    2.63618867   2.65697646   2.67629747   2.74106587
   2.78836022   2.79433576   2.84946218   2.8652668    2.91646163
   2.95321694   2.96264147   2.98538585   2.99357814   3.02102876
   3.03618304   3.04097567   3.04498146   3.06869037   3.11828337
   3.35895336   3.3630249    3.40838606   3.4288128    3.49175582
   3.72927201   3.75514434   3.80779107   3.82442808   3.84381467
   3.89815594   3.92477837   4.00470344   4.02430568   4.12628807]
E1 = -919.3044644768046  E_coul = 341.40589325149904
cycle= 8 E= -380.181138743603  delta_E= -1.52e-08  |g|= 2.27e-05  |ddm|= 0.000293
    CPU time for cycle= 8      0.30 sec, wall time      0.04 sec
diis-norm(errvec)=4.18567e-05
diis-c [-1.03894435e-09 -2.71997875e-05 -1.04906660e-04 -2.74092158e-04
  3.11821411e-03 -4.68968981e-03 -1.90922542e-02 -3.08354118e-02
  1.05190534e+00]
  HOMO = -0.456089840574766  LUMO = 0.16361071817343
  mo_energy =
[-20.59089071 -20.58145201 -20.54170818 -20.5234343  -20.51103426
  -1.38004855  -1.36372827  -1.33265719  -1.30703766  -1.29481993
  -0.73748982  -0.72603543  -0.72443252  -0.67313885  -0.65799565
  -0.61270666  -0.60391444  -0.56466146  -0.54813274  -0.53491314
  -0.52735126  -0.50911895  -0.48088217  -0.46267393  -0.45608984
   0.16361072   0.22920166   0.25461803   0.27090604   0.30165645
   0.32075653   0.34659875   0.39033782   0.42859283   0.49562356
   0.94584175   0.96252372   0.98215657   1.03146655   1.04973287
   1.06665192   1.08530182   1.0956818    1.09951074   1.12905774
   1.13858356   1.15239335   1.1794533    1.20323623   1.2081044
   1.2447047    1.27137903   1.28217167   1.31131349   1.32357783
   1.34395793   1.3781435    1.39238409   1.39847102   1.43174024
   1.60087084   1.60800079   1.69624914   1.70575966   1.77570459
   1.78517999   1.78959801   1.80185742   1.82976413   1.83374292
   1.84059345   1.86654451   1.88208058   1.89792036   1.93506029
   1.95021667   1.9597662    1.98876021   2.02115372   2.03149696
   2.52167014   2.56145422   2.56604342   2.56775677   2.62682725
   2.63037382   2.63619063   2.65697611   2.67629735   2.74106767
   2.78836158   2.79433741   2.84946472   2.86526674   2.91646337
   2.95321956   2.96264213   2.98538689   2.99357943   3.02103007
   3.03618334   3.04097535   3.04498338   3.06868971   3.11828386
   3.35895569   3.36302583   3.40838644   3.42881503   3.49175569
   3.72927342   3.75514672   3.80779321   3.82442854   3.84381526
   3.89815734   3.92477956   4.00470578   4.02430629   4.1262882 ]
E1 = -919.3044556140334  E_coul = 341.40588438847817
cycle= 9 E= -380.181138743853  delta_E= -2.5e-10  |g|= 7.54e-06  |ddm|= 3.54e-05
    CPU time for cycle= 9      0.31 sec, wall time      0.04 sec
  HOMO = -0.456089111417631  LUMO = 0.163610860143353
  mo_energy =
[-20.5908877  -20.58144974 -20.54171094 -20.52343869 -20.51103313
  -1.38004725  -1.3637273   -1.33265749  -1.30703886  -1.29481937
  -0.73748882  -0.72603519  -0.72443185  -0.67313975  -0.65799515
  -0.61270619  -0.60391377  -0.56466109  -0.54813331  -0.53491274
  -0.52735011  -0.50911849  -0.48088246  -0.46267492  -0.45608911
   0.16361086   0.22920183   0.2546181    0.27090586   0.30165651
   0.32075651   0.34659889   0.39033781   0.42859328   0.49562418
   0.94584225   0.96252385   0.98215678   1.03146669   1.04973277
   1.06665205   1.08530208   1.09568193   1.09951094   1.12905783
   1.13858368   1.15239346   1.17945345   1.20323641   1.20810458
   1.24470452   1.27137963   1.28217154   1.31131349   1.32357807
   1.34395791   1.37814406   1.39238428   1.39847096   1.43174039
   1.60087086   1.60800138   1.69624913   1.70576017   1.77570542
   1.78518053   1.78959856   1.80185802   1.82976419   1.83374287
   1.84059297   1.86654494   1.88208071   1.89792072   1.93506052
   1.95021614   1.9597666    1.98876035   2.02115416   2.03149722
   2.52167048   2.56145441   2.5660442    2.56775726   2.62682723
   2.63037367   2.63619021   2.65697652   2.67629754   2.74106747
   2.78836215   2.79433803   2.84946404   2.8652671    2.91646377
   2.95322011   2.9626425    2.9853868    2.99357953   3.02102937
   3.03618339   3.0409757    3.04498332   3.06869034   3.11828423
   3.35895621   3.36302615   3.40838669   3.42881455   3.49175605
   3.72927385   3.7551472    3.80779257   3.82442849   3.84381528
   3.89815795   3.92478009   4.00470524   4.02430661   4.12628863]
E1 = -919.3044644255361  E_coul = 341.4058931999536
Extra cycle  E= -380.18113874388  delta_E= -2.74e-11  |g|= 3.69e-06  |ddm|= 1.07e-05
    CPU time for scf_cycle      5.20 sec, wall time      0.66 sec
    CPU time for SCF      5.24 sec, wall time      0.67 sec
converged SCF energy = -380.18113874388
