Atom number=6                                                           
SP        RHF                                                         6-31G(d,p)          
Number of atoms                            I                6
Info1-9                                    I   N=           9
         107         106           0           0           0         111
           1           1           2
Full Title                                 C   N=           2
Atom number=6           
Route                                      C   N=           4
#p hf/6-31g** 5d 7f pop=npa charge nosymm       
Charge                                     I                0
Multiplicity                               I                1
Number of electrons                        I               20
Number of alpha electrons                  I               10
Number of beta electrons                   I               10
Number of basis functions                  I               48
Number of independent functions            I               48
Number of point charges in /Mol/           I                0
Number of translation vectors              I                0
Atomic numbers                             I   N=           6
           8           8           1           1           1           1
Nuclear charges                            R   N=           6
  8.00000000E+00  8.00000000E+00  1.00000000E+00  1.00000000E+00  1.00000000E+00
  1.00000000E+00
Current cartesian coordinates              R   N=          18
  1.05265153E+01 -2.41129828E+01 -2.02839555E+01  1.31196920E+01 -2.23542903E+01
 -1.58189805E+01  8.77344660E+00 -2.42410798E+01 -1.98570305E+01  1.13076525E+01
 -2.34423738E+01 -1.87966655E+01  1.41645820E+01 -2.28487768E+01 -1.44277169E+01
  1.38091000E+01 -2.07734569E+01 -1.63645142E+01
Number of symbols in /Mol/                 I                0
Force Field                                I                0
Atom Types                                 C   N=           6
                                                            
            
Int Atom Types                             I   N=           6
           0           0           0           0           0           0
MM charges                                 R   N=           6
  0.00000000E+00  0.00000000E+00  0.00000000E+00  0.00000000E+00  0.00000000E+00
  0.00000000E+00
Integer atomic weights                     I   N=           6
          16          16           1           1           1           1
Real atomic weights                        R   N=           6
  1.59949146E+01  1.59949146E+01  1.00782504E+00  1.00782504E+00  1.00782504E+00
  1.00782504E+00
Atom fragment info                         I   N=           6
           0           0           0           0           0           0
Atom residue num                           I   N=           6
           0           0           0           0           0           0
Nuclear spins                              I   N=           6
           0           0           1           1           1           1
Nuclear ZEff                               R   N=           6
 -5.60000000E+00 -5.60000000E+00 -1.00000000E+00 -1.00000000E+00 -1.00000000E+00
 -1.00000000E+00
Nuclear ZNuc                               R   N=           6
  8.00000000E+00  8.00000000E+00  1.00000000E+00  1.00000000E+00  1.00000000E+00
  1.00000000E+00
Nuclear QMom                               R   N=           6
  0.00000000E+00  0.00000000E+00  0.00000000E+00  0.00000000E+00  0.00000000E+00
  0.00000000E+00
Nuclear GFac                               R   N=           6
  0.00000000E+00  0.00000000E+00  2.79284600E+00  2.79284600E+00  2.79284600E+00
  2.79284600E+00
MicOpt                                     I   N=           6
          -1          -1          -1          -1          -1          -1
Number of residues                         I                0
Number of secondary structures             I                0
Number of contracted shells                I               20
Number of primitive shells                 I               42
Pure/Cartesian d shells                    I                0
Pure/Cartesian f shells                    I                0
Highest angular momentum                   I                2
Largest degree of contraction              I                6
Shell types                                I   N=          20
           0          -1          -1          -2           0          -1
          -1          -2           0           0           1           0
           0           1           0           0           1           0
           0           1
Number of primitives per shell             I   N=          20
           6           3           1           1           6           3
           1           1           3           1           1           3
           1           1           3           1           1           3
           1           1
Shell to atom map                          I   N=          20
           1           1           1           1           2           2
           2           2           3           3           3           4
           4           4           5           5           5           6
           6           6
Primitive exponents                        R   N=          42
  5.48467166E+03  8.25234946E+02  1.88046958E+02  5.29645000E+01  1.68975704E+01
  5.79963534E+00  1.55396162E+01  3.59993359E+00  1.01376175E+00  2.70005823E-01
  8.00000000E-01  5.48467166E+03  8.25234946E+02  1.88046958E+02  5.29645000E+01
  1.68975704E+01  5.79963534E+00  1.55396162E+01  3.59993359E+00  1.01376175E+00
  2.70005823E-01  8.00000000E-01  1.87311370E+01  2.82539436E+00  6.40121692E-01
  1.61277759E-01  1.10000000E+00  1.87311370E+01  2.82539436E+00  6.40121692E-01
  1.61277759E-01  1.10000000E+00  1.87311370E+01  2.82539436E+00  6.40121692E-01
  1.61277759E-01  1.10000000E+00  1.87311370E+01  2.82539436E+00  6.40121692E-01
  1.61277759E-01  1.10000000E+00
Contraction coefficients                   R   N=          42
  1.83107443E-03  1.39501722E-02  6.84450781E-02  2.32714336E-01  4.70192898E-01
  3.58520853E-01 -1.10777550E-01 -1.48026263E-01  1.13076702E+00  1.00000000E+00
  1.00000000E+00  1.83107443E-03  1.39501722E-02  6.84450781E-02  2.32714336E-01
  4.70192898E-01  3.58520853E-01 -1.10777550E-01 -1.48026263E-01  1.13076702E+00
  1.00000000E+00  1.00000000E+00  3.34946043E-02  2.34726953E-01  8.13757326E-01
  1.00000000E+00  1.00000000E+00  3.34946043E-02  2.34726953E-01  8.13757326E-01
  1.00000000E+00  1.00000000E+00  3.34946043E-02  2.34726953E-01  8.13757326E-01
  1.00000000E+00  1.00000000E+00  3.34946043E-02  2.34726953E-01  8.13757326E-01
  1.00000000E+00  1.00000000E+00
P(S=P) Contraction coefficients            R   N=          42
  0.00000000E+00  0.00000000E+00  0.00000000E+00  0.00000000E+00  0.00000000E+00
  0.00000000E+00  7.08742682E-02  3.39752839E-01  7.27158577E-01  1.00000000E+00
  0.00000000E+00  0.00000000E+00  0.00000000E+00  0.00000000E+00  0.00000000E+00
  0.00000000E+00  0.00000000E+00  7.08742682E-02  3.39752839E-01  7.27158577E-01
  1.00000000E+00  0.00000000E+00  0.00000000E+00  0.00000000E+00  0.00000000E+00
  0.00000000E+00  0.00000000E+00  0.00000000E+00  0.00000000E+00  0.00000000E+00
  0.00000000E+00  0.00000000E+00  0.00000000E+00  0.00000000E+00  0.00000000E+00
  0.00000000E+00  0.00000000E+00  0.00000000E+00  0.00000000E+00  0.00000000E+00
  0.00000000E+00  0.00000000E+00
Coordinates of each shell                  R   N=          60
  1.05265153E+01 -2.41129828E+01 -2.02839555E+01  1.05265153E+01 -2.41129828E+01
 -2.02839555E+01  1.05265153E+01 -2.41129828E+01 -2.02839555E+01  1.05265153E+01
 -2.41129828E+01 -2.02839555E+01  1.31196920E+01 -2.23542903E+01 -1.58189805E+01
  1.31196920E+01 -2.23542903E+01 -1.58189805E+01  1.31196920E+01 -2.23542903E+01
 -1.58189805E+01  1.31196920E+01 -2.23542903E+01 -1.58189805E+01  8.77344660E+00
 -2.42410798E+01 -1.98570305E+01  8.77344660E+00 -2.42410798E+01 -1.98570305E+01
  8.77344660E+00 -2.42410798E+01 -1.98570305E+01  1.13076525E+01 -2.34423738E+01
 -1.87966655E+01  1.13076525E+01 -2.34423738E+01 -1.87966655E+01  1.13076525E+01
 -2.34423738E+01 -1.87966655E+01  1.41645820E+01 -2.28487768E+01 -1.44277169E+01
  1.41645820E+01 -2.28487768E+01 -1.44277169E+01  1.41645820E+01 -2.28487768E+01
 -1.44277169E+01  1.38091000E+01 -2.07734569E+01 -1.63645142E+01  1.38091000E+01
 -2.07734569E+01 -1.63645142E+01  1.38091000E+01 -2.07734569E+01 -1.63645142E+01
Num ILSW                                   I              100
ILSW                                       I   N=         100
           0           0           0           0           2           0
           0           0           0           0           0          -1
           5           0           0           0           0           0
           0           0           0           0           0           0
           1           1           0           0           0           0
           0           0      100000           0          -1           0
           0           0           0           0           0           0
           0           0           0           1           0           0
           0 -2000000000           1           0           0           0
           0           0           4          52           0           0
           0           1           0           0           0           0
           0           0           0           6           0           1
           0           0           0           0           0           0
           0           0           0           0           0           0
           0           0           0           0           0           0
           0           0           0           0           0           0
           0           0           0           0
Num RLSW                                   I               52
RLSW                                       R   N=          52
  1.00000000E+00  1.00000000E+00  1.00000000E+00  1.00000000E+00  1.00000000E+00
  0.00000000E+00  0.00000000E+00  1.00000000E+00  0.00000000E+00  0.00000000E+00
  0.00000000E+00  0.00000000E+00  1.00000000E+00  0.00000000E+00  0.00000000E+00
  0.00000000E+00  0.00000000E+00  1.00000000E+00  0.00000000E+00  0.00000000E+00
  0.00000000E+00  0.00000000E+00  1.00000000E+00  0.00000000E+00  0.00000000E+00
  0.00000000E+00  0.00000000E+00  1.00000000E+00  0.00000000E+00  0.00000000E+00
  0.00000000E+00  0.00000000E+00  1.00000000E+00  0.00000000E+00  0.00000000E+00
  0.00000000E+00  0.00000000E+00  0.00000000E+00  1.00000000E+00  1.00000000E+00
  0.00000000E+00  1.00000000E+00  0.00000000E+00  0.00000000E+00  0.00000000E+00
  0.00000000E+00  0.00000000E+00  0.00000000E+00  0.00000000E+00  0.00000000E+00
  0.00000000E+00  0.00000000E+00
MxBond                                     I                2
NBond                                      I   N=           6
           2           2           1           1           1           1
IBond                                      I   N=          12
           3           4           5           6           1           0
           1           0           2           0           2           0
RBond                                      R   N=          12
  1.00000000E+00  1.00000000E+00  1.00000000E+00  1.00000000E+00  1.00000000E+00
  0.00000000E+00  1.00000000E+00  0.00000000E+00  1.00000000E+00  0.00000000E+00
  1.00000000E+00  0.00000000E+00
Virial Ratio                               R      2.097571370953559E+00
SCF Energy                                 R     -1.666184309549489E+02
Total Energy                               R     -1.666184309549489E+02
RMS Density                                R      3.153875447129237E-09
Job Status                                 I                1
Nuclear derivative order                   I                0
External E-field                           R   N=          35
  0.00000000E+00  0.00000000E+00  0.00000000E+00  0.00000000E+00  0.00000000E+00
  0.00000000E+00  0.00000000E+00  0.00000000E+00  0.00000000E+00  0.00000000E+00
  0.00000000E+00  0.00000000E+00  0.00000000E+00  0.00000000E+00  0.00000000E+00
  0.00000000E+00  0.00000000E+00  0.00000000E+00  0.00000000E+00  0.00000000E+00
  0.00000000E+00  0.00000000E+00  0.00000000E+00  0.00000000E+00  0.00000000E+00
  0.00000000E+00  0.00000000E+00  0.00000000E+00  0.00000000E+00  0.00000000E+00
  0.00000000E+00  0.00000000E+00  0.00000000E+00  0.00000000E+00  0.00000000E+00
IOpCl                                      I                0
IROHF                                      I                0
Alpha Orbital Energies                     R   N=          48
 -2.05980729E+01 -2.05233808E+01 -1.38266024E+00 -1.30900720E+00 -7.43435861E-01
 -6.81844815E-01 -6.13333197E-01 -5.46131907E-01 -5.38611908E-01 -4.70919863E-01
  2.03572453E-01  3.13692867E-01  3.16629201E-01  4.42292715E-01  9.79000512E-01
  1.04063191E+00  1.07600890E+00  1.11140925E+00  1.12670609E+00  1.18643479E+00
  1.20958147E+00  1.24212038E+00  1.34769591E+00  1.38564768E+00  1.56209470E+00
  1.74913718E+00  1.77472131E+00  1.80924948E+00  1.83748431E+00  1.87363214E+00
  1.94877936E+00  1.98063219E+00  2.53847395E+00  2.55551980E+00  2.62465846E+00
  2.71849001E+00  2.78200326E+00  2.88576974E+00  2.95563224E+00  2.96704391E+00
  3.02176959E+00  3.03318631E+00  3.36459656E+00  3.42076646E+00  3.73401631E+00
  3.81383358E+00  3.91011066E+00  4.00492473E+00
Alpha MO coefficients                      R   N=        2304
  9.60034571E-05  3.00966164E-04  4.38066763E-05  3.07526288E-05  3.81011666E-05
 -1.04020194E-03 -3.89520416E-04 -2.60157996E-04 -4.95447876E-04 -6.80920275E-05
 -8.04131797E-05 -6.45541107E-05 -7.44016815E-06 -3.31496597E-05  9.95697333E-01
  2.21143360E-02  1.51552463E-03  8.80183469E-04  6.65560370E-04 -6.01060640E-03
 -3.82368310E-04 -3.14804961E-04  1.42107015E-04  1.32464669E-05  2.35395268E-04
 -3.73681211E-04 -1.09585518E-04  6.33577017E-05  5.97946553E-05 -2.93853721E-04
 -1.56554702E-05  9.31217818E-06  2.22854937E-05  1.35203292E-04  1.43503946E-03
  9.18946621E-06 -3.54356009E-05 -3.41605812E-05 -6.84976442E-04  1.06951327E-03
  7.26611243E-04 -3.11012588E-04  9.15901661E-04 -4.49749241E-04  1.08279727E-03
  4.49788638E-04  9.97306971E-04 -3.57370362E-04  9.95719340E-01  2.23107386E-02
 -8.01311200E-04  3.94028692E-04  1.76751084E-03 -7.12618525E-03 -6.96694697E-05
 -4.94153913E-04 -1.41474518E-03 -8.05971850E-05  2.50792908E-06  9.05247000E-05
  3.38024490E-04  1.17738917E-04 -7.56852549E-05  2.41923386E-04 -1.09390984E-04
 -6.45906672E-05 -1.47823806E-04 -3.05728639E-04  6.13641566E-04  2.11682568E-04
  8.55095328E-04 -3.41382712E-05  5.05279717E-06 -5.81362737E-05  2.85037895E-05
 -5.30023322E-05 -4.50519336E-04  9.04310206E-04 -1.11233051E-03 -4.70638238E-05
  3.62647248E-04 -3.51903747E-04  2.90720329E-03  3.75936899E-04  3.56254193E-04
  8.25215352E-04 -2.44688194E-04 -3.06418862E-04  3.10510582E-05 -7.19242916E-05
  4.83767477E-05  9.85580561E-05 -2.50285079E-04 -5.25342179E-05  8.32038536E-06
 -9.76300983E-05 -1.31345822E-02  2.77696536E-02 -2.82150318E-04  1.95589068E-03
  6.37835909E-03  2.84158164E-02  1.52281102E-03  9.56115609E-04  3.99568356E-03
  4.88053508E-04  3.57970855E-04  3.87296322E-04  4.79999855E-05  1.56630798E-04
 -2.12678014E-01  4.68631184E-01  6.29496969E-02  3.66256463E-02  2.99077038E-02
  4.49951734E-01  2.27806923E-02  7.96156212E-03  1.00948098E-02 -1.58277497E-04
  2.94360839E-03 -5.52535221E-04  2.98294973E-04  2.37401803E-03  7.51332566E-03
  1.45589524E-03  1.64620353E-03  1.14340736E-04 -2.80821368E-04  1.44871329E-02
 -8.37974828E-04 -7.75798203E-04 -5.37907555E-04 -1.08057167E-03  1.40224979E-01
  6.57374772E-03 -1.45511367E-02  8.83440142E-03 -2.07658846E-02  1.40939002E-01
  7.78348538E-03 -7.88812564E-03 -2.31539806E-02  1.02145194E-02 -2.12644120E-01
  4.66783637E-01 -3.33443629E-02  1.56434441E-02  7.08958542E-02  4.54202333E-01
 -9.75983933E-03 -2.00887587E-03  2.77871861E-02  1.81292572E-03 -5.04870264E-04
  2.10504926E-03  1.37274518E-03  8.05177811E-04  1.47228246E-02 -3.35738694E-02
 -7.87366312E-03 -4.81298153E-03 -6.87865142E-03 -3.03464134E-02 -5.79203839E-03
 -3.34407850E-03 -6.39403875E-03  5.06080634E-04  1.61432569E-04  4.25150607E-04
  8.31484967E-06 -4.08969736E-05  1.38581302E-01  5.99850507E-03  2.65550638E-02
  1.80590768E-03 -4.07823512E-03  1.42446224E-01  4.10502665E-03 -1.31309540E-02
 -9.51020337E-03 -2.04142448E-02 -1.17557480E-02  1.26395674E-04  1.21898784E-03
 -6.57306370E-04  1.68610131E-03 -1.11952962E-02  1.19010690E-03  5.68319193E-04
  1.57144223E-03 -6.34103881E-04  4.44620253E-03 -1.09125695E-02  4.34180374E-02
  2.10921058E-02  2.72574283E-02 -1.31602584E-02  2.57680141E-02  1.51484958E-02
  1.71336437E-02  2.13150282E-03  2.11221569E-03  1.70010307E-03 -1.37897026E-03
  2.14257096E-04 -1.50445607E-03  5.33523058E-03 -6.73872912E-02  3.59272068E-01
 -3.49142931E-01  2.80789441E-03 -3.95337685E-02  2.12464917E-01 -2.08728899E-01
 -1.29663129E-02 -1.83557111E-02 -6.74977428E-04 -1.33737514E-02  1.69614149E-02
 -2.38337333E-02 -7.84037397E-03 -2.23618035E-03  4.22048121E-04  1.40945949E-03
  3.16777946E-02  1.07862641E-02 -4.96302025E-04 -6.40998392E-04 -2.59789535E-03
 -2.31958935E-01 -1.03148082E-01  1.76418427E-02  1.22073608E-03  1.58212744E-02
  2.28707338E-01  9.96435502E-02 -1.21367523E-02 -1.76717481E-02  1.41341375E-03
  8.93618656E-03 -1.82649580E-02  3.87608554E-01  1.33447090E-01  1.93150880E-01
 -4.39779006E-02  2.27742390E-01  8.08904931E-02  1.14848736E-01  1.74831535E-02
  1.75365257E-02  9.05088328E-03 -1.13308521E-02  1.49338435E-04 -1.79935568E-02
  4.09070017E-02 -1.30232967E-01 -1.72537261E-01 -6.75431757E-02  8.07470006E-02
 -9.09721354E-02 -1.19364166E-01 -5.43447623E-02  5.34121863E-03 -1.76749463E-03
 -6.48370148E-04  5.15546036E-04 -8.15966457E-03 -1.97755696E-01 -8.37039709E-02
 -1.73386306E-02  3.32686195E-03  1.08517582E-02  2.21720540E-01  1.17243554E-01
 -1.64598185E-03 -7.84157505E-03 -1.81396609E-02 -2.69299484E-02 -4.76996159E-03
 -4.98346721E-04 -6.08727310E-03  2.05109798E-03 -8.74413930E-02 -3.83495573E-02
  5.47129917E-04  6.15279051E-03 -6.01187268E-03 -2.11963113E-02  4.72027525E-02
  2.43753774E-01  4.02948159E-02 -9.01112121E-03  9.60347067E-02  1.60421340E-01
  2.68696695E-02 -9.97614217E-03  4.22163874E-03  1.17380841E-02  3.04625913E-03
 -7.36064060E-03  3.10973896E-04  5.90180529E-02 -1.38881719E-01  4.01036868E-01
  2.23423091E-01  1.88820480E-01 -2.52738188E-01  2.91604166E-01  1.64229136E-01
  1.30608682E-01 -5.82779647E-03  1.32588022E-02  2.92386627E-03  7.18464076E-03
  1.38888641E-02 -1.21655743E-01 -5.35114708E-02 -1.04279907E-02  1.03468746E-03
  3.45316766E-03  5.86005604E-02 -1.11818205E-02  2.51287111E-03 -2.49084153E-03
 -9.17620337E-03  1.34386252E-01  5.99372526E-02 -7.64394309E-04  1.16164971E-02
 -9.96746042E-03  1.17743567E-01  6.45958150E-02  5.44667863E-03 -9.06109938E-03
  1.14434672E-02  4.47806716E-02 -1.05451517E-01 -1.96293605E-01  1.00009200E-01
  3.14389512E-01 -1.84647335E-01 -1.38935580E-01  8.03654363E-02  2.36017465E-01
  1.11136275E-02 -1.05985000E-02  5.65109811E-03  6.30122328E-03 -4.82310152E-04
  1.45665490E-02 -3.72672503E-02  3.49563633E-01 -1.74735644E-01 -2.36790302E-01
 -5.74198302E-02  2.69833918E-01 -1.40401696E-01 -1.95689739E-01 -8.13749500E-03
 -4.03149637E-04 -5.96128060E-03  1.34069730E-02  4.88431703E-05  1.10242877E-01
  4.29460294E-02  1.03054268E-02  2.43970736E-03  4.79461636E-03  8.66278841E-02
  3.08289564E-02 -9.44816433E-03 -2.06974366E-03 -8.15818541E-04  2.88111211E-02
  1.95312152E-02  8.03982733E-03 -4.18826220E-03 -1.03533525E-02  1.75952283E-02
  1.13263299E-02  9.63971268E-03 -7.68481863E-03 -5.93252096E-03  3.98086592E-02
 -9.30555587E-02 -1.32338673E-01  1.46172027E-01  3.42293443E-01 -1.65344395E-01
 -1.04208030E-01  1.17100674E-01  2.56778104E-01  1.36397774E-02 -9.01827229E-03
  8.18147529E-03  4.17403151E-03 -1.02432071E-03  1.30330539E-02 -2.99890347E-02
 -1.98131846E-01  2.52319689E-01  3.23850607E-01 -5.92458380E-02 -1.69210045E-01
  2.00235842E-01  2.51801638E-01  7.36238132E-03  8.60569205E-03  8.46963948E-03
 -9.55894919E-03  5.65091242E-03  7.70869648E-02  2.89302195E-02  7.76729156E-03
  3.58977219E-03  6.66775257E-03  1.14279759E-01  2.75228484E-02 -1.19084382E-02
 -2.03036302E-03 -3.88986940E-03  3.10393244E-02  1.74662832E-02 -8.33832022E-03
  8.87449552E-03  6.43010464E-03  1.77383154E-02  1.34440871E-02 -6.55930656E-03
  5.00191132E-03  1.07331885E-02 -7.68738235E-03  2.62495600E-02 -8.56764007E-02
  5.71615893E-01 -2.46583493E-01  1.99599308E-02 -7.00017954E-02  4.67660188E-01
 -1.93738854E-01 -1.05534479E-02  9.75909547E-04  1.90531472E-02  2.33622664E-04
 -8.50567336E-03 -2.06651784E-03  5.66619687E-03  1.43201889E-03 -2.19583890E-02
 -1.46470262E-02  6.19387873E-03  5.58074810E-05 -1.07172369E-02 -1.52596885E-02
  4.47911063E-05 -7.97035146E-04 -1.37845076E-03  4.31781207E-04 -8.50394057E-04
 -9.18518873E-04 -1.52434905E-02 -3.20055164E-03  1.62009014E-02 -7.08628248E-03
 -6.53973342E-03 -1.10300252E-02 -1.63167598E-03  1.80228310E-02 -5.94922922E-03
  9.44131555E-04 -6.88632715E-04 -1.15954554E-04 -9.56340341E-04 -6.61552667E-04
 -9.23366656E-03  1.93482231E-03  5.85591470E-04  1.67061470E-04 -8.07796386E-04
 -2.48690104E-02  4.25690345E-02  1.64290773E-02  3.04409621E-02  7.53316112E-02
  2.86897855E-01  4.80540544E-03  5.29957934E-02  1.34775544E-01  3.56185303E-03
 -1.20399082E-03  2.07671746E-03  1.80827950E-03 -4.07287802E-04 -9.08507961E-02
  1.34711556E-01  1.39773976E-01  8.51263331E-02  5.27334575E-02  1.15813897E+00
  3.18372900E-01  2.43068256E-01  9.21781773E-02 -5.18753796E-03  5.77094274E-03
 -5.92082283E-03 -2.83733000E-03  1.17593674E-02 -1.30550451E-02 -1.47108841E-01
 -2.44088864E-03  7.40792238E-04  1.85288953E-03 -1.57080055E-02 -3.26021132E-01
  1.44117468E-03 -3.30380758E-04  1.22602564E-03 -5.15189940E-02 -8.68443514E-01
  3.79274969E-03 -2.66387086E-03  4.27628017E-03 -6.99344626E-02 -9.97445463E-01
  4.10641751E-03  1.10275109E-02 -3.87516595E-03 -1.73293312E-02  2.70929478E-02
 -2.01040055E-02  4.93866726E-04  3.92808281E-02  2.27199611E-01 -4.29190313E-02
  2.28046498E-02  7.96392628E-02  1.74795930E-05 -1.99275073E-03  7.28570293E-04
  1.21325927E-03  8.08661472E-04 -3.71326263E-03  1.83463158E-02  2.49316068E-02
 -2.55286780E-01  2.06961627E-01 -8.49380286E-03  7.97317121E-02 -6.00179103E-01
  5.23119923E-01  8.06967909E-03  9.52949304E-03 -3.98273328E-04  8.17847254E-03
 -1.21240166E-02 -9.67056705E-03 -2.05035388E-01 -1.41191007E-03 -2.16680755E-04
  5.94462984E-04 -2.54593825E-02 -1.83652870E-01  2.83235130E-04 -1.50459075E-03
 -2.85486948E-04 -7.70534181E-02 -1.33481288E+00  4.72952941E-03 -5.52096251E-03
  7.17997886E-03  7.39856614E-02  1.38408989E+00  1.96856586E-04 -8.22080937E-03
  5.92958870E-03  8.64283407E-02 -1.30677008E-01  1.39624995E-01 -4.23684557E-03
 -1.29933777E-01 -1.15682997E+00  3.22693938E-01 -8.39434268E-02 -3.49818882E-01
 -6.57334683E-03  5.21376425E-03 -7.55678702E-03 -1.14013525E-02 -3.10322076E-03
 -6.19027022E-03 -1.80771395E-02  1.01878170E-01  2.66522506E-02  1.19654385E-01
  2.63583199E-01  1.83263526E-01  1.55977718E-02  2.33742497E-01  4.74101642E-03
  1.43622258E-02  2.69235099E-03  6.30483224E-03  1.51498124E-03  7.26820440E-02
  1.19259522E+00  1.20133732E-02  4.17022928E-04  4.18509110E-04  5.09447160E-02
  7.80507713E-01 -5.40773448E-03 -2.80692590E-03 -9.53555964E-03 -1.14889531E-04
 -5.66414073E-01  5.16269460E-03  2.39191717E-03  5.96910154E-03 -2.10536994E-02
 -7.12705012E-02 -5.22567677E-04 -1.28527089E-03 -1.24576060E-04  2.28218831E-02
 -4.30329494E-02 -2.94851283E-01 -1.08078518E-01 -1.59995966E-01 -3.05964396E-01
 -6.89291962E-01 -2.63175263E-01 -4.11312639E-01 -9.75038408E-03 -8.78498671E-03
 -5.80774783E-03  3.32367216E-03 -7.03803367E-04  1.55012117E-02 -8.13523480E-02
  1.12962095E-01  9.70263835E-02  1.27078140E-01  1.24949480E-01  1.96064918E-01
  1.42186944E-01  2.03628216E-01  1.13725926E-02  2.30226803E-02  7.60598336E-03
  8.98199038E-03  1.46981324E-03 -6.79281133E-02 -1.19573789E+00 -5.00762790E-03
  1.30784936E-03 -1.69702612E-03  9.94481110E-02  1.75287806E+00 -7.50391421E-03
 -2.42016242E-03 -3.19209751E-03  4.69153405E-02 -3.23661820E-01  6.53447335E-03
  7.17782161E-03  9.18479377E-03 -5.49946463E-02 -2.56143416E-01 -3.63654971E-03
 -2.51785266E-03 -2.10969056E-03  4.16286328E-03 -3.66418777E-02 -4.94607406E-02
  8.85247310E-02 -6.57733264E-02 -8.79530921E-03 -7.23618541E-02 -1.17950705E-01
  1.33088601E-03  2.43389318E-02  2.07167571E-02  6.34881190E-03 -1.77530741E-02
 -1.41156573E-03  9.82248734E-03 -7.33224681E-02  1.51393392E-01  6.30128245E-02
  1.83960648E-01 -1.02267081E-02 -1.04672908E-01 -4.31744337E-01  1.49345436E-01
 -1.16393960E-01 -1.54413669E-01  2.04859483E-03 -1.13495498E-01  1.29197180E-01
 -1.35233590E-01  3.20603540E-02  1.10824587E-02  6.86214043E-03 -8.85646714E-03
  8.52511626E-02  7.46079661E-02 -1.06829695E-02 -1.74688777E-02  1.58440477E-02
 -7.34342917E-01  6.10489192E-01 -8.61542274E-02  3.46921716E-03 -8.23540692E-02
  7.39317117E-01 -5.34331692E-01  6.16163638E-02  5.32283946E-02  2.23684326E-02
 -3.81143906E-03  2.63509944E-02  2.35596236E-02 -3.61919847E-02 -4.18101142E-02
  7.02901696E-02 -4.27390574E-01 -9.13686774E-02 -1.21685680E-01  1.27272713E-01
  1.40744523E-01  8.85105622E-02 -8.85133578E-02  3.39558859E-02  1.34747116E-02
 -9.80491135E-02  2.53133579E-02 -1.75359730E-01 -6.97409460E-02  1.52658064E-01
 -2.11818299E-01  1.60409519E-01 -1.51731109E-01  1.20408268E-02  6.19077654E-02
 -6.89584605E-02 -2.26142462E-02  2.20233226E-02 -6.47683912E-01  4.82847557E-01
  4.00539502E-02 -1.31266018E-02 -5.42929515E-02  7.70686814E-01 -7.16502183E-01
  5.54771337E-03  3.90510227E-02  9.27704274E-02  3.72456017E-01 -1.31270041E-01
  1.57086657E-02 -3.26020897E-02  2.74584332E-02  1.86399538E-01 -1.34997557E-01
  1.78390456E-02  6.15375403E-02 -3.18301708E-02  1.11629916E-02 -8.08725567E-02
 -2.43145029E-03  2.95449607E-02 -8.40994186E-02  7.75392357E-02  1.67004633E-01
  6.94189611E-03  1.03263754E-01 -3.75336231E-02 -3.01943446E-02 -9.39707794E-03
  6.82867824E-02  6.17804150E-03  4.21074183E-02 -3.21164044E-01 -4.24190113E-01
 -5.00420937E-02  8.63719808E-02  5.26292453E-01  3.14248227E-01 -4.49416880E-02
 -1.35937070E-01 -1.32085877E-04  9.38591329E-02 -1.89857744E-01 -9.61027737E-02
  7.17710594E-02  3.50614026E-01 -2.59130764E-01 -4.42110458E-02 -4.63062416E-04
  1.39848715E-02 -1.26331104E-01  1.38314342E-01  3.41695217E-02  1.09679330E-03
  4.41583300E-03  5.43830718E-01 -4.64998519E-01  3.97564573E-02 -8.90368703E-02
  1.20085453E-01  6.89696431E-01 -6.76212483E-01  2.87098340E-02  1.61105030E-01
 -8.58301090E-02 -1.80463992E-02  1.13736061E-01 -7.66094690E-02  8.17275636E-02
  1.66713888E-01 -3.02787878E-01  2.46221780E-03 -6.58100009E-02 -8.52821138E-02
 -3.05206203E-02 -8.44526986E-02 -8.21264548E-02 -9.41490216E-02 -6.77434268E-02
  2.90463198E-02 -1.82348016E-01  4.37115007E-01 -2.21834333E-01 -4.85483456E-01
  1.41811296E-01 -4.72692804E-01  1.51259791E-01  6.47434121E-01  6.18365385E-03
  4.00781427E-02 -7.64958603E-02 -2.83667205E-02  6.54280060E-03 -2.92503222E-01
  1.07093283E-01  7.88694139E-02  2.76389480E-02  3.17813601E-02 -5.47420338E-01
  7.45490611E-01 -1.09382447E-01 -4.13139767E-02 -7.99093873E-02  2.16579429E-01
 -3.12286328E-01  3.35557941E-02 -3.92875254E-02  5.03986351E-02  3.02317641E-01
 -1.53342511E-01 -6.10799840E-03  8.40448618E-03 -3.77883450E-02  7.14044205E-04
  5.38642065E-03 -3.41975523E-01  3.09792928E-01  4.22347701E-01 -3.80757063E-01
  2.14054144E-01 -3.57023910E-01 -4.72264000E-01  2.21132702E-02 -1.65187843E-03
 -5.57332824E-02 -1.60704907E-01 -5.81926155E-02 -1.03899258E-02  7.26685322E-02
 -4.68889653E-01  1.93699677E-01  1.15416997E-01  2.84396027E-02  6.25283579E-01
 -2.01533141E-01  2.12137304E-02  7.12820340E-04  7.08140726E-03 -2.19778461E-03
  1.99172942E-02 -2.14974187E-02 -4.98399488E-01  5.18056719E-01  1.61604580E-01
  3.37015177E-02 -9.24370676E-03 -2.13897714E-01  4.87052664E-01 -9.02358877E-02
 -4.58600513E-02 -8.66411360E-02 -6.17575538E-02 -2.11328570E-01  2.97876072E-02
 -6.17300751E-03  4.50517065E-02 -7.11463695E-02  4.69820334E-02 -1.27825155E-02
 -6.63949573E-03 -1.39611530E-03  1.05038665E-02 -4.79662538E-02 -2.78427433E-02
 -7.70872745E-01  4.34141734E-01 -1.57175123E-01  5.45447155E-02  8.09332019E-01
 -5.16705717E-01 -2.48763539E-03 -3.48620714E-03 -3.12471004E-03 -2.85802738E-02
 -1.37196186E-02 -8.57089553E-03  5.10482024E-02 -1.11394976E-01 -2.86111044E-01
  9.75111188E-02  6.04974792E-02  1.79034044E-01  4.75412621E-01 -1.55482910E-01
 -4.33213073E-02 -5.63222512E-02 -1.36536355E-02 -4.62170178E-02  5.79310803E-02
 -1.74606349E-02  1.24143000E-01  5.10304795E-02 -6.39804247E-03  3.30981284E-03
 -6.24153552E-02  2.49948823E-01 -1.67645446E-02 -1.35516547E-02 -1.89130019E-02
 -1.27515375E-01  3.20405242E-01 -3.87673336E-02  6.65426874E-03 -3.95187952E-02
  5.79647767E-02 -4.96986249E-01  4.83261148E-02  8.52255932E-02 -2.26944204E-02
 -6.27921407E-02  4.39506394E-01  2.66579817E-01 -3.61704198E-01 -3.72658567E-01
 -1.57530804E-01 -4.07865771E-01  4.79686206E-01  6.76213337E-01  2.39170019E-02
 -2.85065621E-02 -4.32142542E-02 -9.90371055E-02 -4.87402099E-02  8.01494002E-03
 -2.93211530E-02 -1.23483500E-01  4.01098350E-01  9.31634247E-02 -6.13934517E-02
  1.10972277E-01 -6.09959804E-01 -7.21392687E-04  1.35982758E-02  3.32943160E-02
 -1.86674792E-02  3.19622910E-02 -4.06369169E-02 -5.00650384E-01  2.31717300E-01
  2.44711632E-02  9.80049854E-03  1.96735614E-02 -4.10627515E-01 -3.31807364E-02
 -2.51685719E-02 -1.84651693E-02  1.99765854E-02  6.82987788E-02 -2.72487740E-01
  3.12097160E-02 -1.90527524E-02  3.60562389E-02  4.68031963E-02  3.31294709E-01
 -3.73889271E-02 -6.84082022E-02  1.13660641E-02 -2.02396420E-02  9.23178248E-02
 -8.01074633E-02  1.36354292E-01 -4.22030105E-01 -1.34382503E-02  8.05943242E-02