#INFO: **** input file is /home/liwei01/wsr/dftpart/test_2body/w32/gfea_c8.py ****
from dftpart import gfea3
from pyscf import lib

par = 8
with lib.with_omp_threads(par):
    fr0 = gfea3.GFEA()
    fr0.inputstyle = 'frg'
    fr0.method = ['hf', '6-31gss','charge']
    fr0.gjfname = 'w32'
    fr0.output = 'w32'
    fr0.verbose = 9
    fr0.showinter = True
    #fr0.do_deriv = True
    fr0.kernel()

#INFO: ******************** input file end ********************


System: uname_result(system='Linux', node='master', release='3.10.0-693.el7.x86_64', version='#1 SMP Tue Aug 22 21:09:27 UTC 2017', machine='x86_64', processor='x86_64')  Threads 8
Python 3.7.6 (default, Jan  8 2020, 19:59:22) 
[GCC 7.3.0]
numpy 1.18.1  scipy 1.4.1
Date: Tue Jun 16 20:55:45 2020
PySCF version 1.6.1
PySCF path  /home/liwei01/zcheng/pyscf/pyscf
GIT HEAD      ref: refs/heads/master
GIT master branch  3adc7fd25839fe674469a52b764c3661e32d7318

[CONFIG] DEBUG = False
[CONFIG] MAX_MEMORY = 4000
[CONFIG] TMPDIR = .
[CONFIG] UNIT = angstrom
[CONFIG] VERBOSE = 3
[CONFIG] conf_file = None
[INPUT] verbose = 9
[INPUT] max_memory = 4000 
[INPUT] num. atoms = 27
[INPUT] num. electrons = 90
[INPUT] charge = 0
[INPUT] spin (= nelec alpha-beta = 2S) = 0
[INPUT] symmetry False subgroup None
[INPUT] Mole.unit = angstrom
[INPUT]  1 O      8.392325000000 -11.812941000000 -11.200483000000 AA   15.859195798340 -22.323223215646 -21.165845332847 Bohr
[INPUT]  2 O      7.250284000000  -9.859627000000 -13.103456000000 AA   13.701051085316 -18.631994720367 -24.761943125289 Bohr
[INPUT]  3 O      5.570392000000 -12.760041000000 -10.733807000000 AA   10.526515286468 -24.112982828221 -20.283955503939 Bohr
[INPUT]  4 O      6.966193000000  -9.247795000000 -10.274305000000 AA   13.164196900862 -17.475799806122 -19.415622570249 Bohr
[INPUT]  5 O      6.942642000000 -11.829381000000  -8.371044000000 AA   13.119691960903 -22.354290313134 -15.818980536684 Bohr
[INPUT]  6 O      9.473772000000  -7.997188000000 -10.918041000000 AA   17.902834446573 -15.112495086658 -20.632107306772 Bohr
[INPUT]  7 O      4.641258000000  -8.138278000000 -12.671145000000 AA    8.770706493447 -15.379116545573 -23.944993734652 Bohr
[INPUT]  8 O      4.906964000000  -7.910014000000  -9.130039000000 AA    9.272818063100 -14.947760101475 -17.253273216598 Bohr
[INPUT]  9 O      8.538876000000  -6.261102000000 -12.948352000000 AA   16.136137051622 -11.831768017967 -24.468839044464 Bohr
[INPUT] 10 H      8.175276000000 -12.537815000000 -10.614239000000 AA   15.449032632730 -23.693036550464 -20.058004730677 Bohr
[INPUT] 11 H      9.252154000000 -11.514100000000 -10.904475000000 AA   17.484037122299 -21.758495570855 -20.606471282167 Bohr
[INPUT] 12 H      7.120660000000 -10.221473000000 -13.980096000000 AA   13.456097226145 -19.315784559636 -26.418552635128 Bohr
[INPUT] 13 H      7.341484000000 -10.626744000000 -12.538261000000 AA   13.873394107876 -20.081635755865 -23.693879368315 Bohr
[INPUT] 14 H      4.642708000000 -12.827827000000 -10.507888000000 AA    8.773446596327 -24.241079803301 -19.857030467604 Bohr
[INPUT] 15 H      5.983752000000 -12.405170000000  -9.946767000000 AA   11.307652477318 -23.442373828671 -18.796665454862 Bohr
[INPUT] 16 H      6.975152000000  -9.845016000000 -11.022289000000 AA   13.181126957212 -18.604383931961 -20.829107475806 Bohr
[INPUT] 17 H      7.684375000000  -8.638472000000 -10.445098000000 AA   14.521364188455 -16.324346214724 -19.738374564242 Bohr
[INPUT] 18 H      7.495574000000 -12.091052000000  -7.634819000000 AA   14.164582006411 -22.848776837875 -14.427716920626 Bohr
[INPUT] 19 H      7.307461000000 -10.992840000000  -8.659728000000 AA   13.809099955940 -20.773456931164 -16.364514233228 Bohr
[INPUT] 20 H      9.997520000000  -8.795627000000 -10.851588000000 AA   18.892574724862 -16.621326123830 -20.506529336617 Bohr
[INPUT] 21 H      9.623390000000  -7.542356000000 -10.089201000000 AA   18.185571489878 -14.252987173970 -19.065826705688 Bohr
[INPUT] 22 H      4.597809000000  -7.272042000000 -12.266198000000 AA    8.688599783060 -13.742167746334 -23.179754809688 Bohr
[INPUT] 23 H      5.576498000000  -8.338407000000 -12.709967000000 AA   10.538053954185 -15.757305545156 -24.018356682260 Bohr
[INPUT] 24 H      4.063520000000  -8.026505000000  -9.567378000000 AA    7.678939901693 -15.167896187452 -18.079724150189 Bohr
[INPUT] 25 H      5.422730000000  -8.670974000000  -9.396791000000 AA   10.247474547463 -16.385766093224 -17.757361439778 Bohr
[INPUT] 26 H      8.880032000000  -6.849136000000 -12.274511000000 AA   16.780828457374 -12.942991229899 -23.195464102961 Bohr
[INPUT] 27 H      9.276723000000  -6.122958000000 -13.542264000000 AA   17.530465803454 -11.570713692215 -25.591170066557 Bohr
[INPUT] ---------------- BASIS SET ---------------- 
[INPUT] l, kappa, [nprim/nctr], expnt,             c_1 c_2 ...
[INPUT] H
[INPUT] 0    0    [3    /1   ]  18.731137         0.0334946
                                2.8253937         0.23472695
                                0.6401217         0.81375733
[INPUT] 0    0    [1    /1   ]  0.1612778            1
[INPUT] 1    0    [1    /1   ]  1.1                  1
[INPUT] O
[INPUT] 0    0    [6    /1   ]  5484.6717         0.0018311
                                825.23495         0.0139501
                                188.04696         0.0684451
                                52.9645           0.2327143
                                16.89757          0.470193
                                5.7996353         0.3585209
[INPUT] 0    0    [3    /1   ]  15.539616         -0.1107775
                                3.5999336         -0.1480263
                                1.0137618         1.130767
[INPUT] 0    0    [1    /1   ]  0.2700058            1
[INPUT] 1    0    [3    /1   ]  15.539616         0.0708743
                                3.5999336         0.3397528
                                1.0137618         0.7271586
[INPUT] 1    0    [1    /1   ]  0.2700058            1
[INPUT] 2    0    [1    /1   ]  0.8                  1

nuclear repulsion = 555.387377002584
number of shells = 108
number of NR pGTOs = 369
number of NR cGTOs = 216
basis = 6-31gss
ecp = {}
bas 0, expnt(s) = [5484.6717     825.23495    188.04696     52.9645      16.89757
    5.7996353]
bas 1, expnt(s) = [15.539616   3.5999336  1.0137618]
bas 2, expnt(s) = [0.2700058]
bas 3, expnt(s) = [15.539616   3.5999336  1.0137618]
bas 4, expnt(s) = [0.2700058]
bas 5, expnt(s) = [0.8]
bas 6, expnt(s) = [5484.6717     825.23495    188.04696     52.9645      16.89757
    5.7996353]
bas 7, expnt(s) = [15.539616   3.5999336  1.0137618]
bas 8, expnt(s) = [0.2700058]
bas 9, expnt(s) = [15.539616   3.5999336  1.0137618]
bas 10, expnt(s) = [0.2700058]
bas 11, expnt(s) = [0.8]
bas 12, expnt(s) = [5484.6717     825.23495    188.04696     52.9645      16.89757
    5.7996353]
bas 13, expnt(s) = [15.539616   3.5999336  1.0137618]
bas 14, expnt(s) = [0.2700058]
bas 15, expnt(s) = [15.539616   3.5999336  1.0137618]
bas 16, expnt(s) = [0.2700058]
bas 17, expnt(s) = [0.8]
bas 18, expnt(s) = [5484.6717     825.23495    188.04696     52.9645      16.89757
    5.7996353]
bas 19, expnt(s) = [15.539616   3.5999336  1.0137618]
bas 20, expnt(s) = [0.2700058]
bas 21, expnt(s) = [15.539616   3.5999336  1.0137618]
bas 22, expnt(s) = [0.2700058]
bas 23, expnt(s) = [0.8]
bas 24, expnt(s) = [5484.6717     825.23495    188.04696     52.9645      16.89757
    5.7996353]
bas 25, expnt(s) = [15.539616   3.5999336  1.0137618]
bas 26, expnt(s) = [0.2700058]
bas 27, expnt(s) = [15.539616   3.5999336  1.0137618]
bas 28, expnt(s) = [0.2700058]
bas 29, expnt(s) = [0.8]
bas 30, expnt(s) = [5484.6717     825.23495    188.04696     52.9645      16.89757
    5.7996353]
bas 31, expnt(s) = [15.539616   3.5999336  1.0137618]
bas 32, expnt(s) = [0.2700058]
bas 33, expnt(s) = [15.539616   3.5999336  1.0137618]
bas 34, expnt(s) = [0.2700058]
bas 35, expnt(s) = [0.8]
bas 36, expnt(s) = [5484.6717     825.23495    188.04696     52.9645      16.89757
    5.7996353]
bas 37, expnt(s) = [15.539616   3.5999336  1.0137618]
bas 38, expnt(s) = [0.2700058]
bas 39, expnt(s) = [15.539616   3.5999336  1.0137618]
bas 40, expnt(s) = [0.2700058]
bas 41, expnt(s) = [0.8]
bas 42, expnt(s) = [5484.6717     825.23495    188.04696     52.9645      16.89757
    5.7996353]
bas 43, expnt(s) = [15.539616   3.5999336  1.0137618]
bas 44, expnt(s) = [0.2700058]
bas 45, expnt(s) = [15.539616   3.5999336  1.0137618]
bas 46, expnt(s) = [0.2700058]
bas 47, expnt(s) = [0.8]
bas 48, expnt(s) = [5484.6717     825.23495    188.04696     52.9645      16.89757
    5.7996353]
bas 49, expnt(s) = [15.539616   3.5999336  1.0137618]
bas 50, expnt(s) = [0.2700058]
bas 51, expnt(s) = [15.539616   3.5999336  1.0137618]
bas 52, expnt(s) = [0.2700058]
bas 53, expnt(s) = [0.8]
bas 54, expnt(s) = [18.731137   2.8253937  0.6401217]
bas 55, expnt(s) = [0.1612778]
bas 56, expnt(s) = [1.1]
bas 57, expnt(s) = [18.731137   2.8253937  0.6401217]
bas 58, expnt(s) = [0.1612778]
bas 59, expnt(s) = [1.1]
bas 60, expnt(s) = [18.731137   2.8253937  0.6401217]
bas 61, expnt(s) = [0.1612778]
bas 62, expnt(s) = [1.1]
bas 63, expnt(s) = [18.731137   2.8253937  0.6401217]
bas 64, expnt(s) = [0.1612778]
bas 65, expnt(s) = [1.1]
bas 66, expnt(s) = [18.731137   2.8253937  0.6401217]
bas 67, expnt(s) = [0.1612778]
bas 68, expnt(s) = [1.1]
bas 69, expnt(s) = [18.731137   2.8253937  0.6401217]
bas 70, expnt(s) = [0.1612778]
bas 71, expnt(s) = [1.1]
bas 72, expnt(s) = [18.731137   2.8253937  0.6401217]
bas 73, expnt(s) = [0.1612778]
bas 74, expnt(s) = [1.1]
bas 75, expnt(s) = [18.731137   2.8253937  0.6401217]
bas 76, expnt(s) = [0.1612778]
bas 77, expnt(s) = [1.1]
bas 78, expnt(s) = [18.731137   2.8253937  0.6401217]
bas 79, expnt(s) = [0.1612778]
bas 80, expnt(s) = [1.1]
bas 81, expnt(s) = [18.731137   2.8253937  0.6401217]
bas 82, expnt(s) = [0.1612778]
bas 83, expnt(s) = [1.1]
bas 84, expnt(s) = [18.731137   2.8253937  0.6401217]
bas 85, expnt(s) = [0.1612778]
bas 86, expnt(s) = [1.1]
bas 87, expnt(s) = [18.731137   2.8253937  0.6401217]
bas 88, expnt(s) = [0.1612778]
bas 89, expnt(s) = [1.1]
bas 90, expnt(s) = [18.731137   2.8253937  0.6401217]
bas 91, expnt(s) = [0.1612778]
bas 92, expnt(s) = [1.1]
bas 93, expnt(s) = [18.731137   2.8253937  0.6401217]
bas 94, expnt(s) = [0.1612778]
bas 95, expnt(s) = [1.1]
bas 96, expnt(s) = [18.731137   2.8253937  0.6401217]
bas 97, expnt(s) = [0.1612778]
bas 98, expnt(s) = [1.1]
bas 99, expnt(s) = [18.731137   2.8253937  0.6401217]
bas 100, expnt(s) = [0.1612778]
bas 101, expnt(s) = [1.1]
bas 102, expnt(s) = [18.731137   2.8253937  0.6401217]
bas 103, expnt(s) = [0.1612778]
bas 104, expnt(s) = [1.1]
bas 105, expnt(s) = [18.731137   2.8253937  0.6401217]
bas 106, expnt(s) = [0.1612778]
bas 107, expnt(s) = [1.1]
CPU time:       413.11
arg.atm = [[  8  20   1  23   0   0]
 [  8  24   1  27   0   0]
 [  8  28   1  31   0   0]
 [  8  32   1  35   0   0]
 [  8  36   1  39   0   0]
 [  8  40   1  43   0   0]
 [  8  44   1  47   0   0]
 [  8  48   1  51   0   0]
 [  8  52   1  55   0   0]
 [  1  56   1  59   0   0]
 [  1  60   1  63   0   0]
 [  1  64   1  67   0   0]
 [  1  68   1  71   0   0]
 [  1  72   1  75   0   0]
 [  1  76   1  79   0   0]
 [  1  80   1  83   0   0]
 [  1  84   1  87   0   0]
 [  1  88   1  91   0   0]
 [  1  92   1  95   0   0]
 [  1  96   1  99   0   0]
 [  1 100   1 103   0   0]
 [  1 104   1 107   0   0]
 [  1 108   1 111   0   0]
 [  1 112   1 115   0   0]
 [  1 116   1 119   0   0]
 [  1 120   1 123   0   0]
 [  1 124   1 127   0   0]]
arg.bas = [[  0   0   6   1   0 138 144   0]
 [  0   0   3   1   0 150 153   0]
 [  0   0   1   1   0 156 157   0]
 [  0   1   3   1   0 158 161   0]
 [  0   1   1   1   0 164 165   0]
 [  0   2   1   1   0 166 167   0]
 [  1   0   6   1   0 138 144   0]
 [  1   0   3   1   0 150 153   0]
 [  1   0   1   1   0 156 157   0]
 [  1   1   3   1   0 158 161   0]
 [  1   1   1   1   0 164 165   0]
 [  1   2   1   1   0 166 167   0]
 [  2   0   6   1   0 138 144   0]
 [  2   0   3   1   0 150 153   0]
 [  2   0   1   1   0 156 157   0]
 [  2   1   3   1   0 158 161   0]
 [  2   1   1   1   0 164 165   0]
 [  2   2   1   1   0 166 167   0]
 [  3   0   6   1   0 138 144   0]
 [  3   0   3   1   0 150 153   0]
 [  3   0   1   1   0 156 157   0]
 [  3   1   3   1   0 158 161   0]
 [  3   1   1   1   0 164 165   0]
 [  3   2   1   1   0 166 167   0]
 [  4   0   6   1   0 138 144   0]
 [  4   0   3   1   0 150 153   0]
 [  4   0   1   1   0 156 157   0]
 [  4   1   3   1   0 158 161   0]
 [  4   1   1   1   0 164 165   0]
 [  4   2   1   1   0 166 167   0]
 [  5   0   6   1   0 138 144   0]
 [  5   0   3   1   0 150 153   0]
 [  5   0   1   1   0 156 157   0]
 [  5   1   3   1   0 158 161   0]
 [  5   1   1   1   0 164 165   0]
 [  5   2   1   1   0 166 167   0]
 [  6   0   6   1   0 138 144   0]
 [  6   0   3   1   0 150 153   0]
 [  6   0   1   1   0 156 157   0]
 [  6   1   3   1   0 158 161   0]
 [  6   1   1   1   0 164 165   0]
 [  6   2   1   1   0 166 167   0]
 [  7   0   6   1   0 138 144   0]
 [  7   0   3   1   0 150 153   0]
 [  7   0   1   1   0 156 157   0]
 [  7   1   3   1   0 158 161   0]
 [  7   1   1   1   0 164 165   0]
 [  7   2   1   1   0 166 167   0]
 [  8   0   6   1   0 138 144   0]
 [  8   0   3   1   0 150 153   0]
 [  8   0   1   1   0 156 157   0]
 [  8   1   3   1   0 158 161   0]
 [  8   1   1   1   0 164 165   0]
 [  8   2   1   1   0 166 167   0]
 [  9   0   3   1   0 128 131   0]
 [  9   0   1   1   0 134 135   0]
 [  9   1   1   1   0 136 137   0]
 [ 10   0   3   1   0 128 131   0]
 [ 10   0   1   1   0 134 135   0]
 [ 10   1   1   1   0 136 137   0]
 [ 11   0   3   1   0 128 131   0]
 [ 11   0   1   1   0 134 135   0]
 [ 11   1   1   1   0 136 137   0]
 [ 12   0   3   1   0 128 131   0]
 [ 12   0   1   1   0 134 135   0]
 [ 12   1   1   1   0 136 137   0]
 [ 13   0   3   1   0 128 131   0]
 [ 13   0   1   1   0 134 135   0]
 [ 13   1   1   1   0 136 137   0]
 [ 14   0   3   1   0 128 131   0]
 [ 14   0   1   1   0 134 135   0]
 [ 14   1   1   1   0 136 137   0]
 [ 15   0   3   1   0 128 131   0]
 [ 15   0   1   1   0 134 135   0]
 [ 15   1   1   1   0 136 137   0]
 [ 16   0   3   1   0 128 131   0]
 [ 16   0   1   1   0 134 135   0]
 [ 16   1   1   1   0 136 137   0]
 [ 17   0   3   1   0 128 131   0]
 [ 17   0   1   1   0 134 135   0]
 [ 17   1   1   1   0 136 137   0]
 [ 18   0   3   1   0 128 131   0]
 [ 18   0   1   1   0 134 135   0]
 [ 18   1   1   1   0 136 137   0]
 [ 19   0   3   1   0 128 131   0]
 [ 19   0   1   1   0 134 135   0]
 [ 19   1   1   1   0 136 137   0]
 [ 20   0   3   1   0 128 131   0]
 [ 20   0   1   1   0 134 135   0]
 [ 20   1   1   1   0 136 137   0]
 [ 21   0   3   1   0 128 131   0]
 [ 21   0   1   1   0 134 135   0]
 [ 21   1   1   1   0 136 137   0]
 [ 22   0   3   1   0 128 131   0]
 [ 22   0   1   1   0 134 135   0]
 [ 22   1   1   1   0 136 137   0]
 [ 23   0   3   1   0 128 131   0]
 [ 23   0   1   1   0 134 135   0]
 [ 23   1   1   1   0 136 137   0]
 [ 24   0   3   1   0 128 131   0]
 [ 24   0   1   1   0 134 135   0]
 [ 24   1   1   1   0 136 137   0]
 [ 25   0   3   1   0 128 131   0]
 [ 25   0   1   1   0 134 135   0]
 [ 25   1   1   1   0 136 137   0]
 [ 26   0   3   1   0 128 131   0]
 [ 26   0   1   1   0 134 135   0]
 [ 26   1   1   1   0 136 137   0]]
arg.env = [ 1.37036000e+02  0.00000000e+00  0.00000000e+00  0.00000000e+00
  0.00000000e+00  0.00000000e+00  0.00000000e+00  0.00000000e+00
  0.00000000e+00  0.00000000e+00  0.00000000e+00  0.00000000e+00
  0.00000000e+00  0.00000000e+00  0.00000000e+00  0.00000000e+00
  0.00000000e+00  0.00000000e+00  0.00000000e+00  0.00000000e+00
  1.58591958e+01 -2.23232232e+01 -2.11658453e+01  0.00000000e+00
  1.37010511e+01 -1.86319947e+01 -2.47619431e+01  0.00000000e+00
  1.05265153e+01 -2.41129828e+01 -2.02839555e+01  0.00000000e+00
  1.31641969e+01 -1.74757998e+01 -1.94156226e+01  0.00000000e+00
  1.31196920e+01 -2.23542903e+01 -1.58189805e+01  0.00000000e+00
  1.79028344e+01 -1.51124951e+01 -2.06321073e+01  0.00000000e+00
  8.77070649e+00 -1.53791165e+01 -2.39449937e+01  0.00000000e+00
  9.27281806e+00 -1.49477601e+01 -1.72532732e+01  0.00000000e+00
  1.61361371e+01 -1.18317680e+01 -2.44688390e+01  0.00000000e+00
  1.54490326e+01 -2.36930366e+01 -2.00580047e+01  0.00000000e+00
  1.74840371e+01 -2.17584956e+01 -2.06064713e+01  0.00000000e+00
  1.34560972e+01 -1.93157846e+01 -2.64185526e+01  0.00000000e+00
  1.38733941e+01 -2.00816358e+01 -2.36938794e+01  0.00000000e+00
  8.77344660e+00 -2.42410798e+01 -1.98570305e+01  0.00000000e+00
  1.13076525e+01 -2.34423738e+01 -1.87966655e+01  0.00000000e+00
  1.31811270e+01 -1.86043839e+01 -2.08291075e+01  0.00000000e+00
  1.45213642e+01 -1.63243462e+01 -1.97383746e+01  0.00000000e+00
  1.41645820e+01 -2.28487768e+01 -1.44277169e+01  0.00000000e+00
  1.38091000e+01 -2.07734569e+01 -1.63645142e+01  0.00000000e+00
  1.88925747e+01 -1.66213261e+01 -2.05065293e+01  0.00000000e+00
  1.81855715e+01 -1.42529872e+01 -1.90658267e+01  0.00000000e+00
  8.68859978e+00 -1.37421677e+01 -2.31797548e+01  0.00000000e+00
  1.05380540e+01 -1.57573055e+01 -2.40183567e+01  0.00000000e+00
  7.67893990e+00 -1.51678962e+01 -1.80797242e+01  0.00000000e+00
  1.02474745e+01 -1.63857661e+01 -1.77573614e+01  0.00000000e+00
  1.67808285e+01 -1.29429912e+01 -2.31954641e+01  0.00000000e+00
  1.75304658e+01 -1.15707137e+01 -2.55911701e+01  0.00000000e+00
  1.87311370e+01  2.82539370e+00  6.40121700e-01  7.61926220e-01
  1.29237100e+00  1.47131900e+00  1.61277800e-01  6.42977783e-01
  1.10000000e+00  3.28643653e+00  5.48467170e+03  8.25234950e+02
  1.88046960e+02  5.29645000e+01  1.68975700e+01  5.79963530e+00
  2.94842455e+00  5.42657124e+00  8.78126489e+00  1.15432129e+01
  9.90055015e+00  3.38516599e+00  1.55396160e+01  3.59993360e+00
  1.01376180e+00 -2.19051792e+00 -9.77405528e-01  2.88629094e+00
  2.70005800e-01  9.46334873e-01  1.55396160e+01  3.59993360e+00
  1.01376180e+00  6.37930734e+00  4.91490975e+00  2.15791055e+00
  2.70005800e-01  5.67807022e-01  8.00000000e-01  1.76578110e+00]
ecpbas  = []


******** <class 'pyscf.qmmm.itrf.mm_charge.<locals>.QMMM'> ********
method = QMMM-RHF
initial guess = minao
damping factor = 0
level shift factor = 0
DIIS = <class 'pyscf.scf.diis.CDIIS'>
DIIS start cycle = 1
DIIS space = 8
SCF tol = 1e-09
SCF gradient tol = None
max. SCF cycles = 50
direct_scf = True
direct_scf_tol = 1e-13
chkfile to save SCF result = /home/liwei01/wsr/dftpart/test_2body/w32/tmp59fwi27p
max_memory 4000 MB (current use 303 MB)
** Add background charges for <class 'pyscf.scf.hf.RHF'> **
Charge      Location
-1.035697    [ 20.23144001 -20.50137794 -19.07019386]
0.520608    [ 21.7723038  -21.39222885 -18.74761761]
0.515624    [ 19.97024207 -19.49608333 -17.58928542]
-1.009926    [ 16.42785407 -26.58707085 -18.04142885]
0.499922    [ 15.53371882 -25.95112132 -16.60336995]
0.507893    [ 16.16245338 -28.37548309 -17.98600129]
-1.002885    [ 18.40539199 -27.51482622 -24.72543362]
0.521542    [ 17.83274639 -26.30664305 -23.50711585]
0.49877    [ 20.13069872 -27.06649815 -25.03241585]
-1.054902    [ 19.05772167 -18.14703431 -25.87868434]
0.517977    [ 18.59105569 -18.66655214 -27.54728983]
0.522623    [ 17.51229609 -18.19498233 -24.93991564]
-1.032188    [ 15.97118286 -20.09833149 -29.6421136 ]
0.47982    [ 15.3540909  -19.66610766 -31.28659296]
0.534069    [ 17.50300052 -21.00734455 -29.95701189]
-0.992133    [  7.63287216 -21.21078113 -24.19682809]
0.480184    [  8.55071592 -22.76668147 -24.10379498]
0.504586    [  8.37549106 -20.32880248 -25.59058803]
-1.012936    [ 10.55365553 -29.46492154 -21.67488842]
0.504954    [  8.84108934 -29.00412127 -22.03084479]
0.525721    [ 11.34418277 -27.91794449 -21.17105153]
-0.985176    [ 16.63195772 -23.48150439 -12.27810621]
0.500614    [ 17.11266814 -22.20236011 -11.09293235]
0.508291    [ 16.89319913 -25.03868407 -11.39557387]
-0.979947    [ 19.94097588 -17.12125506 -14.67509908]
0.500341    [ 18.95312155 -17.86288753 -13.35371942]
0.493696    [ 19.00620207 -15.6543646  -15.17143564]
-0.982261    [ 16.04742575 -26.75780005 -29.6895325 ]
0.479882    [ 16.71262824 -28.42851069 -29.88488293]
0.495008    [ 16.8532352  -26.12000803 -28.20097066]
-0.983713    [ 20.17321188 -22.53529584 -29.89394228]
0.505479    [ 21.06170253 -23.16751127 -28.4507471 ]
0.512532    [ 20.35114661 -23.83370776 -31.14069287]
-1.011239    [ 14.66303696 -31.18986921 -25.03135193]
0.492592    [ 13.80996545 -30.6346091  -23.53606456]
0.497341    [ 16.13314373 -30.14067248 -25.13086491]
-0.999332    [ 25.43111026 -22.24828235 -18.47023794]
0.512801    [ 26.28398524 -20.77981964 -19.09325419]
0.507583    [ 26.7410892  -23.47726762 -18.25698991]
-1.016163    [ 10.56617686 -29.35403808 -16.44102735]
0.483053    [ 11.92280935 -30.36927076 -15.8079521 ]
0.523726    [ 10.34862781 -29.90290525 -18.15080431]
-0.976012    [ 10.09067452 -21.18806662 -29.24260093]
0.486289    [ 11.11173701 -19.76402949 -29.69146191]
0.496485    [ 10.37375928 -22.38512875 -30.56881072]
-0.977833    [ 24.5589393  -27.80514674 -21.18389789]
0.50587    [ 23.21796885 -28.65180829 -20.31390388]
0.463809    [ 25.76766104 -27.42438582 -19.8931866 ]
-0.992057    [ 16.93410036 -32.15697813 -17.52810554]
0.50918    [ 16.39069828 -32.53931319 -15.84570882]
0.510293    [ 15.6895513  -32.92540692 -18.59231236]
-0.998393    [ 24.35861321 -18.31258187 -25.98586582]
0.466984    [ 25.48944989 -18.60606579 -24.60492389]
0.51604    [ 22.70911474 -18.4111103  -25.25008395]
-0.991473    [  5.5836248  -24.00414405 -18.66237963]
0.501887    [  5.79022289 -25.52045085 -17.69798247]
0.510487    [  5.17491673 -22.73885336 -17.43603619]
-1.029267    [  7.95719829 -25.19119252 -14.2761212 ]
0.497876    [  9.38018663 -24.0850659  -14.1227926 ]
0.519667    [  8.66153702 -26.76190075 -14.83174226]
-1.019724    [ 21.67798379 -29.0173418  -14.20699124]
0.475311    [ 20.53074618 -29.01816194 -15.60548117]
0.514632    [ 22.50198564 -27.40961194 -14.29731259]
-0.9959    [ 24.21450458 -24.60133719 -13.9203349 ]
0.499354    [ 23.58737251 -23.46499007 -12.66043371]
0.511038    [ 23.91476757 -23.75039163 -15.48812918]
-1.001922    [ 21.40011279 -32.14724982 -20.33868764]
0.487648    [ 22.14106118 -33.75675602 -19.97480576]
0.509505    [ 19.73399418 -32.24696878 -19.64152988]
Set gradient conv threshold to 3.16228e-05
Nelec from initial guess = 89.90938662864657
cond(S) = 180.59454134143473
E1 = -2038.0527973754627  E_coul = 800.6235396565771
init E= -682.961026175179
    CPU time for initialize scf     12.22 sec, wall time      1.54 sec
  HOMO = -0.447777887532217  LUMO = 0.0505665653698626
  mo_energy =
[-20.82200769 -20.82096078 -20.80828309 -20.79931351 -20.79793319
 -20.79729375 -20.79490402 -20.78799675 -20.77321995  -1.67764893
  -1.65673493  -1.63783566  -1.62809392  -1.6217026   -1.60984951
  -1.60315531  -1.5890765   -1.58635769  -0.7966215   -0.78965413
  -0.76938363  -0.7647663   -0.76113303  -0.74673897  -0.74524495
  -0.73314116  -0.71395786  -0.63403731  -0.61982013  -0.61072564
  -0.60251101  -0.58902838  -0.57599543  -0.5712665   -0.55824003
  -0.55337168  -0.50432122  -0.4981307   -0.49630118  -0.48024006
  -0.47697454  -0.47200216  -0.46665226  -0.45999816  -0.44777789
   0.05056657   0.10303703   0.11733373   0.14180243   0.16696611
   0.18492323   0.18674886   0.20968685   0.22499052   0.24899887
   0.26490373   0.27290134   0.2873154    0.30453049   0.31487478
   0.32426615   0.35495882   0.36496065   0.85468843   0.88909485
   0.90606029   0.91737934   0.92989871   0.93981727   0.951754
   0.96473642   0.96558371   0.97323946   0.9835841    0.99180072
   0.99816571   1.00548932   1.01191081   1.02326294   1.03590394
   1.03931607   1.04772478   1.06010524   1.06859887   1.07750589
   1.09122765   1.09449728   1.10991126   1.11690265   1.13290434
   1.1353245    1.14474787   1.17088707   1.17891922   1.18847278
   1.19151007   1.19607853   1.20990877   1.21769238   1.23170407
   1.2489926    1.25421783   1.26303593   1.27487272   1.29760533
   1.31040424   1.33900233   1.40960288   1.48339202   1.51089669
   1.53699956   1.56125207   1.60545462   1.6357375    1.64578735
   1.67349513   1.68040733   1.70536215   1.70724691   1.7162959
   1.72234513   1.72685257   1.72907239   1.73083707   1.73415157
   1.73554132   1.73646209   1.74504943   1.7512702    1.77366309
   1.78201166   1.78524069   1.79780618   1.80297029   1.81458284
   1.82523479   1.83314546   1.83676381   1.89213278   1.90079912
   1.91669642   1.93447925   1.96086616   1.99164477   2.47363322
   2.47737183   2.48520945   2.50084555   2.51803419   2.52006982
   2.52703866   2.54530272   2.54798247   2.56654484   2.56733863
   2.57485303   2.58008686   2.5882934    2.59961297   2.61225446
   2.62633549   2.63657524   2.71238093   2.72079838   2.73095219
   2.74323316   2.76157971   2.77317994   2.79103016   2.80405412
   2.81761735   2.89986464   2.90519541   2.910337     2.91303008
   2.92172797   2.92481414   2.9260682    2.93012057   2.93550744
   2.94839494   2.95079915   2.9536367    2.95559856   2.9651494
   2.97481883   2.99392925   3.01261393   3.03553434   3.32304484
   3.32589363   3.32747238   3.33253545   3.3366667    3.34061582
   3.35710877   3.37473872   3.38758275   3.69904107   3.70193865
   3.71278612   3.72552143   3.73354364   3.73607877   3.75058401
   3.78796682   3.80461093   3.85115027   3.86266955   3.86638312
   3.87685198   3.89309593   3.90299436   3.9224006    3.93277724
   3.99693278]
E1 = -2061.182440193531  E_coul = 822.6653242654
cycle= 1 E= -684.048884384424  delta_E= -1.09  |g|= 1.26  |ddm|= 3.54
    CPU time for cycle= 1      2.39 sec, wall time      0.32 sec
diis-norm(errvec)=2.25529
diis-c [-5.08634429  1.        ]
  HOMO = -0.339808475854116  LUMO = 0.14919503230725
  mo_energy =
[-20.46458803 -20.39484977 -20.34791157 -20.34190809 -20.3202802
 -20.27395051 -20.24856411 -20.24603837 -20.23889461  -1.37500455
  -1.33247882  -1.28705383  -1.27336626  -1.25695299  -1.23571015
  -1.21280803  -1.20099503  -1.19552987  -0.74735043  -0.70950434
  -0.6694266   -0.66315849  -0.63628112  -0.62654526  -0.62387197
  -0.59789989  -0.58027057  -0.56387544  -0.55306182  -0.52486201
  -0.51740146  -0.48593037  -0.48316765  -0.47115893  -0.4598338
  -0.4425891   -0.42946964  -0.42901279  -0.41798261  -0.40679761
  -0.40555114  -0.38823691  -0.35776979  -0.34897533  -0.33980848
   0.14919503   0.20074456   0.23979189   0.26411298   0.28635973
   0.29096938   0.31018711   0.31849009   0.3342487    0.34787586
   0.37808234   0.39694813   0.42351844   0.44745268   0.46491289
   0.47960183   0.49407851   0.50874762   0.93059274   0.96245859
   0.98039856   1.0215223    1.04157925   1.05918784   1.06849493
   1.0735898    1.09008107   1.11161094   1.11520978   1.12077408
   1.12444756   1.14179094   1.15270545   1.16139022   1.17373092
   1.18470137   1.20685218   1.22038816   1.23743653   1.24786553
   1.25825111   1.2713479    1.28214225   1.29625566   1.31208069
   1.3160861    1.32157965   1.32693476   1.3400202    1.34322987
   1.34637804   1.37131425   1.3791798    1.38556564   1.4055697
   1.40914712   1.4207442    1.43897989   1.45053634   1.48820196
   1.48937899   1.51811406   1.552658     1.62047735   1.64095832
   1.67868628   1.72400349   1.75347439   1.7585375    1.77891127
   1.78460812   1.80580707   1.82270263   1.83248342   1.844983
   1.84872469   1.86317256   1.86870369   1.8746452    1.88136788
   1.89685834   1.89747833   1.90776892   1.91295895   1.92681624
   1.94201177   1.94754975   1.96481606   1.98193099   1.9944552
   2.01259186   2.02670839   2.03812128   2.04650609   2.06660461
   2.06984615   2.0952159    2.13252977   2.1383906    2.48347256
   2.52779395   2.53281527   2.57616864   2.58597047   2.59513907
   2.60290009   2.62030829   2.63220023   2.63411538   2.65541982
   2.65663679   2.69311959   2.71290227   2.73663022   2.75343035
   2.76982277   2.77434206   2.78410404   2.80711708   2.85293104
   2.86326373   2.89957501   2.9123053    2.91264906   2.9261254
   2.93554675   2.9590793    2.96373841   2.98716076   3.00079107
   3.00605788   3.00975302   3.02826735   3.04228692   3.04394839
   3.04587894   3.05177357   3.05743471   3.06272334   3.0714138
   3.07678954   3.08478769   3.09438691   3.16689411   3.32711732
   3.36912911   3.41124638   3.43540731   3.44459089   3.45277303
   3.46130758   3.47954621   3.48719495   3.70797343   3.76683572
   3.81071879   3.83473055   3.84471483   3.85438142   3.86447115
   3.87997136   3.891597     3.92414995   3.94832243   3.98535472
   4.05006938   4.06298609   4.07143842   4.08035374   4.08688521
   4.14017594]
E1 = -2047.5495506566795  E_coul = 808.7940336675139
cycle= 2 E= -684.287285445459  delta_E= -0.238  |g|= 0.606  |ddm|= 1.01
    CPU time for cycle= 2      2.31 sec, wall time      0.30 sec
diis-norm(errvec)=1.01622
diis-c [-0.25361631  0.28648444  0.71351556]
  HOMO = -0.434730419954969  LUMO = 0.150039363249443
  mo_energy =
[-20.64602665 -20.62528721 -20.58445862 -20.56806733 -20.56697679
 -20.56002012 -20.53990862 -20.52635737 -20.51911915  -1.41776115
  -1.39383528  -1.35259242  -1.34333569  -1.33250709  -1.32535506
  -1.30423482  -1.29158873  -1.28240006  -0.77669699  -0.75575154
  -0.72429745  -0.71474373  -0.69447857  -0.69076556  -0.68702677
  -0.66792926  -0.64806251  -0.62750126  -0.62283104  -0.59000784
  -0.58547175  -0.55917451  -0.55510923  -0.55139711  -0.54624934
  -0.52564833  -0.52083566  -0.51139029  -0.5086272   -0.49127744
  -0.48605515  -0.48371581  -0.45767626  -0.44534596  -0.43473042
   0.15003936   0.19502605   0.23909436   0.2497943    0.27397427
   0.27742436   0.2966442    0.30705622   0.32344177   0.33145257
   0.35942187   0.38528822   0.40155046   0.42007686   0.43446384
   0.44889132   0.46247327   0.48113504   0.92229904   0.93712948
   0.96443752   0.99795407   1.03350962   1.03774006   1.04230292
   1.04968915   1.05642288   1.0800685    1.08396541   1.0870877
   1.09735768   1.11471341   1.11686968   1.12079853   1.12802449
   1.14270555   1.15472443   1.1670926    1.1815452    1.19256953
   1.20866258   1.21202005   1.21998212   1.22505759   1.23780963
   1.24995239   1.25869072   1.2672732    1.2876376    1.29197412
   1.29997796   1.31116124   1.31686899   1.32493331   1.34391137
   1.34737512   1.36410606   1.37497721   1.38478624   1.42288813
   1.42719564   1.45543314   1.50238546   1.57401829   1.59704751
   1.63791208   1.67222983   1.71084756   1.73394485   1.73919315
   1.74906586   1.76152778   1.78431836   1.79248076   1.79780289
   1.81291337   1.81989246   1.82594689   1.83145718   1.83501446
   1.84683661   1.84857254   1.86202097   1.86616641   1.87790583
   1.88610999   1.89801795   1.90878256   1.92805304   1.93765763
   1.95720731   1.96428816   1.98330478   1.98960601   2.01157052
   2.01783985   2.04180386   2.07420358   2.08878016   2.49951134
   2.51257636   2.53523754   2.55008861   2.57731884   2.58470857
   2.59040453   2.59383722   2.61675911   2.6242691    2.63426389
   2.64452038   2.65377199   2.67423855   2.68992302   2.70764058
   2.7185625    2.72627047   2.75675053   2.77991916   2.8183601
   2.83101836   2.86478656   2.87682247   2.88763841   2.88961766
   2.89576247   2.93077355   2.9501226    2.95711515   2.96426081
   2.99139815   2.99399319   3.0073789    3.0108216    3.01961363
   3.02182045   3.0257703    3.03214844   3.03442743   3.04283284
   3.04745896   3.06036377   3.06427057   3.12840955   3.32635332
   3.35881864   3.39926274   3.40913515   3.41220739   3.42292363
   3.4331624    3.44723097   3.45210062   3.7044256    3.75070009
   3.78773489   3.7969405    3.81428848   3.81841752   3.8246771
   3.8420285    3.86389404   3.89750273   3.91373933   3.9440515
   3.99552414   4.01049637   4.01174623   4.02032545   4.02861776
   4.09251732]
E1 = -2053.489938049947  E_coul = 814.6704153267393
cycle= 3 E= -684.351291179501  delta_E= -0.064  |g|= 0.089  |ddm|= 0.396
    CPU time for cycle= 3      2.33 sec, wall time      0.30 sec
diis-norm(errvec)=0.163534
diis-c [-0.01263441 -0.02733561  0.060675    0.96666061]
  HOMO = -0.425587956496923  LUMO = 0.157702515214395
  mo_energy =
[-20.61659562 -20.59311966 -20.54919259 -20.54393615 -20.53731437
 -20.52721648 -20.50489802 -20.49358141 -20.48619928  -1.40244415
  -1.37929321  -1.33846925  -1.33122076  -1.32053136  -1.31302546
  -1.29147527  -1.27994536  -1.27040106  -0.76193935  -0.74262095
  -0.71414832  -0.70133144  -0.6839111   -0.67926405  -0.67626188
  -0.65831538  -0.63763714  -0.6164723   -0.61221057  -0.57983881
  -0.57534774  -0.54954319  -0.54565915  -0.54187252  -0.53544546
  -0.51668733  -0.51269605  -0.50145358  -0.4986105   -0.48196977
  -0.4770888   -0.47389014  -0.44792242  -0.4363776   -0.42558796
   0.15770252   0.20201638   0.24613598   0.25550833   0.28005072
   0.28258837   0.30238266   0.31320856   0.33000634   0.33629936
   0.36571484   0.39260641   0.40925979   0.42544361   0.44013631
   0.45518238   0.46795658   0.48718256   0.93202285   0.94461145
   0.97356966   1.00477401   1.04403321   1.04470667   1.05083509
   1.06076797   1.06507853   1.08846112   1.09290551   1.09545936
   1.10615805   1.12359671   1.1251201    1.12916732   1.1372572
   1.15253014   1.16360984   1.17583237   1.18984622   1.20137582
   1.21720491   1.2204968    1.22777739   1.23333785   1.24490395
   1.25658525   1.26719529   1.27646419   1.29629164   1.3016033
   1.30946206   1.32124282   1.32485029   1.33429198   1.35232966
   1.3565269    1.37371035   1.38382011   1.39382113   1.43099821
   1.43573936   1.46385476   1.5108689    1.5843283    1.60808449
   1.64934154   1.68160836   1.72116614   1.74670466   1.74970473
   1.76040835   1.77232479   1.79512074   1.80190182   1.80911418
   1.82378259   1.83045312   1.83612767   1.84054362   1.84513581
   1.85617041   1.85867697   1.87194492   1.87644962   1.88672886
   1.89452241   1.90800736   1.91689239   1.93696499   1.94659148
   1.96580284   1.97321057   1.99202162   1.99880057   2.02028119
   2.02698894   2.05076812   2.08189591   2.09733646   2.51337763
   2.52572043   2.54689267   2.56195132   2.5871003    2.59522051
   2.60141238   2.60551718   2.62519336   2.63319295   2.64282852
   2.65266983   2.66298262   2.68294602   2.69870683   2.71662127
   2.72822691   2.73641382   2.77042607   2.79294116   2.82893895
   2.84393427   2.87443577   2.88766144   2.89754648   2.90102874
   2.90727717   2.94214127   2.96097793   2.96847868   2.97481623
   3.00241127   3.00485964   3.01688469   3.01892069   3.02898734
   3.03136843   3.03417391   3.0407725    3.0425091    3.05050888
   3.05581723   3.06780075   3.07321915   3.13450392   3.33959096
   3.36981087   3.41100909   3.41775806   3.42031388   3.43118749
   3.4410191    3.45499411   3.4592968    3.72125385   3.76537578
   3.80136885   3.80991368   3.82748327   3.83101977   3.83627414
   3.85398114   3.87578151   3.91069372   3.92665659   3.95719978
   4.0059682    4.02091668   4.02208645   4.03056221   4.03847212
   4.10132919]
E1 = -2052.8278708216553  E_coul = 814.0065488973419
cycle= 4 E= -684.353090380607  delta_E= -0.0018  |g|= 0.0143  |ddm|= 0.058
    CPU time for cycle= 4      2.32 sec, wall time      0.30 sec
diis-norm(errvec)=0.0295643
diis-c [-2.50681217e-04 -8.75375569e-03 -3.73852823e-02 -1.48879490e-01
  1.19501853e+00]
  HOMO = -0.427587106212618  LUMO = 0.158034122914298
  mo_energy =
[-20.61795244 -20.59463334 -20.55215745 -20.54289693 -20.53842848
 -20.52843657 -20.5071583  -20.4956748  -20.48941991  -1.40265277
  -1.37982292  -1.33888355  -1.33146309  -1.32076425  -1.31354717
  -1.29253335  -1.28102896  -1.27186205  -0.76129979  -0.74255455
  -0.71364402  -0.70143893  -0.68369075  -0.67936115  -0.67618763
  -0.65860961  -0.63822236  -0.61653519  -0.61241963  -0.58010662
  -0.57573025  -0.5498862   -0.54603133  -0.5424115   -0.53615474
  -0.51751172  -0.51326301  -0.5024907   -0.49969574  -0.48273375
  -0.477727    -0.47466998  -0.44949079  -0.43791023  -0.42758711
   0.15803412   0.20214152   0.2463901    0.25550989   0.28021826
   0.28242976   0.30242301   0.31338884   0.32994935   0.33604251
   0.36598105   0.39311697   0.40962308   0.42566552   0.44037642
   0.45552895   0.46810631   0.4876703    0.93233368   0.94480024
   0.97373213   1.0048417    1.04389922   1.04465737   1.05067365
   1.06071797   1.06495988   1.0882388    1.09275544   1.09535053
   1.10600768   1.12335229   1.12479166   1.12863173   1.13713925
   1.15214834   1.16340846   1.17554898   1.18916526   1.20104376
   1.21692622   1.21999688   1.22704464   1.23304232   1.24446593
   1.2558037    1.2667929    1.27639151   1.29603852   1.30147503
   1.30939187   1.32095088   1.32425536   1.33405387   1.35224383
   1.35625642   1.37360634   1.38360902   1.39360711   1.43107256
   1.43542915   1.4638685    1.51085921   1.58408647   1.60777204
   1.6490741    1.68132424   1.72081154   1.74687053   1.74963641
   1.76037402   1.77231575   1.79497058   1.80170725   1.80903235
   1.82391086   1.83049752   1.83617109   1.84073009   1.84508721
   1.85602927   1.85837639   1.87153048   1.8761742    1.88647829
   1.89404255   1.90778382   1.91657504   1.93687261   1.94648532
   1.96551525   1.97274698   1.99137957   1.99852269   2.02017024
   2.02692622   2.05064963   2.08179256   2.09737479   2.51420587
   2.52624375   2.54715782   2.56200644   2.58751274   2.59552355
   2.60172916   2.60557466   2.62533996   2.63331886   2.64261885
   2.65257268   2.66322916   2.68274951   2.69857955   2.71649913
   2.72822849   2.73610735   2.77106704   2.79316101   2.82943755
   2.84408103   2.87427418   2.88818092   2.89732731   2.90132351
   2.90763453   2.94276645   2.96116929   2.96879646   2.97514446
   3.00279984   3.00510269   3.01718343   3.01927757   3.0288826
   3.03149982   3.03445023   3.04053683   3.04262171   3.05066833
   3.0558691    3.06770679   3.07366763   3.13444369   3.3405579
   3.3701773    3.41136366   3.41815554   3.42062983   3.43140055
   3.44147183   3.4549463    3.45927764   3.72193685   3.7654825
   3.80155686   3.80983957   3.82749109   3.83132415   3.83602704
   3.85365414   3.87631959   3.91135549   3.92701158   3.95747486
   4.00611223   4.02113347   4.02231623   4.03085652   4.03831024
   4.10199363]
E1 = -2052.852628480427  E_coul = 814.0312165840643
cycle= 5 E= -684.353180352656  delta_E= -9e-05  |g|= 0.00284  |ddm|= 0.0184
    CPU time for cycle= 5      2.33 sec, wall time      0.29 sec
diis-norm(errvec)=0.00540495
diis-c [-1.80053442e-05  1.75538485e-03  4.73244261e-03 -6.59728171e-03
 -1.42177379e-01  1.14228683e+00]
  HOMO = -0.427564553845389  LUMO = 0.15803425171529
  mo_energy =
[-20.61747343 -20.5946187  -20.55092285 -20.5450326  -20.53860578
 -20.52888039 -20.50687072 -20.49568145 -20.48845172  -1.40254833
  -1.379883    -1.33897721  -1.33176226  -1.32100795  -1.31378205
  -1.29253723  -1.28117525  -1.2716859   -0.76102181  -0.74250455
  -0.71398758  -0.70120737  -0.68383178  -0.67932295  -0.67624792
  -0.6587429   -0.63799059  -0.61647009  -0.61256901  -0.58025932
  -0.57588512  -0.55008028  -0.54623715  -0.54274282  -0.53635153
  -0.51758176  -0.51364601  -0.50248489  -0.49964247  -0.48301804
  -0.47825974  -0.47499408  -0.4496315   -0.43819422  -0.42756455
   0.15803425   0.2020796    0.24636267   0.25548859   0.28018138
   0.28241056   0.30234234   0.31330712   0.32992047   0.33597932
   0.36581677   0.39308651   0.40959941   0.42556976   0.44023399
   0.45539464   0.46789375   0.48743481   0.93229144   0.9445787
   0.97360801   1.00462368   1.04373019   1.04461032   1.05058306
   1.06065448   1.0648299    1.08807839   1.09264576   1.09512809
   1.10589232   1.12318595   1.12463609   1.12839095   1.13697593
   1.15205351   1.16330359   1.17539043   1.18906456   1.20094576
   1.21674621   1.21987466   1.22688464   1.2329534    1.24431746
   1.25582037   1.26664366   1.27633866   1.29588893   1.30135479
   1.30924333   1.32091187   1.32410882   1.33401696   1.35205062
   1.35620851   1.37345607   1.38358169   1.39355396   1.43092148
   1.43518112   1.46367614   1.51060001   1.58402269   1.60769072
   1.64903976   1.68108671   1.72077807   1.74684885   1.74952355
   1.76029429   1.7721889    1.79487004   1.80158196   1.80898663
   1.82382077   1.83035938   1.83597944   1.8403571    1.84491817
   1.8559034    1.85830473   1.87148575   1.87610015   1.8862851
   1.89394229   1.9077271    1.9163315    1.93667738   1.946254
   1.96533585   1.97266912   1.99139857   1.99850629   2.02001822
   2.02682609   2.05055305   2.08137679   2.0970863    2.51422824
   2.52622105   2.547071     2.56189575   2.58730062   2.5953751
   2.60164151   2.60562212   2.6251606    2.63321274   2.64248546
   2.65243617   2.66296379   2.68257688   2.69838415   2.71628881
   2.72800973   2.73605282   2.7710253    2.79307969   2.82911634
   2.84410929   2.8741407    2.88797434   2.89725853   2.90121573
   2.90753983   2.94266105   2.96111785   2.96868715   2.97496546
   3.00274306   3.00508421   3.01702999   3.01908232   3.02888162
   3.03139609   3.03424572   3.04045755   3.04250421   3.05049166
   3.05575474   3.06756309   3.07339823   3.13410491   3.34059395
   3.37007817   3.4114003    3.41797561   3.42043618   3.43126198
   3.44115829   3.45484842   3.45907241   3.72203412   3.7654075
   3.80149427   3.8097888    3.82739465   3.83117115   3.83589593
   3.85366042   3.87602159   3.91128139   3.92690984   3.95751354
   4.00592035   4.02098226   4.02218171   4.03068976   4.03826736
   4.10146055]
E1 = -2052.8469853192405  E_coul = 814.0255699484175
cycle= 6 E= -684.353183827116  delta_E= -3.47e-06  |g|= 0.00122  |ddm|= 0.00398
    CPU time for cycle= 6      2.33 sec, wall time      0.29 sec
diis-norm(errvec)=0.00217296
diis-c [-1.71757038e-06  1.16673694e-03  4.40462492e-03  8.17989255e-03
 -1.25125978e-01  2.86327433e-01  8.25047291e-01]
  HOMO = -0.427756728535298  LUMO = 0.158039487276533
  mo_energy =
[-20.61758727 -20.59452052 -20.5514116  -20.54394968 -20.53847129
 -20.52859666 -20.5069284  -20.49564858 -20.48888197  -1.40259665
  -1.37985781  -1.3389509   -1.33166197  -1.3209416   -1.3137043
  -1.29257341  -1.28117363  -1.2718454   -0.76101416  -0.74245247
  -0.71382173  -0.70125382  -0.68375258  -0.67930475  -0.67619866
  -0.65868339  -0.6380779   -0.61648941  -0.61254924  -0.58027244
  -0.57590624  -0.55008111  -0.54623743  -0.54270807  -0.53635044
  -0.51763958  -0.51358229  -0.50260196  -0.49977037  -0.48301417
  -0.47814982  -0.4749435   -0.44970496  -0.43822806  -0.42775673
   0.15803949   0.20208785   0.24636201   0.25547722   0.28017579
   0.28239858   0.3023383    0.31332696   0.32991258   0.33596147
   0.36584933   0.39308929   0.40960953   0.42555689   0.44024029
   0.45541158   0.46791465   0.48747761   0.93227394   0.94460999
   0.97362123   1.00464216   1.04372372   1.0445879    1.05056325
   1.06064009   1.06482381   1.08807499   1.09263258   1.09515077
   1.10587328   1.12318477   1.12462144   1.12840064   1.13697948
   1.1520259    1.1632943    1.17539381   1.18900149   1.20092262
   1.21676302   1.219836     1.22685391   1.23293256   1.24430258
   1.25571276   1.26663047   1.2763256    1.29588472   1.30136936
   1.30925254   1.32088019   1.32409272   1.33399214   1.3520655
   1.35619928   1.3734805    1.38355251   1.39354825   1.43093636
   1.43522305   1.46371883   1.5106731    1.58401827   1.60770843
   1.64902678   1.68113156   1.72074474   1.74682952   1.74952777
   1.76029381   1.77220015   1.79486605   1.8015725    1.80896465
   1.82381135   1.8303592    1.83600276   1.84044318   1.84493649
   1.85589235   1.85827886   1.87142634   1.87607715   1.88629381
   1.89389821   1.90768956   1.91636053   1.93670349   1.94629747
   1.96534888   1.97264441   1.99130618   1.99844929   2.02002656
   2.0268131    2.05053235   2.08148056   2.09715392   2.51423375
   2.52620581   2.54708094   2.56190524   2.58731889   2.59536958
   2.60163044   2.60555523   2.62516404   2.63319691   2.64245474
   2.65240521   2.66300082   2.68255499   2.69837745   2.71629621
   2.72803985   2.7360194    2.77102557   2.7930853    2.82919323
   2.8440529    2.87410861   2.8880095    2.89719994   2.90121527
   2.90753371   2.94267927   2.96111102   2.96869824   2.97498826
   3.00271572   3.00505963   3.01703321   3.01909663   3.02885712
   3.03138975   3.03426622   3.04044171   3.04246978   3.05047596
   3.05573152   3.06751767   3.07346091   3.13413536   3.34058775
   3.37009068   3.41134748   3.41798128   3.42044738   3.43125305
   3.44121637   3.45479843   3.45907142   3.72202256   3.76542162
   3.80147152   3.80976872   3.82739275   3.83117686   3.83588966
   3.85358601   3.87609649   3.91128628   3.92692939   3.95745717
   4.00593353   4.02097639   4.02216518   4.0306855    4.03819126
   4.10161877]
E1 = -2052.844842070397  E_coul = 814.0234263014336
cycle= 7 E= -684.353184225257  delta_E= -3.98e-07  |g|= 0.000263  |ddm|= 0.00113
    CPU time for cycle= 7      2.38 sec, wall time      0.32 sec
diis-norm(errvec)=0.000484155
diis-c [-6.31382651e-08 -1.72131951e-04 -3.90990362e-04 -3.92632213e-04
  1.53429011e-02 -1.11275164e-01 -1.73019258e-02  1.11418994e+00]
  HOMO = -0.42775375091286  LUMO = 0.158051171492587
  mo_energy =
[-20.6175213  -20.59449948 -20.55131125 -20.54407221 -20.53845408
 -20.52859213 -20.50689431 -20.49561343 -20.48880565  -1.40257152
  -1.37985324  -1.33894358  -1.33166698  -1.32093792  -1.31370218
  -1.29256443  -1.28117209  -1.27182588  -0.76097403  -0.74243799
  -0.71381977  -0.70122395  -0.6837391   -0.67928438  -0.67618243
  -0.65867854  -0.63805064  -0.61646338  -0.6125481   -0.5802697
  -0.57590306  -0.55008093  -0.54623831  -0.54271925  -0.53635462
  -0.51763898  -0.51360205  -0.50259696  -0.49975932  -0.48301953
  -0.47817418  -0.47494993  -0.44971049  -0.43824082  -0.42775375
   0.15805117   0.20209317   0.2463703    0.25548145   0.28018333
   0.28239966   0.30234349   0.3133298    0.32991796   0.33596151
   0.36585372   0.39310625   0.40962113   0.42556757   0.44025128
   0.45542358   0.46792086   0.48748739   0.93229166   0.94461789
   0.97362854   1.00464896   1.04373119   1.04459984   1.05057037
   1.06065327   1.06483088   1.08807905   1.09263993   1.09515202
   1.10588069   1.12318874   1.12462681   1.1283961    1.13698645
   1.15203573   1.16330446   1.17539997   1.18900798   1.20093144
   1.21676484   1.21984182   1.2268564    1.23293887   1.24430636
   1.25572103   1.26663456   1.27633956   1.29588984   1.30137628
   1.30926406   1.32089406   1.32409906   1.33400521   1.35207301
   1.35621002   1.37348956   1.38356775   1.39355839   1.43095063
   1.43522242   1.46372681   1.51067374   1.58403111   1.60771637
   1.64904046   1.68113428   1.72075847   1.74684648   1.74953763
   1.76030298   1.77220701   1.79487373   1.8015786    1.80897494
   1.82382503   1.83037028   1.83600726   1.84043891   1.84494277
   1.85589821   1.85828766   1.87143578   1.87608395   1.88629424
   1.89390236   1.90770113   1.91635616   1.93670684   1.94629803
   1.9653502    1.97265035   1.99131768   1.998464     2.02003373
   2.0268242    2.05054476   2.08146906   2.09715342   2.51425421
   2.52622616   2.54708486   2.56190969   2.58732796   2.59538258
   2.60164255   2.6055738    2.62517128   2.63320854   2.64246034
   2.65241236   2.66300468   2.68256083   2.69838213   2.71629811
   2.72804193   2.73602553   2.77104611   2.79309234   2.829196
   2.84407181   2.87411694   2.88801908   2.89721149   2.90122661
   2.9075477    2.94269719   2.96112017   2.96870353   2.97499715
   3.00273406   3.0050672    3.01704003   3.01910527   3.02885818
   3.03139599   3.03427422   3.04043765   3.04248144   3.05049213
   3.05573947   3.06752977   3.07346365   3.13413521   3.34061289
   3.37009605   3.41136617   3.41799129   3.42045559   3.43126335
   3.44121965   3.4548083    3.45907313   3.72205017   3.7654263
   3.80148744   3.80977996   3.82740178   3.83118952   3.83589293
   3.85360003   3.87610169   3.91130704   3.92693661   3.9574792
   4.00594027   4.02098803   4.02217954   4.03069872   4.03820682
   4.10160864]
E1 = -2052.844121336485  E_coul = 814.0227055397798
cycle= 8 E= -684.353184252998  delta_E= -2.77e-08  |g|= 3.77e-05  |ddm|= 0.000367
    CPU time for cycle= 8      2.33 sec, wall time      0.31 sec
diis-norm(errvec)=7.07913e-05
diis-c [-2.33555183e-09 -4.44549150e-05 -1.60026429e-04 -3.69309281e-04
  4.84275694e-03 -1.14304360e-02 -3.27513755e-02  7.52876156e-03
  1.03238408e+00]
  HOMO = -0.427752875791434  LUMO = 0.158051936217281
  mo_energy =
[-20.61752867 -20.59449973 -20.55130965 -20.54405722 -20.53844958
 -20.52859308 -20.5068815  -20.49562099 -20.4887967   -1.40257274
  -1.3798535   -1.33894225  -1.33166515  -1.32093738  -1.31370368
  -1.29256057  -1.28117534  -1.27182423  -0.76097251  -0.74243662
  -0.71381716  -0.70122233  -0.68373695  -0.6792836   -0.67617987
  -0.65867898  -0.63804817  -0.61646212  -0.61254965  -0.58027022
  -0.57590372  -0.55008243  -0.54624032  -0.54272051  -0.53635608
  -0.51763636  -0.51360388  -0.50259644  -0.49975892  -0.48301958
  -0.47817378  -0.47495146  -0.44970682  -0.43824422  -0.42775288
   0.15805194   0.20209282   0.24637025   0.2554816    0.28018353
   0.28240067   0.30234283   0.31332979   0.32991777   0.33596122
   0.36585337   0.39310615   0.40962172   0.42556679   0.44025019
   0.45542227   0.4679197    0.48748644   0.93229188   0.94461727
   0.97362817   1.00464833   1.04373142   1.04460012   1.05057005
   1.06065254   1.06483012   1.0880786    1.09263978   1.09515148
   1.10588006   1.12318827   1.12462618   1.12839485   1.13698528
   1.1520346    1.16330455   1.17539909   1.1890077    1.20093128
   1.21676427   1.21984108   1.22685717   1.23293974   1.2443051
   1.25572223   1.26663446   1.27633999   1.29588954   1.3013762
   1.30926402   1.32089389   1.32409786   1.33400588   1.35207307
   1.35621062   1.37348941   1.38356904   1.39356035   1.43095018
   1.4352232    1.46372687   1.51067461   1.5840311    1.60771615
   1.64904072   1.68113324   1.72075807   1.74684676   1.74953744
   1.76030277   1.77220684   1.79487283   1.80157787   1.80897459
   1.82382514   1.83036934   1.83600706   1.84043897   1.84494132
   1.85589956   1.85828926   1.87143556   1.87608348   1.88629297
   1.89390235   1.90770058   1.91635615   1.9367063    1.94629707
   1.96534959   1.97265223   1.99131803   1.99846358   2.02003251
   2.0268237    2.05054436   2.08146828   2.09715355   2.51425702
   2.52622671   2.54708511   2.56190931   2.58732764   2.59538213
   2.60164275   2.60557424   2.62516978   2.63320881   2.64245945
   2.65241129   2.66300452   2.68256084   2.69838114   2.71629709
   2.72804115   2.73602872   2.77104707   2.79309243   2.82919658
   2.84407236   2.87411626   2.88801935   2.89721134   2.90122676
   2.90754806   2.94269819   2.96112013   2.96870285   2.97499827
   3.00273319   3.00506862   3.01703937   3.01910391   3.02886192
   3.03139566   3.034273     3.0404374    3.04248076   3.05049094
   3.05573948   3.06752775   3.07346455   3.13413244   3.34061486
   3.37009624   3.41136691   3.41799078   3.42045449   3.43126438
   3.44121985   3.45480791   3.4590721    3.72205234   3.76542646
   3.80148741   3.80978204   3.82740146   3.83118924   3.83589171
   3.85360083   3.87610207   3.9113075    3.92693671   3.95747963
   4.0059397    4.02098685   4.02217993   4.03069879   4.03820716
   4.10160962]
E1 = -2052.844085790323  E_coul = 814.0226699929963
cycle= 9 E= -684.35318425362  delta_E= -6.22e-10  |g|= 1.17e-05  |ddm|= 5.54e-05
    CPU time for cycle= 9      2.35 sec, wall time      0.30 sec
  HOMO = -0.427754331067583  LUMO = 0.158052461206954
  mo_energy =
[-20.61752189 -20.59449822 -20.55131168 -20.54406014 -20.53845079
 -20.52859061 -20.50688733 -20.49561562 -20.48880372  -1.40257014
  -1.37985294  -1.33894266  -1.33166566  -1.3209376   -1.3137027
  -1.29256182  -1.2811734   -1.27182613  -0.76097055  -0.74243622
  -0.71381726  -0.70122235  -0.68373657  -0.67928314  -0.6761798
  -0.65867772  -0.63804962  -0.61646081  -0.61254923  -0.58027017
  -0.57590341  -0.55008204  -0.54623977  -0.54271966  -0.53635554
  -0.5176374   -0.51360316  -0.50259752  -0.49975958  -0.48301963
  -0.47817391  -0.47495027  -0.4497078   -0.43824239  -0.42775433
   0.15805246   0.20209298   0.24637032   0.25548163   0.28018359
   0.28240057   0.30234289   0.31332968   0.32991779   0.33596116
   0.36585346   0.39310623   0.4096217    0.42556667   0.44025047
   0.45542264   0.46792014   0.48748658   0.93229238   0.94461754
   0.97362825   1.00464853   1.04373129   1.04460029   1.05056991
   1.06065296   1.06483037   1.08807854   1.09263969   1.09515136
   1.10588006   1.1231883    1.12462617   1.12839519   1.13698547
   1.15203479   1.16330467   1.17539932   1.18900718   1.20093141
   1.21676447   1.21984145   1.22685681   1.2329395    1.24430607
   1.25572123   1.2666345    1.2763407    1.29588955   1.30137656
   1.30926438   1.32089453   1.32409819   1.33400569   1.35207321
   1.35621079   1.37348954   1.38356857   1.39356002   1.43095017
   1.43522298   1.46372706   1.51067461   1.58403137   1.6077163
   1.64904097   1.68113371   1.72075793   1.74684786   1.749538
   1.7603032    1.77220722   1.7948733    1.80157809   1.80897472
   1.82382587   1.83036974   1.83600718   1.84043887   1.84494173
   1.85589934   1.85828901   1.87143502   1.87608337   1.88629363
   1.89390189   1.90770074   1.9163561    1.93670664   1.94629752
   1.96535004   1.9726517    1.9913171    1.99846331   2.02003282
   2.02682393   2.05054464   2.08146877   2.0971535    2.51425768
   2.52622819   2.547085     2.56190954   2.58732766   2.59538212
   2.60164275   2.6055741    2.62516989   2.6332089    2.64245949
   2.65241102   2.66300454   2.68256027   2.69838132   2.71629761
   2.72804153   2.73602813   2.77104823   2.79309256   2.82919672
   2.84407224   2.87411626   2.88801959   2.89721099   2.90122703
   2.90754829   2.94269895   2.96112029   2.96870283   2.97499847
   3.00273319   3.00506834   3.01703939   3.01910403   3.0288614
   3.03139567   3.03427309   3.04043784   3.04248044   3.050491
   3.05573903   3.06752738   3.07346487   3.13413328   3.34061593
   3.37009624   3.4113667    3.41799079   3.42045467   3.43126416
   3.44121992   3.45480747   3.45907253   3.72205368   3.76542649
   3.80148724   3.80978147   3.82740161   3.83118905   3.83589238
   3.8535998    3.87610243   3.91130847   3.92693689   3.95747954
   4.00594013   4.02098729   4.02217959   4.0306987    4.03820614
   4.10160947]
E1 = -2052.84410200023  E_coul = 814.022686202847
Extra cycle  E= -684.353184253676  delta_E= -5.64e-11  |g|= 6.13e-06  |ddm|= 1.67e-05
    CPU time for scf_cycle     35.59 sec, wall time      4.56 sec
    CPU time for SCF     35.66 sec, wall time      4.57 sec
converged SCF energy = -684.353184253676
