Atom number=6                                                           
SP        RHF                                                         6-31G(d,p)          
Number of atoms                            I                6
Info1-9                                    I   N=           9
         107         106           0           0           0         111
           1           1           2
Full Title                                 C   N=           2
Atom number=6           
Route                                      C   N=           4
#p hf/6-31g** 5d 7f pop=npa charge nosymm       
Charge                                     I                0
Multiplicity                               I                1
Number of electrons                        I               20
Number of alpha electrons                  I               10
Number of beta electrons                   I               10
Number of basis functions                  I               48
Number of independent functions            I               48
Number of point charges in /Mol/           I                0
Number of translation vectors              I                0
Atomic numbers                             I   N=           6
           8           8           1           1           1           1
Nuclear charges                            R   N=           6
  8.00000000E+00  8.00000000E+00  1.00000000E+00  1.00000000E+00  1.00000000E+00
  1.00000000E+00
Current cartesian coordinates              R   N=          18
  2.16779838E+01 -2.90173418E+01 -1.42069912E+01  2.42145046E+01 -2.46013372E+01
 -1.39203349E+01  2.05307462E+01 -2.90181619E+01 -1.56054812E+01  2.25019856E+01
 -2.74096119E+01 -1.42973126E+01  2.35873725E+01 -2.34649901E+01 -1.26604337E+01
  2.39147676E+01 -2.37503916E+01 -1.54881292E+01
Number of symbols in /Mol/                 I                0
Force Field                                I                0
Atom Types                                 C   N=           6
                                                            
            
Int Atom Types                             I   N=           6
           0           0           0           0           0           0
MM charges                                 R   N=           6
  0.00000000E+00  0.00000000E+00  0.00000000E+00  0.00000000E+00  0.00000000E+00
  0.00000000E+00
Integer atomic weights                     I   N=           6
          16          16           1           1           1           1
Real atomic weights                        R   N=           6
  1.59949146E+01  1.59949146E+01  1.00782504E+00  1.00782504E+00  1.00782504E+00
  1.00782504E+00
Atom fragment info                         I   N=           6
           0           0           0           0           0           0
Atom residue num                           I   N=           6
           0           0           0           0           0           0
Nuclear spins                              I   N=           6
           0           0           1           1           1           1
Nuclear ZEff                               R   N=           6
 -5.60000000E+00 -5.60000000E+00 -1.00000000E+00 -1.00000000E+00 -1.00000000E+00
 -1.00000000E+00
Nuclear ZNuc                               R   N=           6
  8.00000000E+00  8.00000000E+00  1.00000000E+00  1.00000000E+00  1.00000000E+00
  1.00000000E+00
Nuclear QMom                               R   N=           6
  0.00000000E+00  0.00000000E+00  0.00000000E+00  0.00000000E+00  0.00000000E+00
  0.00000000E+00
Nuclear GFac                               R   N=           6
  0.00000000E+00  0.00000000E+00  2.79284600E+00  2.79284600E+00  2.79284600E+00
  2.79284600E+00
MicOpt                                     I   N=           6
          -1          -1          -1          -1          -1          -1
Number of residues                         I                0
Number of secondary structures             I                0
Number of contracted shells                I               20
Number of primitive shells                 I               42
Pure/Cartesian d shells                    I                0
Pure/Cartesian f shells                    I                0
Highest angular momentum                   I                2
Largest degree of contraction              I                6
Shell types                                I   N=          20
           0          -1          -1          -2           0          -1
          -1          -2           0           0           1           0
           0           1           0           0           1           0
           0           1
Number of primitives per shell             I   N=          20
           6           3           1           1           6           3
           1           1           3           1           1           3
           1           1           3           1           1           3
           1           1
Shell to atom map                          I   N=          20
           1           1           1           1           2           2
           2           2           3           3           3           4
           4           4           5           5           5           6
           6           6
Primitive exponents                        R   N=          42
  5.48467166E+03  8.25234946E+02  1.88046958E+02  5.29645000E+01  1.68975704E+01
  5.79963534E+00  1.55396162E+01  3.59993359E+00  1.01376175E+00  2.70005823E-01
  8.00000000E-01  5.48467166E+03  8.25234946E+02  1.88046958E+02  5.29645000E+01
  1.68975704E+01  5.79963534E+00  1.55396162E+01  3.59993359E+00  1.01376175E+00
  2.70005823E-01  8.00000000E-01  1.87311370E+01  2.82539436E+00  6.40121692E-01
  1.61277759E-01  1.10000000E+00  1.87311370E+01  2.82539436E+00  6.40121692E-01
  1.61277759E-01  1.10000000E+00  1.87311370E+01  2.82539436E+00  6.40121692E-01
  1.61277759E-01  1.10000000E+00  1.87311370E+01  2.82539436E+00  6.40121692E-01
  1.61277759E-01  1.10000000E+00
Contraction coefficients                   R   N=          42
  1.83107443E-03  1.39501722E-02  6.84450781E-02  2.32714336E-01  4.70192898E-01
  3.58520853E-01 -1.10777550E-01 -1.48026263E-01  1.13076702E+00  1.00000000E+00
  1.00000000E+00  1.83107443E-03  1.39501722E-02  6.84450781E-02  2.32714336E-01
  4.70192898E-01  3.58520853E-01 -1.10777550E-01 -1.48026263E-01  1.13076702E+00
  1.00000000E+00  1.00000000E+00  3.34946043E-02  2.34726953E-01  8.13757326E-01
  1.00000000E+00  1.00000000E+00  3.34946043E-02  2.34726953E-01  8.13757326E-01
  1.00000000E+00  1.00000000E+00  3.34946043E-02  2.34726953E-01  8.13757326E-01
  1.00000000E+00  1.00000000E+00  3.34946043E-02  2.34726953E-01  8.13757326E-01
  1.00000000E+00  1.00000000E+00
P(S=P) Contraction coefficients            R   N=          42
  0.00000000E+00  0.00000000E+00  0.00000000E+00  0.00000000E+00  0.00000000E+00
  0.00000000E+00  7.08742682E-02  3.39752839E-01  7.27158577E-01  1.00000000E+00
  0.00000000E+00  0.00000000E+00  0.00000000E+00  0.00000000E+00  0.00000000E+00
  0.00000000E+00  0.00000000E+00  7.08742682E-02  3.39752839E-01  7.27158577E-01
  1.00000000E+00  0.00000000E+00  0.00000000E+00  0.00000000E+00  0.00000000E+00
  0.00000000E+00  0.00000000E+00  0.00000000E+00  0.00000000E+00  0.00000000E+00
  0.00000000E+00  0.00000000E+00  0.00000000E+00  0.00000000E+00  0.00000000E+00
  0.00000000E+00  0.00000000E+00  0.00000000E+00  0.00000000E+00  0.00000000E+00
  0.00000000E+00  0.00000000E+00
Coordinates of each shell                  R   N=          60
  2.16779838E+01 -2.90173418E+01 -1.42069912E+01  2.16779838E+01 -2.90173418E+01
 -1.42069912E+01  2.16779838E+01 -2.90173418E+01 -1.42069912E+01  2.16779838E+01
 -2.90173418E+01 -1.42069912E+01  2.42145046E+01 -2.46013372E+01 -1.39203349E+01
  2.42145046E+01 -2.46013372E+01 -1.39203349E+01  2.42145046E+01 -2.46013372E+01
 -1.39203349E+01  2.42145046E+01 -2.46013372E+01 -1.39203349E+01  2.05307462E+01
 -2.90181619E+01 -1.56054812E+01  2.05307462E+01 -2.90181619E+01 -1.56054812E+01
  2.05307462E+01 -2.90181619E+01 -1.56054812E+01  2.25019856E+01 -2.74096119E+01
 -1.42973126E+01  2.25019856E+01 -2.74096119E+01 -1.42973126E+01  2.25019856E+01
 -2.74096119E+01 -1.42973126E+01  2.35873725E+01 -2.34649901E+01 -1.26604337E+01
  2.35873725E+01 -2.34649901E+01 -1.26604337E+01  2.35873725E+01 -2.34649901E+01
 -1.26604337E+01  2.39147676E+01 -2.37503916E+01 -1.54881292E+01  2.39147676E+01
 -2.37503916E+01 -1.54881292E+01  2.39147676E+01 -2.37503916E+01 -1.54881292E+01
Num ILSW                                   I              100
ILSW                                       I   N=         100
           0           0           0           0           2           0
           0           0           0           0           0          -1
           5           0           0           0           0           0
           0           0           0           0           0           0
           1           1           0           0           0           0
           0           0      100000           0          -1           0
           0           0           0           0           0           0
           0           0           0           1           0           0
           0 -2000000000           1           0           0           0
           0           0           4          52           0           0
           0           1           0           0           0           0
           0           0           0           6           0           1
           0           0           0           0           0           0
           0           0           0           0           0           0
           0           0           0           0           0           0
           0           0           0           0           0           0
           0           0           0           0
Num RLSW                                   I               52
RLSW                                       R   N=          52
  1.00000000E+00  1.00000000E+00  1.00000000E+00  1.00000000E+00  1.00000000E+00
  0.00000000E+00  0.00000000E+00  1.00000000E+00  0.00000000E+00  0.00000000E+00
  0.00000000E+00  0.00000000E+00  1.00000000E+00  0.00000000E+00  0.00000000E+00
  0.00000000E+00  0.00000000E+00  1.00000000E+00  0.00000000E+00  0.00000000E+00
  0.00000000E+00  0.00000000E+00  1.00000000E+00  0.00000000E+00  0.00000000E+00
  0.00000000E+00  0.00000000E+00  1.00000000E+00  0.00000000E+00  0.00000000E+00
  0.00000000E+00  0.00000000E+00  1.00000000E+00  0.00000000E+00  0.00000000E+00
  0.00000000E+00  0.00000000E+00  0.00000000E+00  1.00000000E+00  1.00000000E+00
  0.00000000E+00  1.00000000E+00  0.00000000E+00  0.00000000E+00  0.00000000E+00
  0.00000000E+00  0.00000000E+00  0.00000000E+00  0.00000000E+00  0.00000000E+00
  0.00000000E+00  0.00000000E+00
MxBond                                     I                2
NBond                                      I   N=           6
           2           2           1           1           1           1
IBond                                      I   N=          12
           3           4           5           6           1           0
           1           0           2           0           2           0
RBond                                      R   N=          12
  1.00000000E+00  1.00000000E+00  1.00000000E+00  1.00000000E+00  1.00000000E+00
  0.00000000E+00  1.00000000E+00  0.00000000E+00  1.00000000E+00  0.00000000E+00
  1.00000000E+00  0.00000000E+00
Virial Ratio                               R      2.097685966765650E+00
SCF Energy                                 R     -1.666978179098258E+02
Total Energy                               R     -1.666978179098258E+02
RMS Density                                R      4.025054711574502E-09
Job Status                                 I                1
Nuclear derivative order                   I                0
External E-field                           R   N=          35
  0.00000000E+00  0.00000000E+00  0.00000000E+00  0.00000000E+00  0.00000000E+00
  0.00000000E+00  0.00000000E+00  0.00000000E+00  0.00000000E+00  0.00000000E+00
  0.00000000E+00  0.00000000E+00  0.00000000E+00  0.00000000E+00  0.00000000E+00
  0.00000000E+00  0.00000000E+00  0.00000000E+00  0.00000000E+00  0.00000000E+00
  0.00000000E+00  0.00000000E+00  0.00000000E+00  0.00000000E+00  0.00000000E+00
  0.00000000E+00  0.00000000E+00  0.00000000E+00  0.00000000E+00  0.00000000E+00
  0.00000000E+00  0.00000000E+00  0.00000000E+00  0.00000000E+00  0.00000000E+00
IOpCl                                      I                0
IROHF                                      I                0
Alpha Orbital Energies                     R   N=          48
 -2.06262241E+01 -2.05492989E+01 -1.41261891E+00 -1.33741373E+00 -7.71927819E-01
 -7.18643903E-01 -6.34240303E-01 -5.86226575E-01 -5.45035295E-01 -4.95707928E-01
  1.61356481E-01  2.42651236E-01  2.71904834E-01  4.28481182E-01  9.31328494E-01
  1.00209483E+00  1.03833767E+00  1.07363069E+00  1.10155331E+00  1.16753577E+00
  1.19912363E+00  1.23338471E+00  1.28015748E+00  1.33278969E+00  1.56198028E+00
  1.72524773E+00  1.74025243E+00  1.77299096E+00  1.81803277E+00  1.85964205E+00
  1.92681587E+00  1.95657625E+00  2.50771688E+00  2.51105085E+00  2.59358784E+00
  2.71239717E+00  2.74785354E+00  2.87216140E+00  2.92645675E+00  2.98448759E+00
  2.99315065E+00  3.03565899E+00  3.32713992E+00  3.39658872E+00  3.69148212E+00
  3.78987926E+00  3.88052190E+00  3.99316797E+00
Alpha MO coefficients                      R   N=        2304
  1.04901764E-04  3.98257568E-04  6.19234979E-05  8.46524600E-05  6.11144635E-06
 -1.34233172E-03 -4.37290655E-04 -6.90304711E-04 -5.33045477E-05  5.18651351E-05
 -1.14118901E-05 -3.98224257E-06  5.47021967E-05 -7.90312735E-05  9.95704820E-01
  2.22504208E-02 -1.02102143E-03  1.65087337E-03 -2.94202094E-04 -6.33220661E-03
  7.39803634E-04 -1.05661056E-04  2.40697694E-04  4.00235293E-04 -1.01196001E-04
  3.01508990E-05 -1.34323980E-04 -2.88570349E-04  1.13902188E-04 -4.09478063E-04
 -6.11679757E-06  1.02052654E-05 -1.79969408E-05  2.19279820E-04  1.96958964E-03
  6.99383039E-05  1.00649748E-04  7.40583108E-05 -5.61518521E-04  1.03876390E-03
 -4.89656781E-04  7.51591933E-04  8.19660019E-04 -4.37062472E-04  1.00260216E-03
 -2.59838099E-04  5.38149858E-04 -1.02174100E-03  9.95727957E-01  2.24093470E-02
 -3.30282294E-04  1.50930985E-03 -1.38955410E-03 -7.50515391E-03 -3.93831789E-04
 -1.54675926E-03  5.68040279E-04  5.60405146E-05  3.27938274E-04  1.62684172E-05
  5.68531300E-05  1.44149685E-04 -6.98640796E-05  3.71560492E-04 -9.06484439E-05
 -1.67011815E-04 -2.28441671E-05 -7.67012338E-04  4.53765965E-04  9.47463565E-04
  1.86251761E-04  5.88438391E-05 -5.00122912E-05 -1.18998351E-06  3.10010093E-05
 -1.54127136E-04 -4.36094265E-04  8.15695578E-04 -7.38428786E-04  8.78033817E-05
 -9.62015778E-04 -2.87959809E-04  3.47330891E-03  4.33221110E-04  8.76229565E-04
 -5.89785941E-05 -3.09089101E-05 -2.63395798E-04 -7.31468524E-05 -1.77814231E-05
  5.10239685E-05  1.52970705E-04 -3.39621214E-04 -4.18832743E-05 -5.77173983E-05
 -5.14338499E-05 -2.21304856E-02  4.74725269E-02  1.52815797E-03  1.05795278E-02
 -4.88909948E-03  4.66872948E-02  1.72910113E-03  5.92957457E-03 -1.42813083E-03
 -3.72488344E-04  7.31599130E-05 -2.73343887E-04 -5.75091970E-04  5.41053018E-04
 -2.11308897E-01  4.66759995E-01 -3.79026427E-02  6.86988890E-02 -1.20916942E-02
  4.44083894E-01 -1.97009379E-02  2.10993617E-02 -8.19124262E-03 -6.10827704E-05
  1.81096718E-04  1.24039196E-04 -2.39015733E-03 -1.20083365E-03  1.31848442E-02
  2.64075125E-03  1.78717767E-03  3.28770418E-04  2.00162712E-03  2.42911361E-02
 -1.89300071E-03 -1.37349973E-03 -2.24267901E-03 -2.41139295E-04  1.42758844E-01
  1.07252400E-02  8.42114145E-03 -1.48323188E-02 -1.98255796E-02  1.39628851E-01
  5.53470449E-03  3.13226928E-03 -1.06942989E-02  2.41656070E-02 -2.11024220E-01
  4.64029784E-01 -1.26336080E-02  6.05258880E-02 -5.47682972E-02  4.47706569E-01
 -4.84895474E-03  2.74738871E-02 -2.06649159E-02 -6.89991729E-05  1.95546562E-03
 -2.47870351E-03 -1.66280023E-03  1.28951880E-03  2.50059031E-02 -5.66817151E-02
  5.41001187E-04 -1.75787560E-02  7.81346755E-04 -5.14348553E-02 -1.66887087E-03
 -1.11800388E-02  3.34630460E-04 -4.21654260E-04  1.48905753E-04  1.65994155E-04
  3.16202895E-04  1.10145746E-03  1.43636864E-01  1.37642705E-02  1.70580578E-02
  2.16440374E-03  1.96594061E-02  1.39792705E-01 -9.92677959E-04 -1.32458334E-02
 -2.22943284E-02 -1.00483433E-03 -1.99128609E-02 -3.46779653E-04 -1.05386492E-03
  1.88022991E-03  2.53785984E-03 -1.90568997E-02  1.58940364E-03 -4.35324043E-04
  1.17742582E-03 -2.94381165E-03 -3.45325282E-03  7.32146518E-03 -2.01746641E-02
 -2.10020808E-02 -1.94848909E-03  1.46243472E-02 -1.08735143E-02 -1.05626134E-02
  1.91134368E-03  6.15881068E-04  1.13606398E-03  1.13048248E-03  9.43447586E-04
 -7.81426872E-04  2.01891607E-03 -2.51106224E-03 -5.58375758E-02  6.82691837E-02
  4.98088851E-01 -1.71408314E-02 -3.08732446E-02  4.00704241E-02  2.85873080E-01
 -8.62009630E-03 -1.50123804E-02  2.71280389E-02 -1.54514964E-03 -5.59807443E-03
  1.14286697E-02  4.89016295E-03  3.40773740E-04 -6.61603178E-04  1.04089744E-03
 -1.81097850E-02 -1.35324229E-02  5.08027598E-04  1.16872215E-03  4.13521814E-04
  2.43414300E-01  1.23417709E-01  9.23437749E-03 -1.80972332E-02 -9.08427032E-03
 -2.27395759E-01 -1.05389961E-01 -5.52180815E-03  1.65663256E-02 -1.39625479E-02
  7.69070126E-03 -1.68634517E-02  3.01733011E-01  2.73521597E-01  1.81519383E-01
 -2.67856160E-02  1.69076653E-01  1.55382473E-01  9.91686429E-02 -1.49626627E-02
 -1.53473480E-02 -2.30962755E-03 -1.61816753E-02  1.17515975E-02 -1.32200054E-02
  3.05994480E-02 -3.81221386E-02 -2.23515344E-01  5.61960199E-02  6.33178138E-02
 -3.03448734E-02 -1.52589353E-01  3.42945355E-02 -1.18085853E-04 -7.48658117E-04
  4.59322242E-03  6.97928984E-03  6.94422844E-03 -2.07119745E-01 -1.12146192E-01
 -8.57046353E-03  7.11524994E-03 -1.60478877E-02  2.21886990E-01  1.19872655E-01
 -5.20373215E-03 -1.69317464E-02  5.65822466E-03 -3.80367681E-02 -1.58111237E-02
 -3.13740758E-03 -2.87106696E-03  5.84571525E-03 -7.26276072E-02 -3.18781717E-02
 -2.46501639E-03 -1.23291562E-03 -7.78115199E-03 -1.90749518E-02  4.16259724E-02
  1.40085676E-01  6.31231830E-02  1.43937197E-01  9.17782948E-02  8.44876510E-02
  4.11635012E-02  8.98342839E-02 -7.04292645E-03 -8.05783302E-03  2.14307918E-03
 -5.68445619E-03  4.22510981E-03  6.42884300E-02 -1.53793564E-01 -2.54199456E-01
  4.40576831E-01 -8.43955904E-02 -2.74471146E-01 -1.85266285E-01  3.06789392E-01
 -5.95929240E-02 -7.43579627E-03  2.75450237E-03 -6.41506941E-03 -1.07585141E-02
 -2.02108948E-02 -1.11161691E-01 -6.23344917E-02 -4.74904402E-03  1.49275888E-03
 -6.90514618E-03  5.60862031E-02 -9.70028010E-03 -2.97222966E-03 -8.99732489E-03
  3.70224393E-03  1.28642166E-01  7.96704431E-02 -1.19526266E-03  1.99212301E-03
 -1.59831830E-02  1.34544986E-01  6.98879293E-02 -4.71694090E-03  3.65680258E-03
  1.48874397E-02 -5.53602399E-02  1.30653120E-01  1.29059777E-01 -2.26414820E-01
  2.91027167E-01  2.34031269E-01  8.54515734E-02 -1.72237369E-01  2.03186659E-01
 -5.24011627E-03 -9.87089121E-03  1.51632904E-02  5.98549061E-03  4.21417712E-03
 -1.33289371E-02  3.54942714E-02  4.09184619E-01  1.12087812E-01  2.49788516E-02
  4.82791168E-02  3.21598986E-01  9.00590650E-02  2.48087196E-02  3.06748201E-03
 -4.16792146E-03 -9.05935991E-04 -1.18449696E-02  9.87262641E-03 -1.41870110E-01
 -9.20410432E-02 -8.22563802E-03 -7.12502361E-03 -6.17291741E-03 -6.48706781E-02
 -3.63024985E-02  7.78762773E-03 -1.68182227E-03  8.53558370E-03 -2.18359164E-02
 -1.38607723E-02  1.14839698E-02  5.45091807E-03  2.74419412E-03 -7.90706481E-03
 -1.06886404E-02  1.19052668E-02  4.09290519E-03 -5.75663859E-04  3.68927975E-02
 -8.97301409E-02  4.43414065E-02  3.38193248E-01 -2.37036723E-01 -1.50937513E-01
  3.40591343E-02  2.49767054E-01 -1.82038919E-01  8.64069571E-04  1.79886448E-03
 -1.73908019E-02 -1.18049013E-02  1.23637506E-03  1.09384080E-02 -2.34782902E-02
  3.84191270E-01  2.52324982E-01  2.76401081E-02 -5.47916538E-02  3.05121091E-01
  1.93630207E-01  1.86021870E-02 -3.62648152E-04 -2.92302775E-03 -2.50928379E-04
 -1.66400774E-02  7.92085766E-03  5.93111717E-02  3.06338988E-02  6.55616968E-03
  1.02849336E-02 -3.96298521E-04  1.26416712E-01  2.36332509E-02 -8.85463321E-03
 -1.08937743E-02 -6.48429015E-03  2.09801325E-02  1.72482840E-02  1.33549465E-02
  6.35964826E-03 -1.03954862E-03  9.01431725E-03  1.70043191E-02  1.19129674E-02
  6.79084218E-03  2.42378807E-03 -2.26157249E-03  7.49897279E-03  4.45121824E-01
 -2.65892277E-01 -3.58399138E-01  5.92222857E-03  3.58827086E-01 -2.12605238E-01
 -2.89726935E-01  1.84410637E-02 -9.48485872E-03 -3.76276331E-03  4.47645357E-03
  1.58187471E-02  8.05584200E-04 -1.55293580E-03 -4.23512424E-02 -7.68547407E-03
  4.36128006E-03 -4.50724971E-03 -2.66580035E-02 -1.02190932E-02 -2.92525436E-03
 -5.46669249E-05  9.44657350E-04  7.52073406E-04 -1.45962796E-04 -1.81086679E-03
 -6.26169459E-04 -4.52413173E-03  1.38879166E-02 -8.37688197E-03 -1.15260858E-02
 -4.33571195E-03 -1.12681205E-03  1.39947419E-02 -7.13444097E-03 -1.09996367E-02
  1.09860299E-02 -7.48254361E-04 -1.27821571E-03 -1.06447703E-03 -7.35269818E-04
 -2.06188657E-03  1.32680658E-03 -1.78693205E-03  8.44917181E-05  1.99165727E-04
 -2.63495454E-02  4.00361574E-02  2.39319996E-03  6.83721906E-02 -3.77359795E-02
  3.18632960E-01 -2.10228096E-02  1.02573830E-01 -9.37824383E-02  1.24672962E-03
  4.48549825E-03 -3.62657330E-03 -1.23984865E-03  3.89999033E-04 -8.69299091E-02
  1.11157735E-01 -1.02158575E-01  1.64250619E-01  1.75620181E-02  1.16741772E+00
 -2.31430836E-01  3.78400958E-01  7.46680724E-02  3.10162169E-03 -3.91128909E-03
  4.74784472E-03 -9.28362629E-03 -1.39548904E-02 -1.16854075E-02 -2.81169432E-01
 -3.16107876E-03  7.07423073E-04 -4.15705246E-03 -7.22446993E-03 -2.37535916E-01
  1.03250058E-03  1.52341315E-03  1.62244788E-03 -6.68977315E-02 -1.15307659E+00
 -4.42905581E-03  8.96191868E-03  1.01271900E-02 -4.80622176E-02 -7.06341329E-01
  6.03933720E-04  3.86433229E-03 -5.61879517E-03  6.96000904E-02 -8.08706537E-02
  1.22510406E-01 -3.80604126E-02  1.74079163E-01 -9.96981758E-01  2.87097447E-01
 -1.00186255E-01  4.22226607E-01 -8.49375788E-03 -1.98070496E-02  7.12205776E-03
 -2.41837046E-03 -3.10148825E-04 -7.27915271E-03 -6.45300462E-03 -3.57392411E-03
  1.02775856E-01  1.34622401E-01  1.93096349E-01 -4.74368449E-02  1.86685638E-01
  3.45853345E-01 -5.43108669E-03 -6.17955419E-03  1.28241989E-02 -5.18284817E-03
 -2.76781883E-03  5.67051917E-02  1.35803397E+00  1.18371002E-02  2.62425922E-03
  1.33804338E-02  3.07335691E-02  3.09981302E-01 -2.63548481E-03 -4.22717513E-03
 -1.85054010E-04 -3.70455106E-02 -8.07238667E-01 -9.10696513E-04  6.05469204E-03
  6.00666911E-03  4.12996204E-03  3.82153728E-01  5.26067725E-05 -2.57656673E-03
  5.71776408E-03 -2.93931245E-02  3.80551874E-02 -6.91247019E-02 -1.18901466E-04
 -7.27263642E-02  4.11382134E-01 -1.56165471E-01  1.03421473E-02 -1.97009110E-01
  4.61578373E-03  8.27826430E-03 -4.16177059E-03  1.56200643E-03 -1.17838915E-03
  1.89250894E-02 -2.83097559E-02 -2.34301100E-02 -3.81820488E-02  3.02673249E-01
 -2.68645279E-01 -4.47634384E-02 -3.37573489E-02  7.46943021E-01 -3.83182788E-03
 -1.14214667E-02  2.04698536E-02  2.14169107E-03 -3.15584280E-03 -3.59343958E-02
 -6.50414267E-01 -4.30666479E-03 -2.77067689E-05 -4.99512314E-03 -1.64587699E-02
 -4.23615029E-02 -7.57037794E-04  7.68304575E-04  8.58772735E-06 -4.24454670E-02
 -1.00211756E+00 -3.38902848E-03  3.75662505E-03  9.88393776E-03  7.99667104E-02
  1.48517709E+00 -1.42861059E-03 -4.08237627E-03  1.02758184E-02  5.00342982E-02
 -9.36640108E-02 -2.03510748E-01 -2.37580005E-01 -8.30638406E-02 -6.92818572E-01
 -5.49284621E-01 -6.59887756E-01 -2.18816872E-01  1.23054364E-02  5.99601964E-03
  3.60717256E-03  1.50331135E-02 -1.38067380E-02  1.98450147E-02 -7.88942860E-02
  6.83208302E-02  2.27229227E-01 -1.13176273E-02  3.34133416E-02  1.20718429E-01
  4.33974491E-01 -3.50689300E-02 -1.15455455E-02  6.20902141E-04  6.71776105E-03
 -1.02713305E-02  3.71122019E-03 -5.39596556E-02 -8.85691189E-01 -3.97649778E-03
  3.55989270E-04 -5.26975523E-03  1.06603366E-01  2.16426549E+00 -1.31501510E-02
 -1.43596136E-02 -7.07073348E-03 -1.34131077E-02 -2.83072143E-01  1.56537992E-03
  3.99109824E-03 -9.05184822E-04 -6.92951484E-02 -3.86037683E-01 -1.42429926E-03
 -3.21903295E-03 -4.32244460E-05 -1.06882611E-02  5.89997009E-02 -4.41506278E-02
  1.06593256E-02  1.13208739E-01  4.56523615E-02 -5.16026416E-02 -4.10454195E-02
 -1.82529243E-01 -2.68476134E-02 -3.16413402E-02 -1.41753280E-02 -2.46273020E-02
  2.12623937E-02  7.06389008E-04 -2.26737314E-02  3.40100259E-02 -1.02685812E-01
 -6.79842601E-02  9.10707566E-02  1.05599815E-02 -8.50642304E-03 -4.42954010E-01
 -3.50110004E-02 -9.43297404E-02  2.22512845E-01 -2.19121842E-02 -4.26701625E-02
 -2.34358089E-01  1.35107204E-01 -1.71450241E-04 -5.23822792E-03  1.48322923E-02
  1.75868274E-01 -2.57691719E-01  1.05604635E-02  2.15526612E-02 -3.88953888E-02
  7.96791250E-01 -5.85127278E-01 -4.77617644E-02  9.34474728E-02  5.06465892E-02
 -6.70708829E-01  4.89632011E-01  3.17550508E-02 -6.43287600E-02  2.63722182E-02
  3.04161880E-03 -1.32869673E-02 -1.21600493E-02  1.13121186E-01  4.85788778E-02
 -1.34255517E-01  2.45979570E-01  7.87275097E-02  1.17752810E-01  1.28587307E-01
  9.44262636E-02  4.52557047E-03  1.23666226E-01 -1.19554963E-01  3.06482451E-03
  6.06590963E-02 -3.41423863E-01  4.97697874E-02 -1.40261611E-01 -2.70566177E-01
  4.32946096E-01  8.92170679E-02  8.41862285E-02 -4.20381580E-02 -4.01047058E-02
  6.78857551E-02  2.41660096E-02 -3.03733580E-02  5.64492117E-01 -5.25599163E-01
 -2.63527348E-02  5.29963827E-02 -6.02799311E-02 -7.63379945E-01  9.15573928E-01
 -2.77948103E-02 -1.11755419E-01  2.14424756E-02  1.02343363E-01 -1.55104280E-01
 -2.07201423E-02  6.56331467E-03 -2.27069548E-02 -2.76876893E-01  2.98061085E-01
  5.70306162E-04 -6.02518033E-02  7.15813244E-02  2.25936651E-02 -1.66219424E-01
 -1.67251224E-02 -1.08494882E-01  1.22640988E-01  2.40498532E-01  1.57811926E-01
  1.36297589E-01  3.29611166E-02  2.69442020E-02  1.19209250E-01  9.52982299E-03
  2.92736182E-02  4.29557486E-02  4.74404360E-02 -3.72281547E-01  2.83758086E-01
 -6.72562299E-02  8.69951710E-03  5.17764651E-01 -2.18843962E-01 -1.32764655E-01
  5.21411520E-02  1.72629220E-01 -4.30352456E-02  2.48390296E-02 -8.33966909E-02
 -7.40451905E-02  5.36065578E-01 -3.85744604E-01 -6.77379450E-02 -1.23977645E-02
 -7.01117638E-02  5.29405901E-02 -1.11125826E-01  5.27777299E-02  3.23026873E-02
  3.32659376E-02  6.01298896E-01 -5.39200565E-01 -3.25693069E-02  6.55936402E-02
  1.40340002E-01  6.05319986E-01 -4.41306717E-01  6.50861603E-03  2.56954312E-02
 -1.35674563E-01 -1.01966376E-02  1.01410671E-01 -1.44333190E-01  3.26611539E-01
 -3.30364675E-01 -5.57049487E-01  6.14667376E-03 -3.90619368E-01  2.08484531E-01
  1.11399205E-02 -1.69044064E-01 -4.36478393E-03  1.25671887E-02 -1.31429936E-01
  2.57848095E-02 -1.31657014E-01 -5.51767176E-02 -1.96555819E-01 -2.56898078E-02
  1.53484069E-01  1.67692505E-01  2.58694649E-01  1.12519099E-01  1.45406875E-01
 -2.21515573E-02 -3.98589877E-03 -1.86049414E-02 -9.16229530E-02 -5.72700912E-01
  4.51606638E-01  1.23246310E-01  5.07855523E-02  1.17303178E-01 -4.55972440E-01
  9.32511765E-01 -1.01861717E-01 -1.36649774E-01 -4.31052257E-02  2.95301648E-01
 -3.55802854E-01 -2.87373356E-02  2.22512619E-02  9.28407878E-02  4.15831208E-01
 -4.13637602E-01 -1.40654757E-02 -5.42144192E-03 -8.85215835E-02  1.43666764E-02
 -6.20007464E-02 -2.92154930E-01  1.96747784E-01  1.40857909E-01  4.44910909E-02
  2.53793965E-01 -3.18234365E-01 -1.10779843E-01 -5.45104981E-02 -4.33531349E-03
  3.65728694E-03 -3.21292501E-02  9.23817159E-02  3.45644350E-02 -2.21488276E-01
 -6.73492929E-01  2.90239473E-01  3.23147201E-03 -4.95442746E-02  7.90404222E-01
 -5.86123495E-01 -3.21450934E-02  2.76052963E-02  1.56960203E-02 -2.80131415E-02
 -2.42275703E-02  2.88758806E-02  7.12501833E-03  1.48595499E-01 -1.32554900E-02
 -3.05442401E-02  2.53333649E-02  4.36545969E-01 -4.40505221E-01  5.73469466E-02
  2.67639738E-02  7.36930635E-03  1.70856934E-01  2.65965593E-01  2.96383138E-02
 -5.61462375E-02 -4.36388132E-02  2.46075162E-01 -3.03369452E-02  1.66125448E-03
 -1.56688806E-03  9.93858333E-03  2.59481969E-02 -1.47170244E-01  4.43785910E-01
 -4.99294418E-02 -6.59468322E-01  4.48315132E-03 -4.46535459E-01 -4.88235457E-02
  8.17311378E-01 -3.23660546E-02  2.34618833E-02  1.85161531E-02 -1.29786012E-02
  4.81445513E-02  1.14221247E-02 -9.16080067E-02 -1.31905435E-01  1.08647895E-01
 -3.66196754E-01  1.00726831E-03  1.28137782E-01 -1.92193324E-01  6.44432154E-01
 -3.05408986E-02 -5.95793920E-02  9.23994313E-02 -3.20934599E-03 -4.57010144E-05
  1.70445427E-01  8.24994028E-02  1.53984972E-02 -2.65975568E-02  2.26545270E-02
  2.83931677E-01 -2.08553790E-01  2.52651175E-02 -8.17494080E-03  1.99838005E-02
  1.07712118E-01 -4.12621910E-01 -2.96442421E-02  5.46206893E-02  4.72455524E-02
 -1.93331273E-02  5.50080003E-01  3.19549411E-02 -6.07256108E-02  9.16398261E-02
 -4.40219963E-02  2.73690999E-01  3.83413231E-01 -6.31535018E-01  1.36762692E-01
  9.27490716E-03 -4.82078073E-01  8.53417642E-01 -3.25959927E-01 -6.18636067E-03
 -5.17658283E-02 -2.32213573E-02 -5.41475619E-03 -3.67847180E-02  2.09810828E-02
 -1.85821977E-01 -3.35364261E-01  2.75035268E-02  1.12437012E-01  1.75087298E-01
  4.24463688E-01 -9.07208183E-02 -2.30700880E-01  7.00291325E-02  1.18857488E-02
 -2.71974764E-02 -6.09167908E-03  3.82821958E-03 -3.38050098E-01  1.22508686E-02
 -9.72261173E-03  1.92727947E-02 -2.42549438E-02 -2.65907202E-01  1.25311001E-02
  2.81594469E-02  2.80645483E-02 -3.31267804E-02  1.43191903E-01  9.89834465E-02
  2.16440964E-02 -3.23750214E-02  3.03286150E-03  1.78811822E-01 -3.26635079E-01
 -4.52075464E-04  1.12614127E-02 -5.94781654E-02 -3.36506471E-02  2.84338208E-01
 -2.72431980E-01 -1.81388263E-01  2.10242352E-01 -1.08445632E-01  4.26063459E-01