Atom number=9                                                           
SP        RHF                                                         6-31G(d,p)          
Number of atoms                            I                9
Info1-9                                    I   N=           9
         107         106           0           0           0         111
           1           1           2
Full Title                                 C   N=           2
Atom number=9           
Route                                      C   N=           4
#p hf/6-31g** 5d 7f pop=npa charge nosymm       
Charge                                     I                0
Multiplicity                               I                1
Number of electrons                        I               30
Number of alpha electrons                  I               15
Number of beta electrons                   I               15
Number of basis functions                  I               72
Number of independent functions            I               72
Number of point charges in /Mol/           I                0
Number of translation vectors              I                0
Atomic numbers                             I   N=           9
           8           8           8           1           1           1
           1           1           1
Nuclear charges                            R   N=           9
  8.00000000E+00  8.00000000E+00  8.00000000E+00  1.00000000E+00  1.00000000E+00
  1.00000000E+00  1.00000000E+00  1.00000000E+00  1.00000000E+00
Current cartesian coordinates              R   N=          27
  1.58591958E+01 -2.23232232E+01 -2.11658453E+01  1.37010511E+01 -1.86319947E+01
 -2.47619431E+01  1.90577217E+01 -1.81470343E+01 -2.58786843E+01  1.54490326E+01
 -2.36930366E+01 -2.00580047E+01  1.74840371E+01 -2.17584956E+01 -2.06064713E+01
  1.34560972E+01 -1.93157846E+01 -2.64185526E+01  1.38733941E+01 -2.00816358E+01
 -2.36938794E+01  1.85910557E+01 -1.86665521E+01 -2.75472898E+01  1.75122961E+01
 -1.81949823E+01 -2.49399156E+01
Number of symbols in /Mol/                 I                0
Force Field                                I                0
Atom Types                                 C   N=           9
                                                            
                                                
Int Atom Types                             I   N=           9
           0           0           0           0           0           0
           0           0           0
MM charges                                 R   N=           9
  0.00000000E+00  0.00000000E+00  0.00000000E+00  0.00000000E+00  0.00000000E+00
  0.00000000E+00  0.00000000E+00  0.00000000E+00  0.00000000E+00
Integer atomic weights                     I   N=           9
          16          16          16           1           1           1
           1           1           1
Real atomic weights                        R   N=           9
  1.59949146E+01  1.59949146E+01  1.59949146E+01  1.00782504E+00  1.00782504E+00
  1.00782504E+00  1.00782504E+00  1.00782504E+00  1.00782504E+00
Atom fragment info                         I   N=           9
           0           0           0           0           0           0
           0           0           0
Atom residue num                           I   N=           9
           0           0           0           0           0           0
           0           0           0
Nuclear spins                              I   N=           9
           0           0           0           1           1           1
           1           1           1
Nuclear ZEff                               R   N=           9
 -5.60000000E+00 -5.60000000E+00 -5.60000000E+00 -1.00000000E+00 -1.00000000E+00
 -1.00000000E+00 -1.00000000E+00 -1.00000000E+00 -1.00000000E+00
Nuclear ZNuc                               R   N=           9
  8.00000000E+00  8.00000000E+00  8.00000000E+00  1.00000000E+00  1.00000000E+00
  1.00000000E+00  1.00000000E+00  1.00000000E+00  1.00000000E+00
Nuclear QMom                               R   N=           9
  0.00000000E+00  0.00000000E+00  0.00000000E+00  0.00000000E+00  0.00000000E+00
  0.00000000E+00  0.00000000E+00  0.00000000E+00  0.00000000E+00
Nuclear GFac                               R   N=           9
  0.00000000E+00  0.00000000E+00  0.00000000E+00  2.79284600E+00  2.79284600E+00
  2.79284600E+00  2.79284600E+00  2.79284600E+00  2.79284600E+00
MicOpt                                     I   N=           9
          -1          -1          -1          -1          -1          -1
          -1          -1          -1
Number of residues                         I                0
Number of secondary structures             I                0
Number of contracted shells                I               30
Number of primitive shells                 I               63
Pure/Cartesian d shells                    I                0
Pure/Cartesian f shells                    I                0
Highest angular momentum                   I                2
Largest degree of contraction              I                6
Shell types                                I   N=          30
           0          -1          -1          -2           0          -1
          -1          -2           0          -1          -1          -2
           0           0           1           0           0           1
           0           0           1           0           0           1
           0           0           1           0           0           1
Number of primitives per shell             I   N=          30
           6           3           1           1           6           3
           1           1           6           3           1           1
           3           1           1           3           1           1
           3           1           1           3           1           1
           3           1           1           3           1           1
Shell to atom map                          I   N=          30
           1           1           1           1           2           2
           2           2           3           3           3           3
           4           4           4           5           5           5
           6           6           6           7           7           7
           8           8           8           9           9           9
Primitive exponents                        R   N=          63
  5.48467166E+03  8.25234946E+02  1.88046958E+02  5.29645000E+01  1.68975704E+01
  5.79963534E+00  1.55396162E+01  3.59993359E+00  1.01376175E+00  2.70005823E-01
  8.00000000E-01  5.48467166E+03  8.25234946E+02  1.88046958E+02  5.29645000E+01
  1.68975704E+01  5.79963534E+00  1.55396162E+01  3.59993359E+00  1.01376175E+00
  2.70005823E-01  8.00000000E-01  5.48467166E+03  8.25234946E+02  1.88046958E+02
  5.29645000E+01  1.68975704E+01  5.79963534E+00  1.55396162E+01  3.59993359E+00
  1.01376175E+00  2.70005823E-01  8.00000000E-01  1.87311370E+01  2.82539436E+00
  6.40121692E-01  1.61277759E-01  1.10000000E+00  1.87311370E+01  2.82539436E+00
  6.40121692E-01  1.61277759E-01  1.10000000E+00  1.87311370E+01  2.82539436E+00
  6.40121692E-01  1.61277759E-01  1.10000000E+00  1.87311370E+01  2.82539436E+00
  6.40121692E-01  1.61277759E-01  1.10000000E+00  1.87311370E+01  2.82539436E+00
  6.40121692E-01  1.61277759E-01  1.10000000E+00  1.87311370E+01  2.82539436E+00
  6.40121692E-01  1.61277759E-01  1.10000000E+00
Contraction coefficients                   R   N=          63
  1.83107443E-03  1.39501722E-02  6.84450781E-02  2.32714336E-01  4.70192898E-01
  3.58520853E-01 -1.10777550E-01 -1.48026263E-01  1.13076702E+00  1.00000000E+00
  1.00000000E+00  1.83107443E-03  1.39501722E-02  6.84450781E-02  2.32714336E-01
  4.70192898E-01  3.58520853E-01 -1.10777550E-01 -1.48026263E-01  1.13076702E+00
  1.00000000E+00  1.00000000E+00  1.83107443E-03  1.39501722E-02  6.84450781E-02
  2.32714336E-01  4.70192898E-01  3.58520853E-01 -1.10777550E-01 -1.48026263E-01
  1.13076702E+00  1.00000000E+00  1.00000000E+00  3.34946043E-02  2.34726953E-01
  8.13757326E-01  1.00000000E+00  1.00000000E+00  3.34946043E-02  2.34726953E-01
  8.13757326E-01  1.00000000E+00  1.00000000E+00  3.34946043E-02  2.34726953E-01
  8.13757326E-01  1.00000000E+00  1.00000000E+00  3.34946043E-02  2.34726953E-01
  8.13757326E-01  1.00000000E+00  1.00000000E+00  3.34946043E-02  2.34726953E-01
  8.13757326E-01  1.00000000E+00  1.00000000E+00  3.34946043E-02  2.34726953E-01
  8.13757326E-01  1.00000000E+00  1.00000000E+00
P(S=P) Contraction coefficients            R   N=          63
  0.00000000E+00  0.00000000E+00  0.00000000E+00  0.00000000E+00  0.00000000E+00
  0.00000000E+00  7.08742682E-02  3.39752839E-01  7.27158577E-01  1.00000000E+00
  0.00000000E+00  0.00000000E+00  0.00000000E+00  0.00000000E+00  0.00000000E+00
  0.00000000E+00  0.00000000E+00  7.08742682E-02  3.39752839E-01  7.27158577E-01
  1.00000000E+00  0.00000000E+00  0.00000000E+00  0.00000000E+00  0.00000000E+00
  0.00000000E+00  0.00000000E+00  0.00000000E+00  7.08742682E-02  3.39752839E-01
  7.27158577E-01  1.00000000E+00  0.00000000E+00  0.00000000E+00  0.00000000E+00
  0.00000000E+00  0.00000000E+00  0.00000000E+00  0.00000000E+00  0.00000000E+00
  0.00000000E+00  0.00000000E+00  0.00000000E+00  0.00000000E+00  0.00000000E+00
  0.00000000E+00  0.00000000E+00  0.00000000E+00  0.00000000E+00  0.00000000E+00
  0.00000000E+00  0.00000000E+00  0.00000000E+00  0.00000000E+00  0.00000000E+00
  0.00000000E+00  0.00000000E+00  0.00000000E+00  0.00000000E+00  0.00000000E+00
  0.00000000E+00  0.00000000E+00  0.00000000E+00
Coordinates of each shell                  R   N=          90
  1.58591958E+01 -2.23232232E+01 -2.11658453E+01  1.58591958E+01 -2.23232232E+01
 -2.11658453E+01  1.58591958E+01 -2.23232232E+01 -2.11658453E+01  1.58591958E+01
 -2.23232232E+01 -2.11658453E+01  1.37010511E+01 -1.86319947E+01 -2.47619431E+01
  1.37010511E+01 -1.86319947E+01 -2.47619431E+01  1.37010511E+01 -1.86319947E+01
 -2.47619431E+01  1.37010511E+01 -1.86319947E+01 -2.47619431E+01  1.90577217E+01
 -1.81470343E+01 -2.58786843E+01  1.90577217E+01 -1.81470343E+01 -2.58786843E+01
  1.90577217E+01 -1.81470343E+01 -2.58786843E+01  1.90577217E+01 -1.81470343E+01
 -2.58786843E+01  1.54490326E+01 -2.36930366E+01 -2.00580047E+01  1.54490326E+01
 -2.36930366E+01 -2.00580047E+01  1.54490326E+01 -2.36930366E+01 -2.00580047E+01
  1.74840371E+01 -2.17584956E+01 -2.06064713E+01  1.74840371E+01 -2.17584956E+01
 -2.06064713E+01  1.74840371E+01 -2.17584956E+01 -2.06064713E+01  1.34560972E+01
 -1.93157846E+01 -2.64185526E+01  1.34560972E+01 -1.93157846E+01 -2.64185526E+01
  1.34560972E+01 -1.93157846E+01 -2.64185526E+01  1.38733941E+01 -2.00816358E+01
 -2.36938794E+01  1.38733941E+01 -2.00816358E+01 -2.36938794E+01  1.38733941E+01
 -2.00816358E+01 -2.36938794E+01  1.85910557E+01 -1.86665521E+01 -2.75472898E+01
  1.85910557E+01 -1.86665521E+01 -2.75472898E+01  1.85910557E+01 -1.86665521E+01
 -2.75472898E+01  1.75122961E+01 -1.81949823E+01 -2.49399156E+01  1.75122961E+01
 -1.81949823E+01 -2.49399156E+01  1.75122961E+01 -1.81949823E+01 -2.49399156E+01
Num ILSW                                   I              100
ILSW                                       I   N=         100
           0           0           0           0           2           0
           0           0           0           0           0          -1
           5           0           0           0           0           0
           0           0           0           0           0           0
           1           1           0           0           0           0
           0           0      100000           0          -1           0
           0           0           0           0           0           0
           0           0           0           1           0           0
           0 -2000000000           1           0           0           0
           0           0           4          52           0           0
           0           1           0           0           0           0
           0           0           0           9           0           1
           0           0           0           0           0           0
           0           0           0           0           0           0
           0           0           0           0           0           0
           0           0           0           0           0           0
           0           0           0           0
Num RLSW                                   I               52
RLSW                                       R   N=          52
  1.00000000E+00  1.00000000E+00  1.00000000E+00  1.00000000E+00  1.00000000E+00
  0.00000000E+00  0.00000000E+00  1.00000000E+00  0.00000000E+00  0.00000000E+00
  0.00000000E+00  0.00000000E+00  1.00000000E+00  0.00000000E+00  0.00000000E+00
  0.00000000E+00  0.00000000E+00  1.00000000E+00  0.00000000E+00  0.00000000E+00
  0.00000000E+00  0.00000000E+00  1.00000000E+00  0.00000000E+00  0.00000000E+00
  0.00000000E+00  0.00000000E+00  1.00000000E+00  0.00000000E+00  0.00000000E+00
  0.00000000E+00  0.00000000E+00  1.00000000E+00  0.00000000E+00  0.00000000E+00
  0.00000000E+00  0.00000000E+00  0.00000000E+00  1.00000000E+00  1.00000000E+00
  0.00000000E+00  1.00000000E+00  0.00000000E+00  0.00000000E+00  0.00000000E+00
  0.00000000E+00  0.00000000E+00  0.00000000E+00  0.00000000E+00  0.00000000E+00
  0.00000000E+00  0.00000000E+00
MxBond                                     I                2
NBond                                      I   N=           9
           2           2           2           1           1           1
           1           1           1
IBond                                      I   N=          18
           4           5           6           7           8           9
           1           0           1           0           2           0
           2           0           3           0           3           0
RBond                                      R   N=          18
  1.00000000E+00  1.00000000E+00  1.00000000E+00  1.00000000E+00  1.00000000E+00
  1.00000000E+00  1.00000000E+00  0.00000000E+00  1.00000000E+00  0.00000000E+00
  1.00000000E+00  0.00000000E+00  1.00000000E+00  0.00000000E+00  1.00000000E+00
  0.00000000E+00  1.00000000E+00  0.00000000E+00
Virial Ratio                               R      2.063431567440499E+00
SCF Energy                                 R     -2.421372669404282E+02
Total Energy                               R     -2.421372669404282E+02
RMS Density                                R      2.891814302617637E-09
Job Status                                 I                1
Nuclear derivative order                   I                0
External E-field                           R   N=          35
  0.00000000E+00  0.00000000E+00  0.00000000E+00  0.00000000E+00  0.00000000E+00
  0.00000000E+00  0.00000000E+00  0.00000000E+00  0.00000000E+00  0.00000000E+00
  0.00000000E+00  0.00000000E+00  0.00000000E+00  0.00000000E+00  0.00000000E+00
  0.00000000E+00  0.00000000E+00  0.00000000E+00  0.00000000E+00  0.00000000E+00
  0.00000000E+00  0.00000000E+00  0.00000000E+00  0.00000000E+00  0.00000000E+00
  0.00000000E+00  0.00000000E+00  0.00000000E+00  0.00000000E+00  0.00000000E+00
  0.00000000E+00  0.00000000E+00  0.00000000E+00  0.00000000E+00  0.00000000E+00
IOpCl                                      I                0
IROHF                                      I                0
Alpha Orbital Energies                     R   N=          72
 -2.05474661E+01 -2.05311276E+01 -2.05094071E+01 -1.33154813E+00 -1.31650287E+00
 -1.29247498E+00 -6.91943840E-01 -6.82498317E-01 -6.58791885E-01 -5.71856487E-01
 -5.46125731E-01 -5.37545238E-01 -4.93846863E-01 -4.66783190E-01 -4.54936646E-01
  2.40439174E-01  2.93549582E-01  3.36739232E-01  3.69071215E-01  4.09427520E-01
  4.37474467E-01  9.94418056E-01  1.04110742E+00  1.06857975E+00  1.11845787E+00
  1.12933082E+00  1.14806828E+00  1.15648585E+00  1.19522711E+00  1.20393853E+00
  1.23630391E+00  1.28464852E+00  1.30494301E+00  1.35357062E+00  1.38483685E+00
  1.43034939E+00  1.61726235E+00  1.70677151E+00  1.76027338E+00  1.81615367E+00
  1.82462557E+00  1.84275810E+00  1.85446763E+00  1.91203502E+00  1.92706586E+00
  1.96063788E+00  1.97007881E+00  2.02968517E+00  2.59295692E+00  2.60642623E+00
  2.60833073E+00  2.64988986E+00  2.65543030E+00  2.67822600E+00  2.83245213E+00
  2.85007200E+00  2.87367754E+00  2.99707769E+00  3.00829812E+00  3.02267135E+00
  3.03417578E+00  3.04375335E+00  3.08293388E+00  3.40858162E+00  3.41964705E+00
  3.45606125E+00  3.78425185E+00  3.79310283E+00  3.84974310E+00  3.94567549E+00
  3.98124500E+00  4.04717480E+00
Alpha MO coefficients                      R   N=        5184
  9.95698178E-01  2.20722854E-02  1.02723260E-03 -6.48196216E-04  1.43892119E-03
 -5.97556832E-03 -2.87644942E-04  1.12113746E-04 -4.21734533E-04 -1.32985917E-04
  5.97392524E-05 -2.34204348E-04  6.32424579E-05  3.59201525E-04  2.00995295E-04
  2.08134485E-04 -2.40913065E-05 -1.86976489E-05  2.76075190E-05 -8.08701121E-04
  1.99652158E-06  3.89029085E-04 -3.74881869E-04 -1.09433290E-05 -2.44277706E-05
  8.94115066E-05  6.42353291E-05  2.56934739E-05 -3.04010396E-06 -5.53713247E-06
  1.98925280E-06 -8.59284352E-06  3.72117856E-06  5.30998975E-05 -2.00737311E-05
  2.15354488E-05 -5.99960947E-07  2.73541360E-06  2.47579591E-06  2.82643164E-06
  3.86879548E-08 -1.47441600E-06 -5.79156729E-04  1.13585324E-03 -2.45263612E-04
 -8.75665021E-04  7.32496413E-04 -5.60042335E-04  1.16134360E-03  1.04327255E-03
  3.53305176E-04  3.79702463E-04  5.67760832E-05 -2.25044649E-04 -1.16131721E-05
 -1.76898880E-05 -2.93415346E-06  6.64380169E-05  1.15547792E-03  4.45492561E-05
  1.05543622E-04 -3.99198649E-05 -7.74806385E-06  1.88253850E-05 -3.30276259E-06
 -4.68392037E-06  7.40578475E-07  1.16505809E-05 -1.27627488E-04  4.10915058E-07
  7.06805828E-06 -3.21779425E-06 -1.88330367E-04  1.20590757E-04 -6.87766825E-05
  6.38825756E-05 -8.88337881E-05 -2.83815621E-05  3.86309327E-04 -3.16722198E-04
  4.78088806E-04 -1.07714684E-05 -9.03549622E-06  1.20738001E-05  1.32658208E-05
  5.30004249E-05  9.95712815E-01  2.22886040E-02  3.26869649E-05 -1.90753847E-03
 -4.76673743E-04 -6.75777711E-03 -3.51217122E-04  1.10789248E-03 -4.78677948E-05
  3.48250427E-04  1.13398127E-04 -2.13714782E-05 -2.33545689E-04 -6.35242545E-06
  1.78006561E-04  2.52265152E-04 -9.90687926E-06  4.07171831E-06  4.94769939E-05
 -8.82301868E-04  4.41949871E-04 -2.46508869E-05 -4.68208689E-04  7.26154113E-05
  9.68443722E-05  2.36609435E-05 -9.47708785E-05 -9.75286732E-06 -1.11390864E-04
 -1.46727460E-04 -6.60189831E-05 -2.97218738E-05 -3.12451750E-06 -6.51961155E-05
 -2.91868027E-04  5.41088587E-05  6.87683715E-05 -2.06058493E-05 -4.36946206E-04
  9.99341496E-04 -1.17225738E-04 -5.08176487E-04 -1.04145144E-03 -3.72342683E-04
  1.94734754E-03  1.58528085E-04 -8.66199499E-04  5.83773445E-04 -2.89178385E-05
 -2.86796653E-04 -2.98276097E-05 -1.81519010E-05 -3.81906440E-05  1.08002685E-04
  1.29083691E-03  1.34706229E-05 -1.14963806E-05 -1.27177366E-04  3.35257668E-08
 -1.12180162E-05  1.16638596E-05  1.32516872E-05 -1.64565842E-05  1.07255662E-04
 -7.66894283E-05 -9.84080924E-05  8.30740123E-05  1.09302050E-05 -4.84311977E-06
 -2.69273909E-05 -2.50952116E-05 -1.32478505E-05 -1.57251108E-04  1.93977349E-04
  1.24052514E-04  3.70402201E-05  6.04380582E-06 -3.01995127E-04 -5.65489945E-04
 -1.39713107E-04 -1.13471574E-04  6.59190007E-05  6.39201959E-06  4.98867665E-05
 -7.76217275E-05  6.94462381E-06  9.95711626E-01  2.22087914E-02 -1.73116528E-03
 -5.36034399E-04 -5.94777567E-04 -6.76979336E-03  1.21710001E-03  2.31347025E-04
 -4.38681648E-05  3.06403132E-04 -6.80013180E-05  1.76993911E-04  1.42810361E-04
  4.77942990E-05 -8.16818778E-05 -3.86480148E-05 -6.94459529E-07 -2.27369449E-05
  1.88204509E-05  7.91550402E-05 -1.12494725E-04  2.08831687E-07  4.13680524E-06
 -8.75617277E-06 -1.04554349E-05 -2.24894894E-04  3.42510549E-05 -1.61281489E-05
 -5.41067356E-05  1.44898538E-04 -2.00031812E-04  5.12153447E-05  1.12652769E-05
  1.68253208E-05 -5.10294114E-04  1.12401833E-03 -3.78762343E-04 -3.36813146E-04
 -1.03230395E-03 -4.28102449E-04  2.33628389E-03 -8.86247453E-04 -5.45881839E-05
  4.24929342E-04 -2.06204468E-01  4.53954754E-01  4.22194652E-02 -2.63677376E-02
  5.75030919E-02  4.37489671E-01  1.54520579E-02 -5.93017559E-03  1.92020264E-02
  3.05638995E-04  2.31329741E-03 -2.44474490E-03  5.68782015E-06 -2.10361975E-04
 -5.22403741E-02  1.14468468E-01  8.53226655E-04 -2.05185335E-02 -2.73386032E-03
  1.10363201E-01  1.17186107E-03 -8.56476160E-03  2.06541445E-03  1.88846672E-04
  3.82295448E-04 -5.39200667E-04 -8.97366044E-04 -3.86592141E-04 -8.98011115E-03
  1.99261315E-02 -3.84809281E-03 -9.82342347E-04 -4.67438498E-04  1.69596269E-02
 -6.80118141E-04 -8.68561922E-04 -1.19859711E-04 -9.11295169E-05  3.75550741E-05
  1.08760273E-08  1.55993482E-04  8.02790363E-05  1.35866217E-01  7.20644950E-03
  7.24941398E-03  1.98301405E-02 -1.45436887E-02  1.35365710E-01  5.25999158E-03
 -2.34698170E-02 -9.68266503E-03 -6.63204196E-03  3.38206176E-02  2.39181558E-03
  7.63836215E-04  2.04030382E-03  6.10639217E-03  3.91928604E-02  1.28152181E-03
 -5.67888237E-04  4.53183934E-03 -3.67212642E-03  5.87556728E-03  2.34763811E-04
  1.92874085E-04  3.62831668E-04  1.07983386E-03  7.45184921E-03  3.69390401E-03
  1.11577010E-03 -9.86461885E-05 -6.63382827E-04  5.43608920E-02 -1.20678721E-01
 -1.31224903E-02  9.41519247E-03 -1.80396459E-02 -1.14639025E-01 -7.03391976E-03
  5.06755224E-03 -9.08159695E-03 -1.31969691E-05 -3.48398351E-04  1.92137862E-04
 -2.00122446E-04 -3.41907339E-04 -2.00893607E-01  4.42394802E-01  6.75560291E-05
 -7.31182455E-02 -1.81891737E-02  4.26383003E-01  3.08977591E-03 -2.68585946E-02
 -9.44476015E-04  9.36315258E-04  7.22808657E-04  1.42952370E-04 -2.25841273E-03
 -4.49214585E-04 -4.47161266E-02  9.79345838E-02 -1.77219537E-02 -4.66776967E-03
 -3.71368292E-03  9.30942647E-02 -6.43506252E-03 -1.98817758E-03 -1.28713682E-04
 -2.35603012E-04 -4.43850886E-06  1.70673354E-04  1.07115491E-03  3.15252516E-04
 -3.71308713E-02 -1.31235476E-03 -1.90151005E-03 -5.39875096E-03  3.98477354E-03
 -3.67968223E-02  1.58122472E-04  6.16930152E-03  2.43674039E-03  1.80240824E-03
  1.32970011E-01  7.62315776E-03  2.79938280E-03  7.67336735E-03  2.35127928E-02
  1.33048416E-01  2.91539221E-03 -3.04908431E-03  1.91381747E-02 -1.58890231E-02
  2.91672516E-02  2.65651710E-03  1.01441614E-03  1.56146970E-03  5.30664154E-03
  3.51578839E-02  2.79649659E-03  4.51409134E-03 -6.62236911E-05 -3.04403417E-03
 -2.51125733E-03  6.07806428E-03  1.07930589E-03 -7.10454873E-04  1.22590759E-03
  3.37111558E-03  1.01205851E-03 -2.34131318E-04  3.32121345E-05 -4.80859611E-05
 -5.94633081E-05  2.45053874E-04  1.43893770E-04  9.71021949E-05  4.78379048E-02
 -1.06541945E-01  4.54404251E-03  1.88355523E-02  3.71343858E-03 -1.01554368E-01
  5.31408453E-03  8.19944962E-03 -1.10545686E-04 -7.73527480E-04 -4.88043942E-04
 -4.39940532E-05  1.55276518E-03  4.56664829E-05 -2.08339414E-01  4.58393018E-01
 -6.94350453E-02 -2.12384676E-02 -2.42017088E-02  4.43833913E-01 -2.12277642E-02
 -9.03673934E-03 -3.54174632E-03  6.15589930E-04  3.64665108E-04  1.08810105E-03
  3.06771959E-03  9.42778750E-04  2.38807797E-03  4.46640520E-05  1.14567828E-04
  4.25098788E-04 -3.01776685E-04  1.51465396E-03  2.26305349E-03 -4.45223148E-04
 -1.72431668E-04 -9.83018736E-05 -3.24229243E-02  2.71456979E-04 -6.04858907E-04
 -1.73288931E-03 -5.41198678E-03 -3.30593667E-02  9.12421691E-04  7.05862882E-04
 -4.42679308E-03  3.64804529E-03  1.38612998E-01  7.98546366E-03  5.26861714E-03
  7.24280604E-03  2.41411787E-02  1.37475404E-01  1.41058129E-03  2.11242306E-02
 -1.17501523E-04 -1.42101168E-02 -2.89404576E-03  5.05631980E-03  2.88520323E-01
  3.27765017E-01 -1.19360203E-01  1.74172160E-02  1.66210980E-01  1.98473786E-01
 -7.37960175E-02 -7.94649065E-03  1.10149850E-02  1.68229924E-02  1.70369427E-02
  3.80270671E-03  3.73617426E-03 -9.65291870E-03  4.53856319E-02 -5.94853842E-02
  2.10239605E-01 -1.13264012E-02  2.86363909E-02 -3.39879839E-02  1.25445214E-01
 -5.51293493E-03 -3.98413620E-04 -1.25343105E-02 -3.38759968E-03 -2.75902540E-03
  1.16461837E-03 -1.87367623E-03 -1.84484172E-02  3.72251319E-03  4.60120475E-02
 -8.22488639E-03 -7.92638821E-03  4.47911811E-05  2.68766143E-02 -1.49853325E-03
 -2.25516630E-03 -1.13348085E-03  7.93273064E-04  1.07807534E-04 -2.19432126E-01
 -9.40706885E-02  1.07268946E-03 -1.47919560E-02  1.51436753E-02  1.88767126E-01
  8.46119191E-02 -1.61185743E-02  1.58554078E-04 -1.12979093E-02 -1.03082781E-01
 -4.50523441E-02 -1.88592197E-04 -6.97576999E-03 -7.43664577E-03  1.02566974E-01
  5.08932519E-02  1.67065024E-04  9.87735771E-03 -1.86323774E-03 -2.27793010E-02
 -1.12376206E-02 -1.27440726E-03 -6.52374419E-04 -1.61765105E-03  2.37949469E-02
  2.08428487E-02  2.62640496E-03 -3.12891699E-04  1.10988998E-04 -5.58198346E-03
  1.37776099E-02 -2.25057891E-01 -1.21191101E-01 -1.23720337E-02  2.36217158E-02
 -1.37209015E-01 -6.60639792E-02 -1.09598939E-02  3.29145048E-03 -8.40954724E-03
 -7.65796845E-03 -1.06019259E-02 -2.15096763E-03  3.48347884E-03 -8.90551005E-03
  6.66125462E-02 -1.17316276E-01  4.16004727E-01 -1.46174715E-02  4.03940723E-02
 -6.49071634E-02  2.46030135E-01 -1.07997633E-02 -1.61470560E-03 -2.41497537E-02
 -7.06367478E-03 -3.81931260E-03 -8.91243597E-04  2.56615598E-03 -6.54515260E-03
  4.40216701E-03  2.78347697E-02  1.82712029E-03 -1.97147045E-03  2.58025157E-03
  1.65403106E-02 -7.31658270E-04 -1.48764818E-03 -6.11196639E-04  2.61315625E-04
 -6.90050370E-05  8.62005258E-02  4.07004390E-02 -3.72042852E-03  5.27035574E-03
 -7.13136735E-03 -1.33644627E-01 -5.49997095E-02  1.12501426E-02  2.83270596E-03
  5.47778767E-03 -2.00619678E-01 -8.95838765E-02 -9.90119087E-04 -1.36277603E-02
 -1.40637992E-02  2.00850530E-01  1.06611769E-01 -1.21604903E-03  1.93376884E-02
 -3.77500448E-03 -1.40542046E-02 -7.27819362E-03 -4.86381982E-04 -4.11087172E-04
 -9.71900514E-04  1.37000199E-02  6.79608469E-03  1.61146637E-03  7.03331789E-05
  2.71668151E-04  1.22432647E-03 -2.37647751E-03 -1.90344928E-02 -2.98391359E-02
  1.15508696E-02 -7.25539797E-03 -1.14342216E-02 -1.75070078E-02  5.06149204E-03
  6.37141873E-04 -9.60549908E-04 -1.39369141E-03 -1.37366088E-03 -2.91237286E-04
  7.49460572E-04 -2.06542614E-03  5.41092703E-02  4.80092877E-02 -4.94508394E-02
  2.07490699E-03  3.89143080E-02  2.93673796E-02 -2.82752632E-02  4.97480446E-04
 -3.13860489E-04  2.50730540E-03  3.84367222E-03 -1.39839940E-03  3.07731504E-03
 -6.50924300E-03 -1.99631535E-01  8.01816089E-02  4.49111115E-01 -1.44128719E-02
 -1.16590970E-01  4.72875669E-02  2.63307664E-01 -1.48429144E-02 -2.11587253E-02
 -9.57884294E-03  1.19695350E-02 -8.89940637E-04  1.94906809E-02  8.46698858E-03
  1.21542539E-04  1.33599348E-03 -1.31764929E-03 -1.43170193E-02 -1.08267855E-03
  9.70215668E-04 -2.28683703E-04  7.55717124E-04  1.18074718E-02  7.04169480E-03
  1.64321774E-03  2.00656449E-03  1.71909939E-04 -3.68068815E-02 -1.88368626E-02
  2.25692876E-03 -3.01026525E-03  1.49938258E-03 -2.25609731E-01 -1.06403945E-01
 -1.44367926E-02 -6.62145432E-03 -1.60960473E-02  2.31201658E-01  1.17724302E-01
  2.24537973E-02  2.56585062E-03 -3.36374534E-03  5.20818658E-02 -1.22662256E-01
  2.57750973E-01 -1.63781401E-01  3.44640306E-01 -2.20635359E-01  1.84706585E-01
 -1.18366382E-01  2.50007010E-01  5.63972787E-03  1.46141386E-02 -1.00324808E-02
  4.37208121E-03 -2.58742983E-03 -4.03645989E-02  9.14013611E-02 -1.99838811E-03
  2.41120639E-01  1.80645410E-01  1.83058430E-01 -7.76885130E-03  1.69533758E-01
  1.29012315E-01  1.03240375E-03 -1.47235518E-03 -9.91104331E-03  9.70492244E-03
  4.89518934E-04  5.61034739E-04  8.33173442E-05  2.88911377E-03  5.89516693E-03
 -1.58772390E-02 -7.73098402E-03  3.41902508E-03  7.12896526E-03 -1.37757287E-02
  7.01036252E-04  8.64445634E-04  3.19434033E-04 -2.08785275E-04 -5.11454448E-04
  1.14071909E-01  5.11071789E-02  1.09721401E-02  8.59158750E-03 -6.79883057E-04
  1.20052478E-01  5.31692424E-02 -8.94525212E-03 -1.03217700E-02  3.98105615E-03
 -1.16602085E-01 -5.16574601E-02 -1.42513111E-03  3.52951230E-04 -1.00987053E-02
 -3.86654679E-02 -5.85146141E-02 -5.66744646E-04  4.27415288E-03  6.20614231E-03
  6.55931661E-03  1.15663372E-03  4.96216797E-04  2.73136994E-04  3.24162249E-04
 -3.04945024E-03  8.95560364E-03 -1.42774550E-03  8.62880656E-04 -1.13911945E-04
  2.40493197E-02 -5.59912550E-02  1.07991446E-01 -6.45993353E-02  1.50560108E-01
 -1.04922301E-01  7.47241214E-02 -5.11503816E-02  1.09666689E-01  3.14293107E-03
  6.64585357E-03 -4.87674285E-03  1.72040300E-03 -1.66766014E-03  3.12182864E-02
 -7.23084230E-02 -1.28190474E-01 -3.27716152E-01 -3.46197142E-02 -1.35087408E-01
 -1.02438846E-01 -2.38264037E-01 -2.90192770E-02 -4.07248804E-03  1.96829612E-03
  2.75984285E-03 -1.60958518E-02  4.81948959E-03 -4.70487210E-02  1.05552338E-01
  3.31702787E-01  8.49158183E-02  1.74921559E-01  2.10322412E-01  2.47879730E-01
  5.88088841E-02  1.32412027E-01  1.57032806E-03 -8.23321759E-03 -4.69938563E-03
 -1.02937287E-02 -7.15526831E-03  4.69822117E-02  2.09310693E-02  4.63662790E-03
  3.47599055E-03  3.14456994E-04  5.20894000E-02  2.96277558E-02 -4.46173123E-03
 -4.34672774E-03  1.65965526E-03  7.14625791E-02  2.50190183E-02 -2.93852986E-03
 -5.39791068E-03  8.58564558E-03  9.87920063E-02  2.76611788E-02 -5.83174218E-03
  3.34804221E-03 -9.72395779E-03 -1.17585752E-01 -4.84191617E-02  3.88824044E-03
 -2.23698899E-03 -1.00870634E-02 -8.26881712E-02 -5.64191642E-02  6.58066331E-04
  1.87171649E-03  9.60190053E-03 -2.77700827E-02  6.62586876E-02 -1.18072756E-01
  8.17610241E-02 -1.68131443E-01  1.16752821E-01 -8.73251570E-02  5.85532907E-02
 -1.18921359E-01 -3.40448068E-03 -7.62793375E-03  5.87725238E-03 -1.95527997E-03
  1.74625108E-03 -4.05447812E-02  9.97966638E-02 -1.18181245E-01  3.52324343E-01
  6.51276239E-02  1.59146316E-01 -1.01843145E-01  2.58385051E-01  5.47739005E-02