Atom number=18                                                          
SP        RHF                                                         6-31G(d,p)          
Number of atoms                            I               18
Info1-9                                    I   N=           9
         107         106           0           0           0         111
           1           1           2
Full Title                                 C   N=           2
Atom number=18          
Route                                      C   N=           4
#p hf/6-31g** 5d 7f pop=npa charge nosymm       
Charge                                     I                0
Multiplicity                               I                1
Number of electrons                        I               60
Number of alpha electrons                  I               30
Number of beta electrons                   I               30
Number of basis functions                  I              144
Number of independent functions            I              144
Number of point charges in /Mol/           I                0
Number of translation vectors              I                0
Atomic numbers                             I   N=          18
           8           8           8           8           8           8
           1           1           1           1           1           1
           1           1           1           1           1           1
Nuclear charges                            R   N=          18
  8.00000000E+00  8.00000000E+00  8.00000000E+00  8.00000000E+00  8.00000000E+00
  8.00000000E+00  1.00000000E+00  1.00000000E+00  1.00000000E+00  1.00000000E+00
  1.00000000E+00  1.00000000E+00  1.00000000E+00  1.00000000E+00  1.00000000E+00
  1.00000000E+00  1.00000000E+00  1.00000000E+00
Current cartesian coordinates              R   N=          54
  1.58591958E+01 -2.23232232E+01 -2.11658453E+01  1.37010511E+01 -1.86319947E+01
 -2.47619431E+01  1.05265153E+01 -2.41129828E+01 -2.02839555E+01  1.31641969E+01
 -1.74757998E+01 -1.94156226E+01  1.31196920E+01 -2.23542903E+01 -1.58189805E+01
  1.79028344E+01 -1.51124951E+01 -2.06321073E+01  1.54490326E+01 -2.36930366E+01
 -2.00580047E+01  1.74840371E+01 -2.17584956E+01 -2.06064713E+01  1.34560972E+01
 -1.93157846E+01 -2.64185526E+01  1.38733941E+01 -2.00816358E+01 -2.36938794E+01
  8.77344660E+00 -2.42410798E+01 -1.98570305E+01  1.13076525E+01 -2.34423738E+01
 -1.87966655E+01  1.31811270E+01 -1.86043839E+01 -2.08291075E+01  1.45213642E+01
 -1.63243462E+01 -1.97383746E+01  1.41645820E+01 -2.28487768E+01 -1.44277169E+01
  1.38091000E+01 -2.07734569E+01 -1.63645142E+01  1.88925747E+01 -1.66213261E+01
 -2.05065293E+01  1.81855715E+01 -1.42529872E+01 -1.90658267E+01
Number of symbols in /Mol/                 I                0
Force Field                                I                0
Atom Types                                 C   N=          18
                                                            
                                                            
                                                            
                                    
Int Atom Types                             I   N=          18
           0           0           0           0           0           0
           0           0           0           0           0           0
           0           0           0           0           0           0
MM charges                                 R   N=          18
  0.00000000E+00  0.00000000E+00  0.00000000E+00  0.00000000E+00  0.00000000E+00
  0.00000000E+00  0.00000000E+00  0.00000000E+00  0.00000000E+00  0.00000000E+00
  0.00000000E+00  0.00000000E+00  0.00000000E+00  0.00000000E+00  0.00000000E+00
  0.00000000E+00  0.00000000E+00  0.00000000E+00
Integer atomic weights                     I   N=          18
          16          16          16          16          16          16
           1           1           1           1           1           1
           1           1           1           1           1           1
Real atomic weights                        R   N=          18
  1.59949146E+01  1.59949146E+01  1.59949146E+01  1.59949146E+01  1.59949146E+01
  1.59949146E+01  1.00782504E+00  1.00782504E+00  1.00782504E+00  1.00782504E+00
  1.00782504E+00  1.00782504E+00  1.00782504E+00  1.00782504E+00  1.00782504E+00
  1.00782504E+00  1.00782504E+00  1.00782504E+00
Atom fragment info                         I   N=          18
           0           0           0           0           0           0
           0           0           0           0           0           0
           0           0           0           0           0           0
Atom residue num                           I   N=          18
           0           0           0           0           0           0
           0           0           0           0           0           0
           0           0           0           0           0           0
Nuclear spins                              I   N=          18
           0           0           0           0           0           0
           1           1           1           1           1           1
           1           1           1           1           1           1
Nuclear ZEff                               R   N=          18
 -5.60000000E+00 -5.60000000E+00 -5.60000000E+00 -5.60000000E+00 -5.60000000E+00
 -5.60000000E+00 -1.00000000E+00 -1.00000000E+00 -1.00000000E+00 -1.00000000E+00
 -1.00000000E+00 -1.00000000E+00 -1.00000000E+00 -1.00000000E+00 -1.00000000E+00
 -1.00000000E+00 -1.00000000E+00 -1.00000000E+00
Nuclear ZNuc                               R   N=          18
  8.00000000E+00  8.00000000E+00  8.00000000E+00  8.00000000E+00  8.00000000E+00
  8.00000000E+00  1.00000000E+00  1.00000000E+00  1.00000000E+00  1.00000000E+00
  1.00000000E+00  1.00000000E+00  1.00000000E+00  1.00000000E+00  1.00000000E+00
  1.00000000E+00  1.00000000E+00  1.00000000E+00
Nuclear QMom                               R   N=          18
  0.00000000E+00  0.00000000E+00  0.00000000E+00  0.00000000E+00  0.00000000E+00
  0.00000000E+00  0.00000000E+00  0.00000000E+00  0.00000000E+00  0.00000000E+00
  0.00000000E+00  0.00000000E+00  0.00000000E+00  0.00000000E+00  0.00000000E+00
  0.00000000E+00  0.00000000E+00  0.00000000E+00
Nuclear GFac                               R   N=          18
  0.00000000E+00  0.00000000E+00  0.00000000E+00  0.00000000E+00  0.00000000E+00
  0.00000000E+00  2.79284600E+00  2.79284600E+00  2.79284600E+00  2.79284600E+00
  2.79284600E+00  2.79284600E+00  2.79284600E+00  2.79284600E+00  2.79284600E+00
  2.79284600E+00  2.79284600E+00  2.79284600E+00
MicOpt                                     I   N=          18
          -1          -1          -1          -1          -1          -1
          -1          -1          -1          -1          -1          -1
          -1          -1          -1          -1          -1          -1
Number of residues                         I                0
Number of secondary structures             I                0
Number of contracted shells                I               60
Number of primitive shells                 I              126
Pure/Cartesian d shells                    I                0
Pure/Cartesian f shells                    I                0
Highest angular momentum                   I                2
Largest degree of contraction              I                6
Shell types                                I   N=          60
           0          -1          -1          -2           0          -1
          -1          -2           0          -1          -1          -2
           0          -1          -1          -2           0          -1
          -1          -2           0          -1          -1          -2
           0           0           1           0           0           1
           0           0           1           0           0           1
           0           0           1           0           0           1
           0           0           1           0           0           1
           0           0           1           0           0           1
           0           0           1           0           0           1
Number of primitives per shell             I   N=          60
           6           3           1           1           6           3
           1           1           6           3           1           1
           6           3           1           1           6           3
           1           1           6           3           1           1
           3           1           1           3           1           1
           3           1           1           3           1           1
           3           1           1           3           1           1
           3           1           1           3           1           1
           3           1           1           3           1           1
           3           1           1           3           1           1
Shell to atom map                          I   N=          60
           1           1           1           1           2           2
           2           2           3           3           3           3
           4           4           4           4           5           5
           5           5           6           6           6           6
           7           7           7           8           8           8
           9           9           9          10          10          10
          11          11          11          12          12          12
          13          13          13          14          14          14
          15          15          15          16          16          16
          17          17          17          18          18          18
Primitive exponents                        R   N=         126
  5.48467166E+03  8.25234946E+02  1.88046958E+02  5.29645000E+01  1.68975704E+01
  5.79963534E+00  1.55396162E+01  3.59993359E+00  1.01376175E+00  2.70005823E-01
  8.00000000E-01  5.48467166E+03  8.25234946E+02  1.88046958E+02  5.29645000E+01
  1.68975704E+01  5.79963534E+00  1.55396162E+01  3.59993359E+00  1.01376175E+00
  2.70005823E-01  8.00000000E-01  5.48467166E+03  8.25234946E+02  1.88046958E+02
  5.29645000E+01  1.68975704E+01  5.79963534E+00  1.55396162E+01  3.59993359E+00
  1.01376175E+00  2.70005823E-01  8.00000000E-01  5.48467166E+03  8.25234946E+02
  1.88046958E+02  5.29645000E+01  1.68975704E+01  5.79963534E+00  1.55396162E+01
  3.59993359E+00  1.01376175E+00  2.70005823E-01  8.00000000E-01  5.48467166E+03
  8.25234946E+02  1.88046958E+02  5.29645000E+01  1.68975704E+01  5.79963534E+00
  1.55396162E+01  3.59993359E+00  1.01376175E+00  2.70005823E-01  8.00000000E-01
  5.48467166E+03  8.25234946E+02  1.88046958E+02  5.29645000E+01  1.68975704E+01
  5.79963534E+00  1.55396162E+01  3.59993359E+00  1.01376175E+00  2.70005823E-01
  8.00000000E-01  1.87311370E+01  2.82539436E+00  6.40121692E-01  1.61277759E-01
  1.10000000E+00  1.87311370E+01  2.82539436E+00  6.40121692E-01  1.61277759E-01
  1.10000000E+00  1.87311370E+01  2.82539436E+00  6.40121692E-01  1.61277759E-01
  1.10000000E+00  1.87311370E+01  2.82539436E+00  6.40121692E-01  1.61277759E-01
  1.10000000E+00  1.87311370E+01  2.82539436E+00  6.40121692E-01  1.61277759E-01
  1.10000000E+00  1.87311370E+01  2.82539436E+00  6.40121692E-01  1.61277759E-01
  1.10000000E+00  1.87311370E+01  2.82539436E+00  6.40121692E-01  1.61277759E-01
  1.10000000E+00  1.87311370E+01  2.82539436E+00  6.40121692E-01  1.61277759E-01
  1.10000000E+00  1.87311370E+01  2.82539436E+00  6.40121692E-01  1.61277759E-01
  1.10000000E+00  1.87311370E+01  2.82539436E+00  6.40121692E-01  1.61277759E-01
  1.10000000E+00  1.87311370E+01  2.82539436E+00  6.40121692E-01  1.61277759E-01
  1.10000000E+00  1.87311370E+01  2.82539436E+00  6.40121692E-01  1.61277759E-01
  1.10000000E+00
Contraction coefficients                   R   N=         126
  1.83107443E-03  1.39501722E-02  6.84450781E-02  2.32714336E-01  4.70192898E-01
  3.58520853E-01 -1.10777550E-01 -1.48026263E-01  1.13076702E+00  1.00000000E+00
  1.00000000E+00  1.83107443E-03  1.39501722E-02  6.84450781E-02  2.32714336E-01
  4.70192898E-01  3.58520853E-01 -1.10777550E-01 -1.48026263E-01  1.13076702E+00
  1.00000000E+00  1.00000000E+00  1.83107443E-03  1.39501722E-02  6.84450781E-02
  2.32714336E-01  4.70192898E-01  3.58520853E-01 -1.10777550E-01 -1.48026263E-01
  1.13076702E+00  1.00000000E+00  1.00000000E+00  1.83107443E-03  1.39501722E-02
  6.84450781E-02  2.32714336E-01  4.70192898E-01  3.58520853E-01 -1.10777550E-01
 -1.48026263E-01  1.13076702E+00  1.00000000E+00  1.00000000E+00  1.83107443E-03
  1.39501722E-02  6.84450781E-02  2.32714336E-01  4.70192898E-01  3.58520853E-01
 -1.10777550E-01 -1.48026263E-01  1.13076702E+00  1.00000000E+00  1.00000000E+00
  1.83107443E-03  1.39501722E-02  6.84450781E-02  2.32714336E-01  4.70192898E-01
  3.58520853E-01 -1.10777550E-01 -1.48026263E-01  1.13076702E+00  1.00000000E+00
  1.00000000E+00  3.34946043E-02  2.34726953E-01  8.13757326E-01  1.00000000E+00
  1.00000000E+00  3.34946043E-02  2.34726953E-01  8.13757326E-01  1.00000000E+00
  1.00000000E+00  3.34946043E-02  2.34726953E-01  8.13757326E-01  1.00000000E+00
  1.00000000E+00  3.34946043E-02  2.34726953E-01  8.13757326E-01  1.00000000E+00
  1.00000000E+00  3.34946043E-02  2.34726953E-01  8.13757326E-01  1.00000000E+00
  1.00000000E+00  3.34946043E-02  2.34726953E-01  8.13757326E-01  1.00000000E+00
  1.00000000E+00  3.34946043E-02  2.34726953E-01  8.13757326E-01  1.00000000E+00
  1.00000000E+00  3.34946043E-02  2.34726953E-01  8.13757326E-01  1.00000000E+00
  1.00000000E+00  3.34946043E-02  2.34726953E-01  8.13757326E-01  1.00000000E+00
  1.00000000E+00  3.34946043E-02  2.34726953E-01  8.13757326E-01  1.00000000E+00
  1.00000000E+00  3.34946043E-02  2.34726953E-01  8.13757326E-01  1.00000000E+00
  1.00000000E+00  3.34946043E-02  2.34726953E-01  8.13757326E-01  1.00000000E+00
  1.00000000E+00
P(S=P) Contraction coefficients            R   N=         126
  0.00000000E+00  0.00000000E+00  0.00000000E+00  0.00000000E+00  0.00000000E+00
  0.00000000E+00  7.08742682E-02  3.39752839E-01  7.27158577E-01  1.00000000E+00
  0.00000000E+00  0.00000000E+00  0.00000000E+00  0.00000000E+00  0.00000000E+00
  0.00000000E+00  0.00000000E+00  7.08742682E-02  3.39752839E-01  7.27158577E-01
  1.00000000E+00  0.00000000E+00  0.00000000E+00  0.00000000E+00  0.00000000E+00
  0.00000000E+00  0.00000000E+00  0.00000000E+00  7.08742682E-02  3.39752839E-01
  7.27158577E-01  1.00000000E+00  0.00000000E+00  0.00000000E+00  0.00000000E+00
  0.00000000E+00  0.00000000E+00  0.00000000E+00  0.00000000E+00  7.08742682E-02
  3.39752839E-01  7.27158577E-01  1.00000000E+00  0.00000000E+00  0.00000000E+00
  0.00000000E+00  0.00000000E+00  0.00000000E+00  0.00000000E+00  0.00000000E+00
  7.08742682E-02  3.39752839E-01  7.27158577E-01  1.00000000E+00  0.00000000E+00
  0.00000000E+00  0.00000000E+00  0.00000000E+00  0.00000000E+00  0.00000000E+00
  0.00000000E+00  7.08742682E-02  3.39752839E-01  7.27158577E-01  1.00000000E+00
  0.00000000E+00  0.00000000E+00  0.00000000E+00  0.00000000E+00  0.00000000E+00
  0.00000000E+00  0.00000000E+00  0.00000000E+00  0.00000000E+00  0.00000000E+00
  0.00000000E+00  0.00000000E+00  0.00000000E+00  0.00000000E+00  0.00000000E+00
  0.00000000E+00  0.00000000E+00  0.00000000E+00  0.00000000E+00  0.00000000E+00
  0.00000000E+00  0.00000000E+00  0.00000000E+00  0.00000000E+00  0.00000000E+00
  0.00000000E+00  0.00000000E+00  0.00000000E+00  0.00000000E+00  0.00000000E+00
  0.00000000E+00  0.00000000E+00  0.00000000E+00  0.00000000E+00  0.00000000E+00
  0.00000000E+00  0.00000000E+00  0.00000000E+00  0.00000000E+00  0.00000000E+00
  0.00000000E+00  0.00000000E+00  0.00000000E+00  0.00000000E+00  0.00000000E+00
  0.00000000E+00  0.00000000E+00  0.00000000E+00  0.00000000E+00  0.00000000E+00
  0.00000000E+00  0.00000000E+00  0.00000000E+00  0.00000000E+00  0.00000000E+00
  0.00000000E+00  0.00000000E+00  0.00000000E+00  0.00000000E+00  0.00000000E+00
  0.00000000E+00
Coordinates of each shell                  R   N=         180
  1.58591958E+01 -2.23232232E+01 -2.11658453E+01  1.58591958E+01 -2.23232232E+01
 -2.11658453E+01  1.58591958E+01 -2.23232232E+01 -2.11658453E+01  1.58591958E+01
 -2.23232232E+01 -2.11658453E+01  1.37010511E+01 -1.86319947E+01 -2.47619431E+01
  1.37010511E+01 -1.86319947E+01 -2.47619431E+01  1.37010511E+01 -1.86319947E+01
 -2.47619431E+01  1.37010511E+01 -1.86319947E+01 -2.47619431E+01  1.05265153E+01
 -2.41129828E+01 -2.02839555E+01  1.05265153E+01 -2.41129828E+01 -2.02839555E+01
  1.05265153E+01 -2.41129828E+01 -2.02839555E+01  1.05265153E+01 -2.41129828E+01
 -2.02839555E+01  1.31641969E+01 -1.74757998E+01 -1.94156226E+01  1.31641969E+01
 -1.74757998E+01 -1.94156226E+01  1.31641969E+01 -1.74757998E+01 -1.94156226E+01
  1.31641969E+01 -1.74757998E+01 -1.94156226E+01  1.31196920E+01 -2.23542903E+01
 -1.58189805E+01  1.31196920E+01 -2.23542903E+01 -1.58189805E+01  1.31196920E+01
 -2.23542903E+01 -1.58189805E+01  1.31196920E+01 -2.23542903E+01 -1.58189805E+01
  1.79028344E+01 -1.51124951E+01 -2.06321073E+01  1.79028344E+01 -1.51124951E+01
 -2.06321073E+01  1.79028344E+01 -1.51124951E+01 -2.06321073E+01  1.79028344E+01
 -1.51124951E+01 -2.06321073E+01  1.54490326E+01 -2.36930366E+01 -2.00580047E+01
  1.54490326E+01 -2.36930366E+01 -2.00580047E+01  1.54490326E+01 -2.36930366E+01
 -2.00580047E+01  1.74840371E+01 -2.17584956E+01 -2.06064713E+01  1.74840371E+01
 -2.17584956E+01 -2.06064713E+01  1.74840371E+01 -2.17584956E+01 -2.06064713E+01
  1.34560972E+01 -1.93157846E+01 -2.64185526E+01  1.34560972E+01 -1.93157846E+01
 -2.64185526E+01  1.34560972E+01 -1.93157846E+01 -2.64185526E+01  1.38733941E+01
 -2.00816358E+01 -2.36938794E+01  1.38733941E+01 -2.00816358E+01 -2.36938794E+01
  1.38733941E+01 -2.00816358E+01 -2.36938794E+01  8.77344660E+00 -2.42410798E+01
 -1.98570305E+01  8.77344660E+00 -2.42410798E+01 -1.98570305E+01  8.77344660E+00
 -2.42410798E+01 -1.98570305E+01  1.13076525E+01 -2.34423738E+01 -1.87966655E+01
  1.13076525E+01 -2.34423738E+01 -1.87966655E+01  1.13076525E+01 -2.34423738E+01
 -1.87966655E+01  1.31811270E+01 -1.86043839E+01 -2.08291075E+01  1.31811270E+01
 -1.86043839E+01 -2.08291075E+01  1.31811270E+01 -1.86043839E+01 -2.08291075E+01
  1.45213642E+01 -1.63243462E+01 -1.97383746E+01  1.45213642E+01 -1.63243462E+01
 -1.97383746E+01  1.45213642E+01 -1.63243462E+01 -1.97383746E+01  1.41645820E+01
 -2.28487768E+01 -1.44277169E+01  1.41645820E+01 -2.28487768E+01 -1.44277169E+01
  1.41645820E+01 -2.28487768E+01 -1.44277169E+01  1.38091000E+01 -2.07734569E+01
 -1.63645142E+01  1.38091000E+01 -2.07734569E+01 -1.63645142E+01  1.38091000E+01
 -2.07734569E+01 -1.63645142E+01  1.88925747E+01 -1.66213261E+01 -2.05065293E+01
  1.88925747E+01 -1.66213261E+01 -2.05065293E+01  1.88925747E+01 -1.66213261E+01
 -2.05065293E+01  1.81855715E+01 -1.42529872E+01 -1.90658267E+01  1.81855715E+01
 -1.42529872E+01 -1.90658267E+01  1.81855715E+01 -1.42529872E+01 -1.90658267E+01
Num ILSW                                   I              100
ILSW                                       I   N=         100
           0           0           0           0           2           0
           0           0           0           0           0          -1
           5           0           0           0           0           0
           0           0           0           0           0           0
           1           1           0           0           0           0
           0           0      100000           0          -1           0
           0           0           0           0           0           0
           0           0           0           1           0           0
           0 -2000000000           1           0           0           0
           0           0           4          52           0           0
           0           1           0           0           0           0
           0           0           0          18           0           1
           0           0           0           0           0           0
           0           0           0           0           0           0
           0           0           0           0           0           0
           0           0           0           0           0           0
           0           0           0           0
Num RLSW                                   I               52
RLSW                                       R   N=          52
  1.00000000E+00  1.00000000E+00  1.00000000E+00  1.00000000E+00  1.00000000E+00
  0.00000000E+00  0.00000000E+00  1.00000000E+00  0.00000000E+00  0.00000000E+00
  0.00000000E+00  0.00000000E+00  1.00000000E+00  0.00000000E+00  0.00000000E+00
  0.00000000E+00  0.00000000E+00  1.00000000E+00  0.00000000E+00  0.00000000E+00
  0.00000000E+00  0.00000000E+00  1.00000000E+00  0.00000000E+00  0.00000000E+00
  0.00000000E+00  0.00000000E+00  1.00000000E+00  0.00000000E+00  0.00000000E+00
  0.00000000E+00  0.00000000E+00  1.00000000E+00  0.00000000E+00  0.00000000E+00
  0.00000000E+00  0.00000000E+00  0.00000000E+00  1.00000000E+00  1.00000000E+00
  0.00000000E+00  1.00000000E+00  0.00000000E+00  0.00000000E+00  0.00000000E+00
  0.00000000E+00  0.00000000E+00  0.00000000E+00  0.00000000E+00  0.00000000E+00
  0.00000000E+00  0.00000000E+00
MxBond                                     I                2
NBond                                      I   N=          18
           2           2           2           2           2           2
           1           1           1           1           1           1
           1           1           1           1           1           1
IBond                                      I   N=          36
           7           8           9          10          11          12
          13          14          15          16          17          18
           1           0           1           0           2           0
           2           0           3           0           3           0
           4           0           4           0           5           0
           5           0           6           0           6           0
RBond                                      R   N=          36
  1.00000000E+00  1.00000000E+00  1.00000000E+00  1.00000000E+00  1.00000000E+00
  1.00000000E+00  1.00000000E+00  1.00000000E+00  1.00000000E+00  1.00000000E+00
  1.00000000E+00  1.00000000E+00  1.00000000E+00  0.00000000E+00  1.00000000E+00
  0.00000000E+00  1.00000000E+00  0.00000000E+00  1.00000000E+00  0.00000000E+00
  1.00000000E+00  0.00000000E+00  1.00000000E+00  0.00000000E+00  1.00000000E+00
  0.00000000E+00  1.00000000E+00  0.00000000E+00  1.00000000E+00  0.00000000E+00
  1.00000000E+00  0.00000000E+00  1.00000000E+00  0.00000000E+00  1.00000000E+00
  0.00000000E+00
Virial Ratio                               R      2.029172202797693E+00
SCF Energy                                 R     -4.687160084810219E+02
Total Energy                               R     -4.687160084810219E+02
RMS Density                                R      6.850510329106313E-09
Job Status                                 I                1
Nuclear derivative order                   I                0
External E-field                           R   N=          35
  0.00000000E+00  0.00000000E+00  0.00000000E+00  0.00000000E+00  0.00000000E+00
  0.00000000E+00  0.00000000E+00  0.00000000E+00  0.00000000E+00  0.00000000E+00
  0.00000000E+00  0.00000000E+00  0.00000000E+00  0.00000000E+00  0.00000000E+00
  0.00000000E+00  0.00000000E+00  0.00000000E+00  0.00000000E+00  0.00000000E+00
  0.00000000E+00  0.00000000E+00  0.00000000E+00  0.00000000E+00  0.00000000E+00
  0.00000000E+00  0.00000000E+00  0.00000000E+00  0.00000000E+00  0.00000000E+00
  0.00000000E+00  0.00000000E+00  0.00000000E+00  0.00000000E+00  0.00000000E+00
IOpCl                                      I                0
IROHF                                      I                0
Alpha Orbital Energies                     R   N=         144
 -2.06125244E+01 -2.05903869E+01 -2.05466456E+01 -2.05372358E+01 -2.05299268E+01
 -2.05247212E+01 -1.39553869E+00 -1.37578529E+00 -1.33279180E+00 -1.32348323E+00
 -1.31235931E+00 -1.30983222E+00 -7.54278111E-01 -7.38272320E-01 -7.05241205E-01
 -6.96708506E-01 -6.75894298E-01 -6.71932679E-01 -6.29476186E-01 -6.08612902E-01
 -5.78213633E-01 -5.71926560E-01 -5.44994730E-01 -5.40746830E-01 -5.35462132E-01
 -5.30814998E-01 -4.96561108E-01 -4.78880031E-01 -4.71941887E-01 -4.70958129E-01
  1.65959883E-01  2.08743114E-01  2.53781589E-01  2.80104050E-01  3.06244097E-01
  3.23963978E-01  3.34279512E-01  3.73684083E-01  4.02031686E-01  4.18499887E-01
  4.51582965E-01  4.87411793E-01  9.37857496E-01  9.52917397E-01  9.79368996E-01
  1.02675615E+00  1.05388423E+00  1.06093602E+00  1.07262396E+00  1.08587872E+00
  1.09338751E+00  1.09793896E+00  1.11741685E+00  1.12938761E+00  1.14504810E+00
  1.15294067E+00  1.16491001E+00  1.19095357E+00  1.19688875E+00  1.21987062E+00
  1.22500711E+00  1.25738252E+00  1.28041756E+00  1.29195753E+00  1.30474582E+00
  1.33130524E+00  1.33187780E+00  1.36545136E+00  1.38737001E+00  1.40354593E+00
  1.45458122E+00  1.50712149E+00  1.58264757E+00  1.61173843E+00  1.65841651E+00
  1.71705805E+00  1.74358406E+00  1.76008686E+00  1.77221912E+00  1.78465532E+00
  1.79888697E+00  1.81420035E+00  1.83365950E+00  1.83544409E+00  1.84289340E+00
  1.84929241E+00  1.85423948E+00  1.87925148E+00  1.90918892E+00  1.92735372E+00
  1.94976896E+00  1.95520802E+00  1.99896084E+00  2.01330238E+00  2.03299635E+00
  2.09171962E+00  2.52487413E+00  2.52868625E+00  2.55155730E+00  2.56609525E+00
  2.59610930E+00  2.60142397E+00  2.60862704E+00  2.61339293E+00  2.62952104E+00
  2.66915279E+00  2.69575655E+00  2.73200692E+00  2.77395616E+00  2.79495644E+00
  2.83645156E+00  2.84889450E+00  2.89414271E+00  2.90875757E+00  2.93490454E+00
  2.95609240E+00  2.96553378E+00  2.97262137E+00  3.00761564E+00  3.01019664E+00
  3.02100012E+00  3.02282411E+00  3.03566148E+00  3.04106813E+00  3.05484497E+00
  3.07448481E+00  3.33235317E+00  3.37410437E+00  3.41361912E+00  3.42135951E+00
  3.42412390E+00  3.43531902E+00  3.70973497E+00  3.76923677E+00  3.80367205E+00
  3.82731337E+00  3.83250158E+00  3.85326328E+00  3.90041428E+00  3.93005133E+00
  3.95999449E+00  4.01777601E+00  4.02905386E+00  4.07871959E+00
Alpha MO coefficients                      R   N=       20736
 -2.07677324E-05 -4.80457539E-05 -2.27599538E-06  6.14444048E-06 -3.79473434E-06
  2.22582194E-04  1.02706283E-04  1.08820330E-05  6.59008992E-05 -8.32712749E-06
  6.61032621E-06 -4.74538184E-06  1.22650008E-05  1.09406173E-05  6.17213689E-06
  1.78366418E-05  9.28981757E-06  6.31642512E-06  4.55524814E-06 -4.67593805E-05
 -3.79419540E-05  1.43904881E-07 -4.69375375E-05  6.49605023E-06 -8.41111903E-06
  8.21958798E-06  3.86681302E-06  1.58164197E-07 -9.03979775E-07 -1.38785910E-06
  2.41696276E-07 -3.59348936E-06  9.25955414E-07 -1.57049321E-06  6.80646140E-07
  1.07090970E-05 -8.81193043E-07  3.87069231E-07  1.22201777E-06  1.34534465E-06
 -1.91607179E-06  1.36365256E-06  7.37287265E-05  2.82420242E-04  2.27052734E-05
  7.03625564E-05  7.71335246E-06 -9.84401947E-04 -4.76489847E-04 -5.74678786E-04
 -1.99444180E-05  6.81900052E-05  3.89565470E-05  5.34070129E-05 -6.34383780E-05
 -1.05209647E-04 -2.38561549E-05 -2.21561147E-05 -1.48145545E-06 -2.35744263E-06
 -4.52439764E-07  9.67501175E-05  2.56007909E-05  5.80849557E-05 -1.52983257E-05
 -4.94928572E-06 -6.32543969E-07 -8.17974822E-06 -7.32153549E-06  8.34477366E-06
  9.95709265E-01  2.21536994E-02  1.01705681E-03 -6.06124691E-04  1.62669711E-03
 -6.22690893E-03 -9.36393500E-05  4.26752391E-04 -7.99917186E-04  5.55935465E-05
  1.32230603E-04  2.61708204E-04 -2.47374979E-04 -2.89228412E-04 -4.68231985E-05
  4.94617911E-05 -5.40022954E-06 -4.51622284E-06  2.44628735E-06  9.45124785E-06
 -2.97829857E-04  4.76761412E-05  9.28357811E-06  1.23047958E-05 -1.05643888E-05
 -4.13956686E-05  1.34452860E-06 -3.81840251E-07 -9.29703534E-06  1.08950198E-05
  1.23066368E-04  1.66538546E-06  1.79824970E-05  1.26637295E-05  5.58433529E-07
  2.24520294E-07  7.78828066E-07 -1.75131017E-06 -4.30782182E-07 -5.00565965E-06
  1.16466538E-05  6.61633426E-07  3.78699653E-07  1.64452788E-06 -9.38711081E-06
 -3.61567624E-04  1.36691794E-05 -1.03238187E-05 -5.10041115E-05  1.43613713E-04
  1.51095345E-03  3.55844559E-05 -9.22794604E-05 -8.04662002E-06 -1.23978675E-05
  2.49970888E-05 -1.31290429E-06 -2.71872694E-06  2.37390901E-07 -5.75982136E-06
 -1.32884328E-04  1.15586082E-05  1.81924522E-05 -5.84172656E-06 -4.84411265E-04
  1.21411107E-03  6.02998055E-04 -9.68026331E-04  1.50179297E-04 -4.23939845E-04
  1.03360316E-03  1.80030809E-04  5.07433057E-04  1.06653144E-03  1.30334461E-05
  6.55728066E-05 -1.16753434E-05 -8.93483992E-07 -1.47160201E-06 -2.17593479E-04
  1.44203420E-04  1.60483663E-04 -1.15086906E-04 -2.24274681E-05  3.28665093E-05
  4.36270518E-05  2.14074676E-05 -8.31388936E-06 -7.05413255E-06 -1.36822115E-05
  3.49882590E-06 -6.42267896E-06 -1.10052275E-05  1.23588839E-05 -7.04135350E-06
  1.91981908E-05  7.48597889E-05  1.65914591E-06 -3.56311269E-06 -1.03464880E-05
 -2.62849818E-06 -2.12782528E-06  1.15002132E-04  3.20011368E-04  4.78311550E-05
  2.38026795E-05  4.22715065E-05 -1.11277389E-03 -4.19002243E-04 -2.55977870E-04
 -5.35851170E-04 -7.26840086E-05 -8.47166154E-05 -6.90914117E-05 -1.31339504E-05
 -3.43126154E-05  1.80700359E-05  3.68525807E-05  1.42865078E-05 -5.21939874E-05
  5.93898871E-05  1.39503589E-04  1.89586700E-05  1.87882373E-04 -2.90658126E-04
  4.76595588E-07 -2.25431649E-05  3.31420251E-05  2.20159546E-05  3.12480478E-05
  9.95702804E-01  2.22051698E-02  1.50055486E-03  8.61284651E-04  6.68514309E-04
 -6.34307970E-03 -4.40812638E-04 -4.67762823E-04  2.38069402E-04  2.74143323E-05