 Entering Gaussian System, Link 0=g16
 Input=w32_12.gjf
 Output=w32_12.log
 Initial command:
 /home/soft/g16/l1.exe "/tmp/liwei01/gaussian/wsr/Gau-5586.inp" -scrdir="/tmp/liwei01/gaussian/wsr/"
 Entering Link 1 = /home/soft/g16/l1.exe PID=      5587.
  
 Copyright (c) 1988,1990,1992,1993,1995,1998,2003,2009,2016,
            Gaussian, Inc.  All Rights Reserved.
  
 This is part of the Gaussian(R) 16 program.  It is based on
 the Gaussian(R) 09 system (copyright 2009, Gaussian, Inc.),
 the Gaussian(R) 03 system (copyright 2003, Gaussian, Inc.),
 the Gaussian(R) 98 system (copyright 1998, Gaussian, Inc.),
 the Gaussian(R) 94 system (copyright 1995, Gaussian, Inc.),
 the Gaussian 92(TM) system (copyright 1992, Gaussian, Inc.),
 the Gaussian 90(TM) system (copyright 1990, Gaussian, Inc.),
 the Gaussian 88(TM) system (copyright 1988, Gaussian, Inc.),
 the Gaussian 86(TM) system (copyright 1986, Carnegie Mellon
 University), and the Gaussian 82(TM) system (copyright 1983,
 Carnegie Mellon University). Gaussian is a federally registered
 trademark of Gaussian, Inc.
  
 This software contains proprietary and confidential information,
 including trade secrets, belonging to Gaussian, Inc.
  
 This software is provided under written license and may be
 used, copied, transmitted, or stored only in accord with that
 written license.
  
 The following legend is applicable only to US Government
 contracts under FAR:
  
                    RESTRICTED RIGHTS LEGEND
  
 Use, reproduction and disclosure by the US Government is
 subject to restrictions as set forth in subparagraphs (a)
 and (c) of the Commercial Computer Software - Restricted
 Rights clause in FAR 52.227-19.
  
 Gaussian, Inc.
 340 Quinnipiac St., Bldg. 40, Wallingford CT 06492
  
  
 ---------------------------------------------------------------
 Warning -- This program may not be used in any manner that
 competes with the business of Gaussian, Inc. or will provide
 assistance to any competitor of Gaussian, Inc.  The licensee
 of this program is prohibited from giving any competitor of
 Gaussian, Inc. access to this program.  By using this program,
 the user acknowledges that Gaussian, Inc. is engaged in the
 business of creating and licensing software in the field of
 computational chemistry and represents and warrants to the
 licensee that it is not a competitor of Gaussian, Inc. and that
 it will not use this program in any manner prohibited above.
 ---------------------------------------------------------------
  

 Cite this work as:
 Gaussian 16, Revision A.03,
 M. J. Frisch, G. W. Trucks, H. B. Schlegel, G. E. Scuseria, 
 M. A. Robb, J. R. Cheeseman, G. Scalmani, V. Barone, 
 G. A. Petersson, H. Nakatsuji, X. Li, M. Caricato, A. V. Marenich, 
 J. Bloino, B. G. Janesko, R. Gomperts, B. Mennucci, H. P. Hratchian, 
 J. V. Ortiz, A. F. Izmaylov, J. L. Sonnenberg, D. Williams-Young, 
 F. Ding, F. Lipparini, F. Egidi, J. Goings, B. Peng, A. Petrone, 
 T. Henderson, D. Ranasinghe, V. G. Zakrzewski, J. Gao, N. Rega, 
 G. Zheng, W. Liang, M. Hada, M. Ehara, K. Toyota, R. Fukuda, 
 J. Hasegawa, M. Ishida, T. Nakajima, Y. Honda, O. Kitao, H. Nakai, 
 T. Vreven, K. Throssell, J. A. Montgomery, Jr., J. E. Peralta, 
 F. Ogliaro, M. J. Bearpark, J. J. Heyd, E. N. Brothers, K. N. Kudin, 
 V. N. Staroverov, T. A. Keith, R. Kobayashi, J. Normand, 
 K. Raghavachari, A. P. Rendell, J. C. Burant, S. S. Iyengar, 
 J. Tomasi, M. Cossi, J. M. Millam, M. Klene, C. Adamo, R. Cammi, 
 J. W. Ochterski, R. L. Martin, K. Morokuma, O. Farkas, 
 J. B. Foresman, and D. J. Fox, Gaussian, Inc., Wallingford CT, 2016.
 
 ******************************************
 Gaussian 16:  ES64L-G16RevA.03 25-Dec-2016
                15-May-2020 
 ******************************************
 %chk=w32_12.chk
 %nproc=4
 Will use up to    4 processors via shared memory.
 %mem=1gb
 -----------------------------------------
 #p hf/6-31g** 5d 7f pop=npa charge nosymm
 -----------------------------------------
 1/18=10,28=-2,38=1,125=101,172=1/1;
 2/12=2,15=1,17=6,18=5,40=1/2;
 3/5=1,6=6,7=101,8=11,11=9,25=1,30=1/1,2,3;
 4//1;
 5/5=2,38=5/2;
 6/7=2,8=2,9=2,10=2,28=1,40=-1/1,7;
 99/5=1,9=1/99;
 Leave Link    1 at Fri May 15 22:35:08 2020, MaxMem=   134217728 cpu:               0.2 elap:               0.1
 (Enter /home/soft/g16/l101.exe)
 --------------
 Atom number=15
 --------------
 Symbolic Z-matrix:
 Charge =  0 Multiplicity = 1
 o                     7.25028  -9.85963  -13.10346 
 o                     5.57039  -12.76004  -10.73381 
 o                     4.03914  -11.22426  -12.80441 
 o                     5.33976  -11.21224  -15.47452 
 o                     4.64126  -8.13828  -12.67115 
 h                     7.12066  -10.22147  -13.9801 
 h                     7.34148  -10.62674  -12.53826 
 h                     4.64271  -12.82783  -10.50789 
 h                     5.98375  -12.40517  -9.94677 
 h                     4.52484  -12.04761  -12.75518 
 h                     4.43212  -10.75754  -13.54196 
 h                     5.88008  -10.45867  -15.71204 
 h                     5.48956  -11.8457  -16.17632 
 h                     4.59781  -7.27204  -12.2662 
 h                     5.5765   -8.33841  -12.70997 
 
 ITRead=  0  0  0  0  0  0  0  0  0  0  0  0  0  0  0
 MicOpt= -1 -1 -1 -1 -1 -1 -1 -1 -1 -1 -1 -1 -1 -1 -1
 NAtoms=     15 NQM=       15 NQMF=       0 NMMI=      0 NMMIF=      0
                NMic=       0 NMicF=      0.
                    Isotopes and Nuclear Properties:
 (Nuclear quadrupole moments (NQMom) in fm**2, nuclear magnetic moments (NMagM)
  in nuclear magnetons)

  Atom         1           2           3           4           5           6           7           8           9          10
 IAtWgt=          16          16          16          16          16           1           1           1           1           1
 AtmWgt=  15.9949146  15.9949146  15.9949146  15.9949146  15.9949146   1.0078250   1.0078250   1.0078250   1.0078250   1.0078250
 NucSpn=           0           0           0           0           0           1           1           1           1           1
 AtZEff=  -0.0000000  -0.0000000  -0.0000000  -0.0000000  -0.0000000  -0.0000000  -0.0000000  -0.0000000  -0.0000000  -0.0000000
 NQMom=    0.0000000   0.0000000   0.0000000   0.0000000   0.0000000   0.0000000   0.0000000   0.0000000   0.0000000   0.0000000
 NMagM=    0.0000000   0.0000000   0.0000000   0.0000000   0.0000000   2.7928460   2.7928460   2.7928460   2.7928460   2.7928460
 AtZNuc=   8.0000000   8.0000000   8.0000000   8.0000000   8.0000000   1.0000000   1.0000000   1.0000000   1.0000000   1.0000000

  Atom        11          12          13          14          15
 IAtWgt=           1           1           1           1           1
 AtmWgt=   1.0078250   1.0078250   1.0078250   1.0078250   1.0078250
 NucSpn=           1           1           1           1           1
 AtZEff=  -0.0000000  -0.0000000  -0.0000000  -0.0000000  -0.0000000
 NQMom=    0.0000000   0.0000000   0.0000000   0.0000000   0.0000000
 NMagM=    2.7928460   2.7928460   2.7928460   2.7928460   2.7928460
 AtZNuc=   1.0000000   1.0000000   1.0000000   1.0000000   1.0000000
 Background charge distribution read from input stream:
 Point Charges:
 XYZ=    8.3923  -11.8129  -11.2005 Q=   -1.0561 A=    0.0000 R=    0.0000 C=    0.0000
 XYZ=    8.1753  -12.5378  -10.6142 Q=    0.5233 A=    0.0000 R=    0.0000 C=    0.0000
 XYZ=    9.2522  -11.5141  -10.9045 Q=    0.5177 A=    0.0000 R=    0.0000 C=    0.0000
 XYZ=   10.7060  -10.8489  -10.0915 Q=   -1.0357 A=    0.0000 R=    0.0000 C=    0.0000
 XYZ=   11.5214  -11.3203   -9.9208 Q=    0.5206 A=    0.0000 R=    0.0000 C=    0.0000
 XYZ=   10.5678  -10.3169   -9.3078 Q=    0.5156 A=    0.0000 R=    0.0000 C=    0.0000
 XYZ=    8.6932  -14.0693   -9.5471 Q=   -1.0099 A=    0.0000 R=    0.0000 C=    0.0000
 XYZ=    8.2201  -13.7327   -8.7861 Q=    0.4999 A=    0.0000 R=    0.0000 C=    0.0000
 XYZ=    8.5528  -15.0157   -9.5178 Q=    0.5079 A=    0.0000 R=    0.0000 C=    0.0000
 XYZ=    6.9662   -9.2478  -10.2743 Q=   -1.0324 A=    0.0000 R=    0.0000 C=    0.0000
 XYZ=    6.9752   -9.8450  -11.0223 Q=    0.5142 A=    0.0000 R=    0.0000 C=    0.0000
 XYZ=    7.6844   -8.6385  -10.4451 Q=    0.5185 A=    0.0000 R=    0.0000 C=    0.0000
 XYZ=    6.9426  -11.8294   -8.3710 Q=   -1.0528 A=    0.0000 R=    0.0000 C=    0.0000
 XYZ=    7.4956  -12.0911   -7.6348 Q=    0.5210 A=    0.0000 R=    0.0000 C=    0.0000
 XYZ=    7.3075  -10.9928   -8.6597 Q=    0.5255 A=    0.0000 R=    0.0000 C=    0.0000
 XYZ=    9.7397  -14.5602  -13.0841 Q=   -1.0029 A=    0.0000 R=    0.0000 C=    0.0000
 XYZ=    9.4367  -13.9209  -12.4394 Q=    0.5215 A=    0.0000 R=    0.0000 C=    0.0000
 XYZ=   10.6527  -14.3230  -13.2466 Q=    0.4988 A=    0.0000 R=    0.0000 C=    0.0000
 XYZ=   10.0849   -9.6030  -13.6944 Q=   -1.0549 A=    0.0000 R=    0.0000 C=    0.0000
 XYZ=    9.8380   -9.8779  -14.5774 Q=    0.5180 A=    0.0000 R=    0.0000 C=    0.0000
 XYZ=    9.2671   -9.6284  -13.1976 Q=    0.5226 A=    0.0000 R=    0.0000 C=    0.0000
 XYZ=    9.4738   -7.9972  -10.9180 Q=   -0.9971 A=    0.0000 R=    0.0000 C=    0.0000
 XYZ=    9.9975   -8.7956  -10.8516 Q=    0.5301 A=    0.0000 R=    0.0000 C=    0.0000
 XYZ=    9.6234   -7.5424  -10.0892 Q=    0.4920 A=    0.0000 R=    0.0000 C=    0.0000
 XYZ=    8.4516  -10.6356  -15.6859 Q=   -1.0322 A=    0.0000 R=    0.0000 C=    0.0000
 XYZ=    8.1250  -10.4069  -16.5562 Q=    0.4798 A=    0.0000 R=    0.0000 C=    0.0000
 XYZ=    9.2622  -11.1166  -15.8526 Q=    0.5341 A=    0.0000 R=    0.0000 C=    0.0000
 XYZ=    5.5848  -15.5922  -11.4699 Q=   -1.0129 A=    0.0000 R=    0.0000 C=    0.0000
 XYZ=    4.6785  -15.3483  -11.6582 Q=    0.5050 A=    0.0000 R=    0.0000 C=    0.0000
 XYZ=    6.0031  -14.7735  -11.2032 Q=    0.5257 A=    0.0000 R=    0.0000 C=    0.0000
 XYZ=    8.8013  -12.4259   -6.4973 Q=   -0.9852 A=    0.0000 R=    0.0000 C=    0.0000
 XYZ=    9.0556  -11.7490   -5.8701 Q=    0.5006 A=    0.0000 R=    0.0000 C=    0.0000
 XYZ=    8.9395  -13.2499   -6.0303 Q=    0.5083 A=    0.0000 R=    0.0000 C=    0.0000
 XYZ=   10.5523   -9.0602   -7.7657 Q=   -0.9799 A=    0.0000 R=    0.0000 C=    0.0000
 XYZ=   10.0296   -9.4526   -7.0665 Q=    0.5003 A=    0.0000 R=    0.0000 C=    0.0000
 XYZ=   10.0576   -8.2839   -8.0284 Q=    0.4937 A=    0.0000 R=    0.0000 C=    0.0000
 XYZ=    8.4919  -14.1596  -15.7110 Q=   -0.9823 A=    0.0000 R=    0.0000 C=    0.0000
 XYZ=    8.8439  -15.0437  -15.8144 Q=    0.4799 A=    0.0000 R=    0.0000 C=    0.0000
 XYZ=    8.9183  -13.8221  -14.9233 Q=    0.4950 A=    0.0000 R=    0.0000 C=    0.0000
 XYZ=   10.6752  -11.9252  -15.8192 Q=   -0.9837 A=    0.0000 R=    0.0000 C=    0.0000
 XYZ=   11.1454  -12.2597  -15.0555 Q=    0.5055 A=    0.0000 R=    0.0000 C=    0.0000
 XYZ=   10.7694  -12.6123  -16.4789 Q=    0.5125 A=    0.0000 R=    0.0000 C=    0.0000
 XYZ=    7.7593  -16.5050  -13.2460 Q=   -1.0112 A=    0.0000 R=    0.0000 C=    0.0000
 XYZ=    7.3079  -16.2111  -12.4547 Q=    0.4926 A=    0.0000 R=    0.0000 C=    0.0000
 XYZ=    8.5373  -15.9498  -13.2987 Q=    0.4973 A=    0.0000 R=    0.0000 C=    0.0000
 XYZ=   13.4576  -11.7733   -9.7740 Q=   -0.9993 A=    0.0000 R=    0.0000 C=    0.0000
 XYZ=   13.9089  -10.9962  -10.1037 Q=    0.5128 A=    0.0000 R=    0.0000 C=    0.0000
 XYZ=   14.1508  -12.4236   -9.6612 Q=    0.5076 A=    0.0000 R=    0.0000 C=    0.0000
 XYZ=    5.5914  -15.5335   -8.7002 Q=   -1.0162 A=    0.0000 R=    0.0000 C=    0.0000
 XYZ=    6.3093  -16.0707   -8.3652 Q=    0.4831 A=    0.0000 R=    0.0000 C=    0.0000
 XYZ=    5.4763  -15.8239   -9.6050 Q=    0.5237 A=    0.0000 R=    0.0000 C=    0.0000
 XYZ=   12.9960  -14.7139  -11.2100 Q=   -0.9778 A=    0.0000 R=    0.0000 C=    0.0000
 XYZ=   12.2864  -15.1619  -10.7497 Q=    0.5059 A=    0.0000 R=    0.0000 C=    0.0000
 XYZ=   13.6357  -14.5124  -10.5270 Q=    0.4638 A=    0.0000 R=    0.0000 C=    0.0000
 XYZ=    8.9611  -17.0167   -9.2755 Q=   -0.9921 A=    0.0000 R=    0.0000 C=    0.0000
 XYZ=    8.6736  -17.2191   -8.3852 Q=    0.5092 A=    0.0000 R=    0.0000 C=    0.0000
 XYZ=    8.3026  -17.4234   -9.8386 Q=    0.5103 A=    0.0000 R=    0.0000 C=    0.0000
 XYZ=   12.8900   -9.6906  -13.7511 Q=   -0.9984 A=    0.0000 R=    0.0000 C=    0.0000
 XYZ=   13.4884   -9.8459  -13.0204 Q=    0.4670 A=    0.0000 R=    0.0000 C=    0.0000
 XYZ=   12.0171   -9.7427  -13.3618 Q=    0.5160 A=    0.0000 R=    0.0000 C=    0.0000
 XYZ=    4.9070   -7.9100   -9.1300 Q=   -1.0105 A=    0.0000 R=    0.0000 C=    0.0000
 XYZ=    4.0635   -8.0265   -9.5674 Q=    0.4764 A=    0.0000 R=    0.0000 C=    0.0000
 XYZ=    5.4227   -8.6710   -9.3968 Q=    0.5176 A=    0.0000 R=    0.0000 C=    0.0000
 XYZ=    2.9547  -12.7024   -9.8757 Q=   -0.9915 A=    0.0000 R=    0.0000 C=    0.0000
 XYZ=    3.0641  -13.5048   -9.3654 Q=    0.5019 A=    0.0000 R=    0.0000 C=    0.0000
 XYZ=    2.7384  -12.0329   -9.2268 Q=    0.5105 A=    0.0000 R=    0.0000 C=    0.0000
 XYZ=    4.2108  -13.3306   -7.5546 Q=   -1.0293 A=    0.0000 R=    0.0000 C=    0.0000
 XYZ=    4.9638  -12.7453   -7.4735 Q=    0.4979 A=    0.0000 R=    0.0000 C=    0.0000
 XYZ=    4.5835  -14.1618   -7.8486 Q=    0.5197 A=    0.0000 R=    0.0000 C=    0.0000
 XYZ=    8.5389   -6.2611  -12.9484 Q=   -1.0019 A=    0.0000 R=    0.0000 C=    0.0000
 XYZ=    8.8800   -6.8491  -12.2745 Q=    0.5098 A=    0.0000 R=    0.0000 C=    0.0000
 XYZ=    9.2767   -6.1230  -13.5423 Q=    0.4773 A=    0.0000 R=    0.0000 C=    0.0000
 XYZ=   11.4715  -15.3553   -7.5180 Q=   -1.0197 A=    0.0000 R=    0.0000 C=    0.0000
 XYZ=   10.8644  -15.3558   -8.2581 Q=    0.4753 A=    0.0000 R=    0.0000 C=    0.0000
 XYZ=   11.9075  -14.5045   -7.5658 Q=    0.5146 A=    0.0000 R=    0.0000 C=    0.0000
 XYZ=   12.8138  -13.0185   -7.3663 Q=   -0.9959 A=    0.0000 R=    0.0000 C=    0.0000
 XYZ=   12.4819  -12.4171   -6.6996 Q=    0.4994 A=    0.0000 R=    0.0000 C=    0.0000
 XYZ=   12.6552  -12.5682   -8.1960 Q=    0.5110 A=    0.0000 R=    0.0000 C=    0.0000
 XYZ=   11.3245  -17.0116  -10.7628 Q=   -1.0019 A=    0.0000 R=    0.0000 C=    0.0000
 XYZ=   11.7165  -17.8633  -10.5702 Q=    0.4876 A=    0.0000 R=    0.0000 C=    0.0000
 XYZ=   10.4428  -17.0644  -10.3939 Q=    0.5095 A=    0.0000 R=    0.0000 C=    0.0000
 Pt Chg Charge=              0.0217 electrons
 Pt Chg Dipole moment (Debye):
    X=             12.8046    Y=             -7.3250    Z=             16.4651  Tot=             22.1069
 Pt Chg Quadrupole moment (Debye-Ang):
   XX=            218.8873   YY=            159.1689   ZZ=           -334.7253
   XY=           -172.0955   XZ=             23.9353   YZ=           -127.8897
 Pt Chg Traceless Quadrupole moment (Debye-Ang):
   XX=            204.4437   YY=            144.7253   ZZ=           -349.1689
   XY=           -172.0955   XZ=             23.9353   YZ=           -127.8897
 Pt Chg Octapole moment (Debye-Ang**2):
  XXX=           3120.1235  YYY=          -3138.6026  ZZZ=           5094.6234  XYY=           2342.2293
  XXY=          -2465.7502  XXZ=           -890.9550  XZZ=          -1641.4914  YZZ=           3249.9851
  YYZ=            951.5848  XYZ=            121.8944
 Pt Chg Hexadecapole moment (Debye-Ang**3):
 XXXX=          43829.5526 YYYY=          62261.8380 ZZZZ=         -67750.5027 XXXY=         -33010.5979
 XXXZ=         -19976.5433 YYYX=         -34707.4497 YYYZ=          -3820.3140 ZZZX=          29765.9942
 ZZZY=         -52815.0123 XXYY=          28642.2559 XXZZ=          -2961.8291 YYZZ=         -35232.0136
 XXYZ=          12611.0252 YYXZ=          -5121.9210 ZZXY=          13174.0889
 Leave Link  101 at Fri May 15 22:35:08 2020, MaxMem=   134217728 cpu:               0.6 elap:               0.2
 (Enter /home/soft/g16/l202.exe)
                          Input orientation:                          
 ---------------------------------------------------------------------
 Center     Atomic      Atomic             Coordinates (Angstroms)
 Number     Number       Type             X           Y           Z
 ---------------------------------------------------------------------
      1          8           0        7.250284   -9.859627  -13.103456
      2          8           0        5.570392  -12.760041  -10.733807
      3          8           0        4.039142  -11.224262  -12.804410
      4          8           0        5.339755  -11.212242  -15.474518
      5          8           0        4.641258   -8.138278  -12.671145
      6          1           0        7.120660  -10.221473  -13.980096
      7          1           0        7.341484  -10.626744  -12.538261
      8          1           0        4.642708  -12.827827  -10.507888
      9          1           0        5.983752  -12.405170   -9.946767
     10          1           0        4.524844  -12.047609  -12.755179
     11          1           0        4.432119  -10.757539  -13.541956
     12          1           0        5.880078  -10.458674  -15.712045
     13          1           0        5.489557  -11.845700  -16.176318
     14          1           0        4.597809   -7.272042  -12.266198
     15          1           0        5.576498   -8.338407  -12.709967
 ---------------------------------------------------------------------
                    Distance matrix (angstroms):
                    1          2          3          4          5
     1  O    0.000000
     2  O    4.104836   0.000000
     3  O    3.501870   2.998456   0.000000
     4  O    3.331910   4.992316   2.970053   0.000000
     5  O    3.155464   5.096789   3.146999   4.218537   0.000000
     6  H    0.957200   4.402959   3.447256   2.527161   3.492920
     7  H    0.957200   3.308138   3.366501   3.601574   3.674417
     8  H    4.727223   0.957200   2.865262   5.269099   5.164451
     9  H    4.248362   0.957200   3.652694   5.691559   5.237451
    10  H    3.512348   2.384675   0.957199   2.959176   3.911967
    11  H    2.990081   3.631994   0.957202   2.182969   2.768136
    12  H    3.006835   5.493182   3.525551   0.957200   4.020695
    13  H    4.060434   5.519373   3.722855   0.957201   5.172120
    14  H    3.798976   5.780335   4.027633   5.135073   0.957201
    15  H    2.295758   4.843149   3.271168   3.994711   0.957200
                    6          7          8          9         10
     6  H    0.000000
     7  H    1.513901   0.000000
     8  H    4.998955   4.031200   0.000000
     9  H    4.725340   3.423752   1.513901   0.000000
    10  H    3.401978   3.162178   2.381795   3.184877   0.000000
    11  H    2.776254   3.080408   3.679132   4.248251   1.513901
    12  H    2.143585   3.498122   5.850403   6.085887   3.620004
    13  H    3.181509   4.260393   5.814880   6.274117   3.560285
    14  H    4.242802   4.342326   5.827557   5.800828   4.801090
    15  H    2.746562   2.895021   5.086847   4.933527   3.855671
                   11         12         13         14         15
    11  H    0.000000
    12  H    2.625870   0.000000
    13  H    3.040088   1.513901   0.000000
    14  H    3.715333   4.865460   6.082976   0.000000
    15  H    2.802500   3.687840   4.931962   1.513901   0.000000
 Symmetry turned off by external request.
 Stoichiometry    H10O5
 Framework group  C1[X(H10O5)]
 Deg. of freedom    39
 Full point group                 C1      NOp   1
 Rotational constants (GHZ):           1.8414755           1.3553221           1.1511333
 Leave Link  202 at Fri May 15 22:35:08 2020, MaxMem=   134217728 cpu:               0.1 elap:               0.0
 (Enter /home/soft/g16/l301.exe)
 Standard basis: 6-31G(d,p) (5D, 7F)
 Ernie: Thresh=  0.10000D-02 Tol=  0.10000D-05 Strict=F.
   120 basis functions,   210 primitive gaussians,   125 cartesian basis functions
    25 alpha electrons       25 beta electrons
       nuclear repulsion energy       191.4893278830 Hartrees.
 IExCor=    0 DFT=F Ex=HF Corr=None ExCW=0 ScaHFX=  1.000000
 ScaDFX=  1.000000  1.000000  1.000000  1.000000 ScalE2=  1.000000  1.000000
 IRadAn=      5 IRanWt=     -1 IRanGd=            0 ICorTp=0 IEmpDi=  4
 NAtoms=   15 NActive=   15 NUniq=   15 SFac= 1.00D+00 NAtFMM=   60 NAOKFM=F Big=F
 Integral buffers will be    131072 words long.
 Raffenetti 1 integral format.
 Two-electron integral symmetry is turned off.
 Background charge distribution read from rwf.
 PtFMM for NChg=        96 BoxLen=    40.00 Levels= 1 LMax=20 SMax=    22.2 ICnFMM=     1:
 Self energy of the charges =       -13.1599655814 a.u.
 MM   energy of the charges =         0.0000000000 a.u.
 Nuclei-charges interaction =        -1.7931801443 a.u.
 Nuclear repulsion after external point charges =      176.5361821573 Hartrees.
 Leave Link  301 at Fri May 15 22:35:08 2020, MaxMem=   134217728 cpu:               0.2 elap:               0.1
 (Enter /home/soft/g16/l302.exe)
 NPDir=0 NMtPBC=     1 NCelOv=     1 NCel=       1 NClECP=     1 NCelD=      1
         NCelK=      1 NCelE2=     1 NClLst=     1 CellRange=     0.0.
 One-electron integrals computed using PRISM.
 NBasis=   120 RedAO= T EigKep=  3.20D-02  NBF=   120
 NBsUse=   120 1.00D-06 EigRej= -1.00D+00 NBFU=   120
 Leave Link  302 at Fri May 15 22:35:08 2020, MaxMem=   134217728 cpu:               0.4 elap:               0.1
 (Enter /home/soft/g16/l303.exe)
 DipDrv:  MaxL=1.
 Leave Link  303 at Fri May 15 22:35:08 2020, MaxMem=   134217728 cpu:               0.1 elap:               0.0
 (Enter /home/soft/g16/l401.exe)
 ExpMin= 1.61D-01 ExpMax= 5.48D+03 ExpMxC= 8.25D+02 IAcc=3 IRadAn=         5 AccDes= 0.00D+00
 Harris functional with IExCor=  205 and IRadAn=       5 diagonalized for initial guess.
 HarFok:  IExCor=  205 AccDes= 0.00D+00 IRadAn=         5 IDoV= 1 UseB2=F ITyADJ=14
 ICtDFT=  3500011 ScaDFX=  1.000000  1.000000  1.000000  1.000000
 FoFCou: FMM=F IPFlag=           0 FMFlag=      100000 FMFlg1=           0
         NFxFlg=           0 DoJE=T BraDBF=F KetDBF=T FulRan=T
         wScrn=  0.000000 ICntrl=       500 IOpCl=  0 I1Cent=   200000004 NGrid=           0
         NMat0=    1 NMatS0=      1 NMatT0=    0 NMatD0=    1 NMtDS0=    0 NMtDT0=    0
 Symmetry not used in FoFCou.
 Harris En= -393.806004565981    
 JPrj=0 DoOrth=F DoCkMO=F.
 Leave Link  401 at Fri May 15 22:35:09 2020, MaxMem=   134217728 cpu:               2.3 elap:               0.6
 (Enter /home/soft/g16/l502.exe)
 Keep R1 ints in memory in canonical form, NReq=27358154.
 FoFCou: FMM=F IPFlag=           0 FMFlag=           0 FMFlg1=           0
         NFxFlg=           0 DoJE=F BraDBF=F KetDBF=F FulRan=T
         wScrn=  0.000000 ICntrl=       600 IOpCl=  0 I1Cent=           0 NGrid=           0
         NMat0=    1 NMatS0=   7260 NMatT0=    0 NMatD0=    1 NMtDS0=    0 NMtDT0=    0
 Symmetry not used in FoFCou.
 Two-electron integral symmetry not used.
 Closed shell SCF:
 Using DIIS extrapolation, IDIIS=  1040.
 NGot=   134217728 LenX=   107827096 LenY=   107811030
 Requested convergence on RMS density matrix=1.00D-08 within 128 cycles.
 Requested convergence on MAX density matrix=1.00D-06.
 Requested convergence on             energy=1.00D-06.
 No special actions if energy rises.

 Cycle   1  Pass 1  IDiag  1:
 E= -392.960654832874    
 DIIS: error= 5.07D-02 at cycle   1 NSaved=   1.
 NSaved= 1 IEnMin= 1 EnMin= -392.960654832874     IErMin= 1 ErrMin= 5.07D-02
 ErrMax= 5.07D-02  0.00D+00 EMaxC= 1.00D-01 BMatC= 5.89D-01 BMatP= 5.89D-01
 IDIUse=3 WtCom= 4.93D-01 WtEn= 5.07D-01
 Coeff-Com:  0.100D+01
 Coeff-En:   0.100D+01
 Coeff:      0.100D+01
 Gap=     0.622 Goal=   None    Shift=    0.000
 GapD=    0.622 DampG=2.000 DampE=0.500 DampFc=1.0000 IDamp=-1.
 RMSDP=5.23D-03 MaxDP=1.21D-01              OVMax= 1.22D-01

 Cycle   2  Pass 1  IDiag  1:
 E= -393.231080383251     Delta-E=       -0.270425550377 Rises=F Damp=F
 DIIS: error= 2.63D-02 at cycle   2 NSaved=   2.
 NSaved= 2 IEnMin= 2 EnMin= -393.231080383251     IErMin= 2 ErrMin= 2.63D-02
 ErrMax= 2.63D-02  0.00D+00 EMaxC= 1.00D-01 BMatC= 1.80D-01 BMatP= 5.89D-01
 IDIUse=3 WtCom= 7.37D-01 WtEn= 2.63D-01
 Coeff-Com:  0.344D+00 0.656D+00
 Coeff-En:   0.825D-01 0.917D+00
 Coeff:      0.275D+00 0.725D+00
 Gap=     0.624 Goal=   None    Shift=    0.000
 RMSDP=2.35D-03 MaxDP=5.12D-02 DE=-2.70D-01 OVMax= 4.50D-02

 Cycle   3  Pass 1  IDiag  1:
 E= -393.351259872946     Delta-E=       -0.120179489695 Rises=F Damp=F
 DIIS: error= 4.96D-03 at cycle   3 NSaved=   3.
 NSaved= 3 IEnMin= 3 EnMin= -393.351259872946     IErMin= 3 ErrMin= 4.96D-03
 ErrMax= 4.96D-03  0.00D+00 EMaxC= 1.00D-01 BMatC= 3.85D-03 BMatP= 1.80D-01
 IDIUse=3 WtCom= 9.50D-01 WtEn= 4.96D-02
 Coeff-Com: -0.321D-01 0.817D-01 0.950D+00
 Coeff-En:   0.000D+00 0.000D+00 0.100D+01
 Coeff:     -0.305D-01 0.776D-01 0.953D+00
 Gap=     0.614 Goal=   None    Shift=    0.000
 RMSDP=3.06D-04 MaxDP=7.56D-03 DE=-1.20D-01 OVMax= 8.48D-03

 Cycle   4  Pass 1  IDiag  1:
 E= -393.354305712889     Delta-E=       -0.003045839943 Rises=F Damp=F
 DIIS: error= 4.66D-04 at cycle   4 NSaved=   4.
 NSaved= 4 IEnMin= 4 EnMin= -393.354305712889     IErMin= 4 ErrMin= 4.66D-04
 ErrMax= 4.66D-04  0.00D+00 EMaxC= 1.00D-01 BMatC= 3.60D-05 BMatP= 3.85D-03
 IDIUse=3 WtCom= 9.95D-01 WtEn= 4.66D-03
 Coeff-Com:  0.642D-02-0.392D-01-0.293D+00 0.133D+01
 Coeff-En:   0.000D+00 0.000D+00 0.000D+00 0.100D+01
 Coeff:      0.639D-02-0.390D-01-0.291D+00 0.132D+01
 Gap=     0.616 Goal=   None    Shift=    0.000
 RMSDP=7.50D-05 MaxDP=1.23D-03 DE=-3.05D-03 OVMax= 2.07D-03

 Cycle   5  Pass 1  IDiag  1:
 E= -393.354370920329     Delta-E=       -0.000065207441 Rises=F Damp=F
 DIIS: error= 1.24D-04 at cycle   5 NSaved=   5.
 NSaved= 5 IEnMin= 5 EnMin= -393.354370920329     IErMin= 5 ErrMin= 1.24D-04
 ErrMax= 1.24D-04  0.00D+00 EMaxC= 1.00D-01 BMatC= 1.85D-06 BMatP= 3.60D-05
 IDIUse=3 WtCom= 9.99D-01 WtEn= 1.24D-03
 Coeff-Com:  0.217D-02-0.942D-02-0.786D-01 0.192D+00 0.894D+00
 Coeff-En:   0.000D+00 0.000D+00 0.000D+00 0.000D+00 0.100D+01
 Coeff:      0.216D-02-0.941D-02-0.785D-01 0.191D+00 0.894D+00
 Gap=     0.617 Goal=   None    Shift=    0.000
 RMSDP=1.43D-05 MaxDP=2.99D-04 DE=-6.52D-05 OVMax= 4.51D-04

 Cycle   6  Pass 1  IDiag  1:
 E= -393.354373536858     Delta-E=       -0.000002616529 Rises=F Damp=F
 DIIS: error= 4.51D-05 at cycle   6 NSaved=   6.
 NSaved= 6 IEnMin= 6 EnMin= -393.354373536858     IErMin= 6 ErrMin= 4.51D-05
 ErrMax= 4.51D-05  0.00D+00 EMaxC= 1.00D-01 BMatC= 2.24D-07 BMatP= 1.85D-06
 IDIUse=1 WtCom= 1.00D+00 WtEn= 0.00D+00
 Coeff-Com: -0.334D-03 0.270D-02 0.201D-01-0.122D+00 0.141D+00 0.959D+00
 Coeff:     -0.334D-03 0.270D-02 0.201D-01-0.122D+00 0.141D+00 0.959D+00
 Gap=     0.617 Goal=   None    Shift=    0.000
 RMSDP=5.71D-06 MaxDP=1.08D-04 DE=-2.62D-06 OVMax= 1.62D-04

 Cycle   7  Pass 1  IDiag  1:
 E= -393.354373867568     Delta-E=       -0.000000330709 Rises=F Damp=F
 DIIS: error= 6.30D-06 at cycle   7 NSaved=   7.
 NSaved= 7 IEnMin= 7 EnMin= -393.354373867568     IErMin= 7 ErrMin= 6.30D-06
 ErrMax= 6.30D-06  0.00D+00 EMaxC= 1.00D-01 BMatC= 6.96D-09 BMatP= 2.24D-07
 IDIUse=1 WtCom= 1.00D+00 WtEn= 0.00D+00
 Coeff-Com: -0.962D-04 0.328D-03 0.305D-02-0.204D-02-0.661D-01-0.769D-01
 Coeff-Com:  0.114D+01
 Coeff:     -0.962D-04 0.328D-03 0.305D-02-0.204D-02-0.661D-01-0.769D-01
 Coeff:      0.114D+01
 Gap=     0.617 Goal=   None    Shift=    0.000
 RMSDP=1.40D-06 MaxDP=2.51D-05 DE=-3.31D-07 OVMax= 4.30D-05

 Cycle   8  Pass 1  IDiag  1:
 E= -393.354373883368     Delta-E=       -0.000000015800 Rises=F Damp=F
 DIIS: error= 1.48D-06 at cycle   8 NSaved=   8.
 NSaved= 8 IEnMin= 8 EnMin= -393.354373883368     IErMin= 8 ErrMin= 1.48D-06
 ErrMax= 1.48D-06  0.00D+00 EMaxC= 1.00D-01 BMatC= 3.78D-10 BMatP= 6.96D-09
 IDIUse=1 WtCom= 1.00D+00 WtEn= 0.00D+00
 Coeff-Com:  0.411D-04-0.212D-03-0.178D-02 0.601D-02 0.147D-01-0.146D-01
 Coeff-Com: -0.338D+00 0.133D+01
 Coeff:      0.411D-04-0.212D-03-0.178D-02 0.601D-02 0.147D-01-0.146D-01
 Coeff:     -0.338D+00 0.133D+01
 Gap=     0.617 Goal=   None    Shift=    0.000
 RMSDP=2.87D-07 MaxDP=5.85D-06 DE=-1.58D-08 OVMax= 8.94D-06

 Cycle   9  Pass 1  IDiag  1:
 E= -393.354373884261     Delta-E=       -0.000000000893 Rises=F Damp=F
 DIIS: error= 4.06D-07 at cycle   9 NSaved=   9.
 NSaved= 9 IEnMin= 9 EnMin= -393.354373884261     IErMin= 9 ErrMin= 4.06D-07
 ErrMax= 4.06D-07  0.00D+00 EMaxC= 1.00D-01 BMatC= 2.82D-11 BMatP= 3.78D-10
 IDIUse=1 WtCom= 1.00D+00 WtEn= 0.00D+00
 Coeff-Com:  0.115D-04-0.515D-04-0.442D-03 0.103D-02 0.607D-02 0.205D-02
 Coeff-Com: -0.116D+00 0.226D+00 0.882D+00
 Coeff:      0.115D-04-0.515D-04-0.442D-03 0.103D-02 0.607D-02 0.205D-02
 Coeff:     -0.116D+00 0.226D+00 0.882D+00
 Gap=     0.617 Goal=   None    Shift=    0.000
 RMSDP=5.32D-08 MaxDP=1.31D-06 DE=-8.93D-10 OVMax= 1.56D-06

 Cycle  10  Pass 1  IDiag  1:
 E= -393.354373884296     Delta-E=       -0.000000000035 Rises=F Damp=F
 DIIS: error= 1.10D-07 at cycle  10 NSaved=  10.
 NSaved=10 IEnMin=10 EnMin= -393.354373884296     IErMin=10 ErrMin= 1.10D-07
 ErrMax= 1.10D-07  0.00D+00 EMaxC= 1.00D-01 BMatC= 2.98D-12 BMatP= 2.82D-11
 IDIUse=1 WtCom= 1.00D+00 WtEn= 0.00D+00
 Coeff-Com: -0.397D-05 0.218D-04 0.184D-03-0.702D-03-0.110D-02 0.231D-02
 Coeff-Com:  0.290D-01-0.142D+00 0.905D-01 0.102D+01
 Coeff:     -0.397D-05 0.218D-04 0.184D-03-0.702D-03-0.110D-02 0.231D-02
 Coeff:      0.290D-01-0.142D+00 0.905D-01 0.102D+01
 Gap=     0.617 Goal=   None    Shift=    0.000
 RMSDP=2.26D-08 MaxDP=5.17D-07 DE=-3.49D-11 OVMax= 6.72D-07

 Cycle  11  Pass 1  IDiag  1:
 E= -393.354373884306     Delta-E=       -0.000000000010 Rises=F Damp=F
 DIIS: error= 2.15D-08 at cycle  11 NSaved=  11.
 NSaved=11 IEnMin=11 EnMin= -393.354373884306     IErMin=11 ErrMin= 2.15D-08
 ErrMax= 2.15D-08  0.00D+00 EMaxC= 1.00D-01 BMatC= 1.23D-13 BMatP= 2.98D-12
 IDIUse=1 WtCom= 1.00D+00 WtEn= 0.00D+00
 Coeff-Com: -0.208D-06 0.532D-06 0.492D-05 0.189D-04-0.228D-03-0.427D-03
 Coeff-Com:  0.342D-02 0.379D-02-0.661D-01-0.136D+00 0.120D+01
 Coeff:     -0.208D-06 0.532D-06 0.492D-05 0.189D-04-0.228D-03-0.427D-03
 Coeff:      0.342D-02 0.379D-02-0.661D-01-0.136D+00 0.120D+01
 Gap=     0.617 Goal=   None    Shift=    0.000
 RMSDP=7.28D-09 MaxDP=1.73D-07 DE=-1.03D-11 OVMax= 2.49D-07

 SCF Done:  E(RHF) =  -393.354373884     A.U. after   11 cycles
            NFock= 11  Conv=0.73D-08     -V/T= 2.0365
 KE= 3.795078084964D+02 PE=-1.284935682271D+03 EE= 3.355373177329D+02
 Leave Link  502 at Fri May 15 22:35:10 2020, MaxMem=   134217728 cpu:               2.5 elap:               1.1
 (Enter /home/soft/g16/l601.exe)
 Copying SCF densities to generalized density rwf, IOpCl= 0 IROHF=0.

 **********************************************************************

            Population analysis using the SCF density.

 **********************************************************************

 Alpha  occ. eigenvalues --  -20.54309 -20.53057 -20.52694 -20.48588 -20.46199
 Alpha  occ. eigenvalues --   -1.32554  -1.31347  -1.31037  -1.26922  -1.24570
 Alpha  occ. eigenvalues --   -0.69213  -0.67348  -0.67201  -0.63560  -0.61233
 Alpha  occ. eigenvalues --   -0.55822  -0.54759  -0.54574  -0.49907  -0.48274
 Alpha  occ. eigenvalues --   -0.47557  -0.47152  -0.46948  -0.42745  -0.40090
 Alpha virt. eigenvalues --    0.21617   0.26688   0.29133   0.31045   0.33739
 Alpha virt. eigenvalues --    0.36423   0.39999   0.41952   0.43721   0.45191
 Alpha virt. eigenvalues --    1.01782   1.02087   1.05053   1.06054   1.09420
 Alpha virt. eigenvalues --    1.11575   1.12919   1.13812   1.14936   1.15505
 Alpha virt. eigenvalues --    1.18869   1.19665   1.20297   1.23034   1.23665
 Alpha virt. eigenvalues --    1.26757   1.29490   1.30830   1.32539   1.37105
 Alpha virt. eigenvalues --    1.37294   1.38832   1.42134   1.44354   1.48821
 Alpha virt. eigenvalues --    1.63226   1.64273   1.65438   1.74455   1.80904
 Alpha virt. eigenvalues --    1.83759   1.84474   1.85026   1.85975   1.87504
 Alpha virt. eigenvalues --    1.87711   1.90457   1.91197   1.91478   1.94249
 Alpha virt. eigenvalues --    1.96949   1.98947   1.99994   2.02503   2.04384
 Alpha virt. eigenvalues --    2.59300   2.60518   2.61777   2.62417   2.62637
 Alpha virt. eigenvalues --    2.63037   2.65802   2.68816   2.69488   2.70348
 Alpha virt. eigenvalues --    2.83714   2.84856   2.86119   2.88825   2.93894
 Alpha virt. eigenvalues --    2.99780   3.00380   3.01706   3.02160   3.03319
 Alpha virt. eigenvalues --    3.04316   3.05083   3.06620   3.08575   3.09678
 Alpha virt. eigenvalues --    3.40557   3.42193   3.42473   3.46264   3.48993
 Alpha virt. eigenvalues --    3.78335   3.79664   3.82379   3.85028   3.89097
 Alpha virt. eigenvalues --    3.96180   3.98062   4.00396   4.03752   4.07909
          Condensed to atoms (all electrons):
               1          2          3          4          5          6
     1  O    8.139007  -0.000075  -0.000452  -0.001532  -0.003081   0.310491
     2  O   -0.000075   8.158866  -0.002487  -0.000001  -0.000000  -0.000017
     3  O   -0.000452  -0.002487   8.096875  -0.004036  -0.000361   0.000185
     4  O   -0.001532  -0.000001  -0.004036   8.053156  -0.000015   0.009043
     5  O   -0.003081  -0.000000  -0.000361  -0.000015   8.094378   0.000182
     6  H    0.310491  -0.000017   0.000185   0.009043   0.000182   0.305202
     7  H    0.311276   0.001456   0.000703  -0.000019   0.000142  -0.019895
     8  H    0.000002   0.312485   0.001679  -0.000000  -0.000000   0.000000
     9  H    0.000012   0.315165   0.000243  -0.000000   0.000000   0.000000
    10  H    0.000158   0.006204   0.306115   0.001684   0.000061   0.000097
    11  H    0.002313   0.000183   0.313163   0.007517   0.002809   0.000042
    12  H    0.000980   0.000000   0.000300   0.303058   0.000036  -0.001160
    13  H    0.000045  -0.000000   0.000272   0.311469  -0.000000  -0.000159
    14  H    0.000048   0.000000   0.000076   0.000000   0.308161   0.000001
    15  H    0.013931  -0.000001   0.000486   0.000008   0.307611  -0.000811
               7          8          9         10         11         12
     1  O    0.311276   0.000002   0.000012   0.000158   0.002313   0.000980
     2  O    0.001456   0.312485   0.315165   0.006204   0.000183   0.000000
     3  O    0.000703   0.001679   0.000243   0.306115   0.313163   0.000300
     4  O   -0.000019  -0.000000  -0.000000   0.001684   0.007517   0.303058
     5  O    0.000142  -0.000000   0.000000   0.000061   0.002809   0.000036
     6  H   -0.019895   0.000000   0.000000   0.000097   0.000042  -0.001160
     7  H    0.322630  -0.000036  -0.000047   0.000163   0.000023  -0.000025
     8  H   -0.000036   0.298144  -0.018751  -0.002143  -0.000041  -0.000000
     9  H   -0.000047  -0.018751   0.312768  -0.000165  -0.000005  -0.000000
    10  H    0.000163  -0.002143  -0.000165   0.388500  -0.028336  -0.000022
    11  H    0.000023  -0.000041  -0.000005  -0.028336   0.336741  -0.000809
    12  H   -0.000025  -0.000000  -0.000000  -0.000022  -0.000809   0.377831
    13  H    0.000001  -0.000000   0.000000  -0.000009  -0.000069  -0.022652
    14  H    0.000001   0.000000  -0.000000  -0.000003  -0.000077  -0.000001
    15  H   -0.000564   0.000000   0.000000  -0.000029  -0.000471   0.000025
              13         14         15
     1  O    0.000045   0.000048   0.013931
     2  O   -0.000000   0.000000  -0.000001
     3  O    0.000272   0.000076   0.000486
     4  O    0.311469   0.000000   0.000008
     5  O   -0.000000   0.308161   0.307611
     6  H   -0.000159   0.000001  -0.000811
     7  H    0.000001   0.000001  -0.000564
     8  H   -0.000000   0.000000   0.000000
     9  H    0.000000  -0.000000   0.000000
    10  H   -0.000009  -0.000003  -0.000029
    11  H   -0.000069  -0.000077  -0.000471
    12  H   -0.022652  -0.000001   0.000025
    13  H    0.357017   0.000000  -0.000000
    14  H    0.000000   0.385458  -0.024453
    15  H   -0.000000  -0.024453   0.338839
 Mulliken charges:
               1
     1  O   -0.773123
     2  O   -0.791778
     3  O   -0.712761
     4  O   -0.680332
     5  O   -0.709922
     6  H    0.396796
     7  H    0.384192
     8  H    0.408661
     9  H    0.390779
    10  H    0.327727
    11  H    0.367019
    12  H    0.342438
    13  H    0.354086
    14  H    0.330790
    15  H    0.365429
 Sum of Mulliken charges =  -0.00000
 Mulliken charges with hydrogens summed into heavy atoms:
               1
     1  O    0.007865
     2  O    0.007661
     3  O   -0.018015
     4  O    0.016192
     5  O   -0.013703
 Electronic spatial extent (au):  <R**2>=          56575.6620
 Charge=              0.0000 electrons
 Dipole moment (field-independent basis, Debye):
    X=              3.6411    Y=             -1.0144    Z=             -1.2158  Tot=              3.9704
 Quadrupole moment (field-independent basis, Debye-Ang):
   XX=              2.3775   YY=             -5.8092   ZZ=             23.5523
   XY=            -43.2408   XZ=            -59.1064   YZ=             27.3490
 Traceless Quadrupole moment (field-independent basis, Debye-Ang):
   XX=             -4.3294   YY=            -12.5161   ZZ=             16.8454
   XY=            -43.2408   XZ=            -59.1064   YZ=             27.3490
 Octapole moment (field-independent basis, Debye-Ang**2):
  XXX=           -274.2824  YYY=            566.2157  ZZZ=           -305.8381  XYY=            348.9301
  XXY=            -55.7866  XXZ=           -120.8983  XZZ=            890.8418  YZZ=           -476.6200
  YYZ=            -84.8480  XYZ=            698.1414
 Hexadecapole moment (field-independent basis, Debye-Ang**3):
 XXXX=          -4327.2816 YYYY=         -15662.6981 ZZZZ=           2514.1704 XXXY=           2635.5451
 XXXZ=           2951.8007 YYYX=           -632.2843 YYYZ=          -5464.6894 ZZZX=         -12819.6809
 ZZZY=           7016.7315 XXYY=           -127.9270 XXZZ=           2545.5279 YYZZ=           2640.1650
 XXYZ=           1769.2014 YYXZ=          -6104.5224 ZZXY=         -10630.7968
 N-N= 1.765361821573D+02 E-N=-1.284935681787D+03  KE= 3.795078084964D+02
 No NMR shielding tensors so no spin-rotation constants.
 Leave Link  601 at Fri May 15 22:35:10 2020, MaxMem=   134217728 cpu:               0.4 elap:               0.1
 (Enter /home/soft/g16/l607.exe)
 ******************************Gaussian NBO Version 3.1******************************
             N A T U R A L   A T O M I C   O R B I T A L   A N D
          N A T U R A L   B O N D   O R B I T A L   A N A L Y S I S
 ******************************Gaussian NBO Version 3.1******************************
       /RESON  / : Allow strongly delocalized NBO set

 Analyzing the SCF density

 Job title: Atom number=15                                                  

 Storage needed:     44010 in NPA ( 134216513 available)
 GSVD:  LWork=        6720 too small for GESVD, short by        8100 words or        8100 for optimal perf.


 NATURAL POPULATIONS:  Natural atomic orbital occupancies 
                                                          
   NAO  Atom  No  lang   Type(AO)    Occupancy      Energy
 ----------------------------------------------------------
     1    O    1  S      Cor( 1S)     1.99986     -20.36613
     2    O    1  S      Val( 2S)     1.75663      -1.13653
     3    O    1  S      Ryd( 3S)     0.00090       1.79848
     4    O    1  px     Val( 2p)     1.98263      -0.46630
     5    O    1  px     Ryd( 3p)     0.00082       1.23317
     6    O    1  py     Val( 2p)     1.74431      -0.39509
     7    O    1  py     Ryd( 3p)     0.00034       1.29859
     8    O    1  pz     Val( 2p)     1.55077      -0.32482
     9    O    1  pz     Ryd( 3p)     0.00168       1.34100
    10    O    1  dxy    Ryd( 3d)     0.00146       2.28999
    11    O    1  dxz    Ryd( 3d)     0.00011       2.34238
    12    O    1  dyz    Ryd( 3d)     0.00172       3.04651
    13    O    1  dx2y2  Ryd( 3d)     0.00184       2.51805
    14    O    1  dz2    Ryd( 3d)     0.00050       2.75288

    15    O    2  S      Cor( 1S)     1.99987     -20.36352
    16    O    2  S      Val( 2S)     1.76020      -1.13612
    17    O    2  S      Ryd( 3S)     0.00093       1.72021
    18    O    2  px     Val( 2p)     1.58736      -0.33392
    19    O    2  px     Ryd( 3p)     0.00164       1.32095
    20    O    2  py     Val( 2p)     1.94533      -0.45398
    21    O    2  py     Ryd( 3p)     0.00088       1.20388
    22    O    2  pz     Val( 2p)     1.75577      -0.39553
    23    O    2  pz     Ryd( 3p)     0.00043       1.30559
    24    O    2  dxy    Ryd( 3d)     0.00027       2.37511
    25    O    2  dxz    Ryd( 3d)     0.00140       2.73913
    26    O    2  dyz    Ryd( 3d)     0.00150       2.46989
    27    O    2  dx2y2  Ryd( 3d)     0.00072       2.73511
    28    O    2  dz2    Ryd( 3d)     0.00173       2.62739

    29    O    3  S      Cor( 1S)     1.99985     -20.29322
    30    O    3  S      Val( 2S)     1.74962      -1.05939
    31    O    3  S      Ryd( 3S)     0.00094       1.90192
    32    O    3  px     Val( 2p)     1.85466      -0.36009
    33    O    3  px     Ryd( 3p)     0.00049       1.28336
    34    O    3  py     Val( 2p)     1.59203      -0.26254
    35    O    3  py     Ryd( 3p)     0.00170       1.41049
    36    O    3  pz     Val( 2p)     1.78279      -0.33248
    37    O    3  pz     Ryd( 3p)     0.00106       1.33374
    38    O    3  dxy    Ryd( 3d)     0.00132       2.85727
    39    O    3  dxz    Ryd( 3d)     0.00185       2.60258
    40    O    3  dyz    Ryd( 3d)     0.00078       2.70014
    41    O    3  dx2y2  Ryd( 3d)     0.00109       2.52244
    42    O    3  dz2    Ryd( 3d)     0.00133       2.63575

    43    O    4  S      Cor( 1S)     1.99986     -20.38126
    44    O    4  S      Val( 2S)     1.75538      -1.13762
    45    O    4  S      Ryd( 3S)     0.00129       1.69161
    46    O    4  px     Val( 2p)     1.87014      -0.43819
    47    O    4  px     Ryd( 3p)     0.00055       1.24706
    48    O    4  py     Val( 2p)     1.56320      -0.33159
    49    O    4  py     Ryd( 3p)     0.00192       1.32385
    50    O    4  pz     Val( 2p)     1.78205      -0.41359
    51    O    4  pz     Ryd( 3p)     0.00071       1.35027
    52    O    4  dxy    Ryd( 3d)     0.00089       2.72379
    53    O    4  dxz    Ryd( 3d)     0.00186       2.39149
    54    O    4  dyz    Ryd( 3d)     0.00126       2.86650
    55    O    4  dx2y2  Ryd( 3d)     0.00063       2.45639
    56    O    4  dz2    Ryd( 3d)     0.00164       2.47909

    57    O    5  S      Cor( 1S)     1.99985     -20.32047
    58    O    5  S      Val( 2S)     1.75401      -1.08344
    59    O    5  S      Ryd( 3S)     0.00116       1.83339
    60    O    5  px     Val( 2p)     1.65423      -0.31677
    61    O    5  px     Ryd( 3p)     0.00104       1.32712
    62    O    5  py     Val( 2p)     1.64758      -0.30660
    63    O    5  py     Ryd( 3p)     0.00131       1.37242
    64    O    5  pz     Val( 2p)     1.92451      -0.39954
    65    O    5  pz     Ryd( 3p)     0.00075       1.25910
    66    O    5  dxy    Ryd( 3d)     0.00116       2.54224
    67    O    5  dxz    Ryd( 3d)     0.00111       2.35914
    68    O    5  dyz    Ryd( 3d)     0.00116       2.62662
    69    O    5  dx2y2  Ryd( 3d)     0.00182       3.13072
    70    O    5  dz2    Ryd( 3d)     0.00122       2.52230

    71    H    6  S      Val( 1S)     0.46738       0.42027
    72    H    6  S      Ryd( 2S)     0.00115       0.86342
    73    H    6  px     Ryd( 2p)     0.00076       2.66255
    74    H    6  py     Ryd( 2p)     0.00074       2.81600
    75    H    6  pz     Ryd( 2p)     0.00137       3.36812

    76    H    7  S      Val( 1S)     0.47760       0.40402
    77    H    7  S      Ryd( 2S)     0.00094       0.79135
    78    H    7  px     Ryd( 2p)     0.00084       2.64613
    79    H    7  py     Ryd( 2p)     0.00146       3.17367
    80    H    7  pz     Ryd( 2p)     0.00081       2.97684

    81    H    8  S      Val( 1S)     0.45930       0.43644
    82    H    8  S      Ryd( 2S)     0.00084       0.81079
    83    H    8  px     Ryd( 2p)     0.00172       3.42903
    84    H    8  py     Ryd( 2p)     0.00069       2.65195
    85    H    8  pz     Ryd( 2p)     0.00061       2.74046

    86    H    9  S      Val( 1S)     0.47241       0.41392
    87    H    9  S      Ryd( 2S)     0.00064       0.76770
    88    H    9  px     Ryd( 2p)     0.00066       2.84563
    89    H    9  py     Ryd( 2p)     0.00098       2.75029
    90    H    9  pz     Ryd( 2p)     0.00139       3.19385

    91    H   10  S      Val( 1S)     0.51660       0.40882
    92    H   10  S      Ryd( 2S)     0.00144       0.89399
    93    H   10  px     Ryd( 2p)     0.00112       2.90652
    94    H   10  py     Ryd( 2p)     0.00130       3.30902
    95    H   10  pz     Ryd( 2p)     0.00078       2.73318

    96    H   11  S      Val( 1S)     0.49256       0.44961
    97    H   11  S      Ryd( 2S)     0.00117       0.98103
    98    H   11  px     Ryd( 2p)     0.00095       2.85459
    99    H   11  py     Ryd( 2p)     0.00076       2.97502
   100    H   11  pz     Ryd( 2p)     0.00136       3.19733

   101    H   12  S      Val( 1S)     0.50684       0.34824
   102    H   12  S      Ryd( 2S)     0.00127       0.80995
   103    H   12  px     Ryd( 2p)     0.00120       2.87111
   104    H   12  py     Ryd( 2p)     0.00123       3.15256
   105    H   12  pz     Ryd( 2p)     0.00078       2.72897

   106    H   13  S      Val( 1S)     0.49607       0.36274
   107    H   13  S      Ryd( 2S)     0.00103       0.73930
   108    H   13  px     Ryd( 2p)     0.00084       2.66129
   109    H   13  py     Ryd( 2p)     0.00107       3.01365
   110    H   13  pz     Ryd( 2p)     0.00126       3.05146

   111    H   14  S      Val( 1S)     0.51818       0.38447
   112    H   14  S      Ryd( 2S)     0.00108       0.79781
   113    H   14  px     Ryd( 2p)     0.00062       2.72147
   114    H   14  py     Ryd( 2p)     0.00149       3.32012
   115    H   14  pz     Ryd( 2p)     0.00111       2.79919

   116    H   15  S      Val( 1S)     0.48795       0.43104
   117    H   15  S      Ryd( 2S)     0.00112       0.89145
   118    H   15  px     Ryd( 2p)     0.00162       3.48141
   119    H   15  py     Ryd( 2p)     0.00071       2.77747
   120    H   15  pz     Ryd( 2p)     0.00083       2.68465


 Summary of Natural Population Analysis:                  
                                                          
                                       Natural Population 
                Natural  -----------------------------------------------
    Atom  No    Charge         Core      Valence    Rydberg      Total
 -----------------------------------------------------------------------
      O    1   -1.04358      1.99986     7.03434    0.00938     9.04358
      O    2   -1.05804      1.99987     7.04866    0.00951     9.05804
      O    3   -0.98950      1.99985     6.97909    0.01055     8.98950
      O    4   -0.98139      1.99986     6.97077    0.01076     8.98139
      O    5   -0.99091      1.99985     6.98034    0.01072     8.99091
      H    6    0.52861      0.00000     0.46738    0.00402     0.47139
      H    7    0.51836      0.00000     0.47760    0.00404     0.48164
      H    8    0.53684      0.00000     0.45930    0.00386     0.46316
      H    9    0.52391      0.00000     0.47241    0.00368     0.47609
      H   10    0.47877      0.00000     0.51660    0.00464     0.52123
      H   11    0.50320      0.00000     0.49256    0.00424     0.49680
      H   12    0.48869      0.00000     0.50684    0.00447     0.51131
      H   13    0.49974      0.00000     0.49607    0.00420     0.50026
      H   14    0.47752      0.00000     0.51818    0.00430     0.52248
      H   15    0.50778      0.00000     0.48795    0.00427     0.49222
 =======================================================================
   * Total *   -0.00000      9.99929    39.90808    0.09263    50.00000

                                 Natural Population      
 --------------------------------------------------------
   Core                       9.99929 ( 99.9929% of  10)
   Valence                   39.90808 ( 99.7702% of  40)
   Natural Minimal Basis     49.90737 ( 99.8147% of  50)
   Natural Rydberg Basis      0.09263 (  0.1853% of  50)
 --------------------------------------------------------

    Atom  No          Natural Electron Configuration
 ----------------------------------------------------------------------------
      O    1      [core]2S( 1.76)2p( 5.28)3d( 0.01)
      O    2      [core]2S( 1.76)2p( 5.29)3d( 0.01)
      O    3      [core]2S( 1.75)2p( 5.23)3d( 0.01)
      O    4      [core]2S( 1.76)2p( 5.22)3d( 0.01)
      O    5      [core]2S( 1.75)2p( 5.23)3d( 0.01)
      H    6            1S( 0.47)
      H    7            1S( 0.48)
      H    8            1S( 0.46)
      H    9            1S( 0.47)
      H   10            1S( 0.52)
      H   11            1S( 0.49)
      H   12            1S( 0.51)
      H   13            1S( 0.50)
      H   14            1S( 0.52)
      H   15            1S( 0.49)


 NBO analysis skipped by request.
 Leave Link  607 at Fri May 15 22:35:10 2020, MaxMem=   134217728 cpu:               0.6 elap:               0.2
 (Enter /home/soft/g16/l9999.exe)

 Test job not archived.
 1\1\GINC-MASTER\SP\RHF\6-31G(d,p)\H10O5\LIWEI01\15-May-2020\0\\#p hf/6
 -31g** 5d 7f pop=npa charge nosymm\\Atom number=15\\0,1\O,0,7.250284,-
 9.859627,-13.103456\O,0,5.570392,-12.760041,-10.733807\O,0,4.039142,-1
 1.224262,-12.80441\O,0,5.339755,-11.212242,-15.474518\O,0,4.641258,-8.
 138278,-12.671145\H,0,7.12066,-10.221473,-13.980096\H,0,7.341484,-10.6
 26744,-12.538261\H,0,4.642708,-12.827827,-10.507888\H,0,5.983752,-12.4
 0517,-9.946767\H,0,4.524844,-12.047609,-12.755179\H,0,4.432119,-10.757
 539,-13.541956\H,0,5.880078,-10.458674,-15.712045\H,0,5.489557,-11.845
 7,-16.176318\H,0,4.597809,-7.272042,-12.266198\H,0,5.576498,-8.338407,
 -12.709967\\Version=ES64L-G16RevA.03\HF=-393.3543739\RMSD=7.279e-09\Di
 pole=1.4325058,-0.3990897,-0.4783186\Quadrupole=-3.2187866,-9.3053867,
 12.5241733,-32.1485056,-43.9441292,20.3332906\PG=C01 [X(H10O5)]\\@


 NATURE WILL TELL YOU A DIRECT LIE IF SHE CAN.

                                -- CHARLES DARWIN
 Job cpu time:       0 days  0 hours  0 minutes  7.6 seconds.
 Elapsed time:       0 days  0 hours  0 minutes  2.5 seconds.
 File lengths (MBytes):  RWF=     72 Int=      0 D2E=      0 Chk=      8 Scr=      8
 Normal termination of Gaussian 16 at Fri May 15 22:35:10 2020.
