 Entering Gaussian System, Link 0=g16
 Input=w32_4.gjf
 Output=w32_4.log
 Initial command:
 /home/soft/g16/l1.exe "/tmp/liwei01/gaussian/wsr/Gau-5070.inp" -scrdir="/tmp/liwei01/gaussian/wsr/"
 Entering Link 1 = /home/soft/g16/l1.exe PID=      5071.
  
 Copyright (c) 1988,1990,1992,1993,1995,1998,2003,2009,2016,
            Gaussian, Inc.  All Rights Reserved.
  
 This is part of the Gaussian(R) 16 program.  It is based on
 the Gaussian(R) 09 system (copyright 2009, Gaussian, Inc.),
 the Gaussian(R) 03 system (copyright 2003, Gaussian, Inc.),
 the Gaussian(R) 98 system (copyright 1998, Gaussian, Inc.),
 the Gaussian(R) 94 system (copyright 1995, Gaussian, Inc.),
 the Gaussian 92(TM) system (copyright 1992, Gaussian, Inc.),
 the Gaussian 90(TM) system (copyright 1990, Gaussian, Inc.),
 the Gaussian 88(TM) system (copyright 1988, Gaussian, Inc.),
 the Gaussian 86(TM) system (copyright 1986, Carnegie Mellon
 University), and the Gaussian 82(TM) system (copyright 1983,
 Carnegie Mellon University). Gaussian is a federally registered
 trademark of Gaussian, Inc.
  
 This software contains proprietary and confidential information,
 including trade secrets, belonging to Gaussian, Inc.
  
 This software is provided under written license and may be
 used, copied, transmitted, or stored only in accord with that
 written license.
  
 The following legend is applicable only to US Government
 contracts under FAR:
  
                    RESTRICTED RIGHTS LEGEND
  
 Use, reproduction and disclosure by the US Government is
 subject to restrictions as set forth in subparagraphs (a)
 and (c) of the Commercial Computer Software - Restricted
 Rights clause in FAR 52.227-19.
  
 Gaussian, Inc.
 340 Quinnipiac St., Bldg. 40, Wallingford CT 06492
  
  
 ---------------------------------------------------------------
 Warning -- This program may not be used in any manner that
 competes with the business of Gaussian, Inc. or will provide
 assistance to any competitor of Gaussian, Inc.  The licensee
 of this program is prohibited from giving any competitor of
 Gaussian, Inc. access to this program.  By using this program,
 the user acknowledges that Gaussian, Inc. is engaged in the
 business of creating and licensing software in the field of
 computational chemistry and represents and warrants to the
 licensee that it is not a competitor of Gaussian, Inc. and that
 it will not use this program in any manner prohibited above.
 ---------------------------------------------------------------
  

 Cite this work as:
 Gaussian 16, Revision A.03,
 M. J. Frisch, G. W. Trucks, H. B. Schlegel, G. E. Scuseria, 
 M. A. Robb, J. R. Cheeseman, G. Scalmani, V. Barone, 
 G. A. Petersson, H. Nakatsuji, X. Li, M. Caricato, A. V. Marenich, 
 J. Bloino, B. G. Janesko, R. Gomperts, B. Mennucci, H. P. Hratchian, 
 J. V. Ortiz, A. F. Izmaylov, J. L. Sonnenberg, D. Williams-Young, 
 F. Ding, F. Lipparini, F. Egidi, J. Goings, B. Peng, A. Petrone, 
 T. Henderson, D. Ranasinghe, V. G. Zakrzewski, J. Gao, N. Rega, 
 G. Zheng, W. Liang, M. Hada, M. Ehara, K. Toyota, R. Fukuda, 
 J. Hasegawa, M. Ishida, T. Nakajima, Y. Honda, O. Kitao, H. Nakai, 
 T. Vreven, K. Throssell, J. A. Montgomery, Jr., J. E. Peralta, 
 F. Ogliaro, M. J. Bearpark, J. J. Heyd, E. N. Brothers, K. N. Kudin, 
 V. N. Staroverov, T. A. Keith, R. Kobayashi, J. Normand, 
 K. Raghavachari, A. P. Rendell, J. C. Burant, S. S. Iyengar, 
 J. Tomasi, M. Cossi, J. M. Millam, M. Klene, C. Adamo, R. Cammi, 
 J. W. Ochterski, R. L. Martin, K. Morokuma, O. Farkas, 
 J. B. Foresman, and D. J. Fox, Gaussian, Inc., Wallingford CT, 2016.
 
 ******************************************
 Gaussian 16:  ES64L-G16RevA.03 25-Dec-2016
                15-May-2020 
 ******************************************
 %chk=w32_4.chk
 %nproc=4
 Will use up to    4 processors via shared memory.
 %mem=1gb
 -----------------------------------------
 #p hf/6-31g** 5d 7f pop=npa charge nosymm
 -----------------------------------------
 1/18=10,28=-2,38=1,125=101,172=1/1;
 2/12=2,15=1,17=6,18=5,40=1/2;
 3/5=1,6=6,7=101,8=11,11=9,25=1,30=1/1,2,3;
 4//1;
 5/5=2,38=5/2;
 6/7=2,8=2,9=2,10=2,28=1,40=-1/1,7;
 99/5=1,9=1/99;
 Leave Link    1 at Fri May 15 22:34:45 2020, MaxMem=   134217728 cpu:               0.3 elap:               0.1
 (Enter /home/soft/g16/l101.exe)
 --------------
 Atom number=24
 --------------
 Symbolic Z-matrix:
 Charge =  0 Multiplicity = 1
 o                     8.39232  -11.81294  -11.20048 
 o                     7.25028  -9.85963  -13.10346 
 o                     6.96619  -9.24779  -10.27431 
 o                     10.08491  -9.603    -13.69441 
 o                     8.45159  -10.63558  -15.68593 
 o                     4.03914  -11.22426  -12.80441 
 o                     5.33976  -11.21224  -15.47452 
 o                     4.64126  -8.13828  -12.67115 
 h                     8.17528  -12.53782  -10.61424 
 h                     9.25215  -11.5141  -10.90447 
 h                     7.12066  -10.22147  -13.9801 
 h                     7.34148  -10.62674  -12.53826 
 h                     6.97515  -9.84502  -11.02229 
 h                     7.68438  -8.63847  -10.4451 
 h                     9.83796  -9.87791  -14.5774 
 h                     9.26711  -9.62837  -13.19764 
 h                     8.12504  -10.40686  -16.55615 
 h                     9.26219  -11.11661  -15.85257 
 h                     4.52484  -12.04761  -12.75518 
 h                     4.43212  -10.75754  -13.54196 
 h                     5.88008  -10.45867  -15.71204 
 h                     5.48956  -11.8457  -16.17632 
 h                     4.59781  -7.27204  -12.2662 
 h                     5.5765   -8.33841  -12.70997 
 
 ITRead=  0  0  0  0  0  0  0  0  0  0  0  0  0  0  0  0  0  0  0  0
 ITRead=  0  0  0  0
 MicOpt= -1 -1 -1 -1 -1 -1 -1 -1 -1 -1 -1 -1 -1 -1 -1 -1 -1 -1 -1 -1
 MicOpt= -1 -1 -1 -1
 NAtoms=     24 NQM=       24 NQMF=       0 NMMI=      0 NMMIF=      0
                NMic=       0 NMicF=      0.
                    Isotopes and Nuclear Properties:
 (Nuclear quadrupole moments (NQMom) in fm**2, nuclear magnetic moments (NMagM)
  in nuclear magnetons)

  Atom         1           2           3           4           5           6           7           8           9          10
 IAtWgt=          16          16          16          16          16          16          16          16           1           1
 AtmWgt=  15.9949146  15.9949146  15.9949146  15.9949146  15.9949146  15.9949146  15.9949146  15.9949146   1.0078250   1.0078250
 NucSpn=           0           0           0           0           0           0           0           0           1           1
 AtZEff=  -0.0000000  -0.0000000  -0.0000000  -0.0000000  -0.0000000  -0.0000000  -0.0000000  -0.0000000  -0.0000000  -0.0000000
 NQMom=    0.0000000   0.0000000   0.0000000   0.0000000   0.0000000   0.0000000   0.0000000   0.0000000   0.0000000   0.0000000
 NMagM=    0.0000000   0.0000000   0.0000000   0.0000000   0.0000000   0.0000000   0.0000000   0.0000000   2.7928460   2.7928460
 AtZNuc=   8.0000000   8.0000000   8.0000000   8.0000000   8.0000000   8.0000000   8.0000000   8.0000000   1.0000000   1.0000000

  Atom        11          12          13          14          15          16          17          18          19          20
 IAtWgt=           1           1           1           1           1           1           1           1           1           1
 AtmWgt=   1.0078250   1.0078250   1.0078250   1.0078250   1.0078250   1.0078250   1.0078250   1.0078250   1.0078250   1.0078250
 NucSpn=           1           1           1           1           1           1           1           1           1           1
 AtZEff=  -0.0000000  -0.0000000  -0.0000000  -0.0000000  -0.0000000  -0.0000000  -0.0000000  -0.0000000  -0.0000000  -0.0000000
 NQMom=    0.0000000   0.0000000   0.0000000   0.0000000   0.0000000   0.0000000   0.0000000   0.0000000   0.0000000   0.0000000
 NMagM=    2.7928460   2.7928460   2.7928460   2.7928460   2.7928460   2.7928460   2.7928460   2.7928460   2.7928460   2.7928460
 AtZNuc=   1.0000000   1.0000000   1.0000000   1.0000000   1.0000000   1.0000000   1.0000000   1.0000000   1.0000000   1.0000000

  Atom        21          22          23          24
 IAtWgt=           1           1           1           1
 AtmWgt=   1.0078250   1.0078250   1.0078250   1.0078250
 NucSpn=           1           1           1           1
 AtZEff=  -0.0000000  -0.0000000  -0.0000000  -0.0000000
 NQMom=    0.0000000   0.0000000   0.0000000   0.0000000
 NMagM=    2.7928460   2.7928460   2.7928460   2.7928460
 AtZNuc=   1.0000000   1.0000000   1.0000000   1.0000000
 Background charge distribution read from input stream:
 Point Charges:
 XYZ=   10.7060  -10.8489  -10.0915 Q=   -1.0357 A=    0.0000 R=    0.0000 C=    0.0000
 XYZ=   11.5214  -11.3203   -9.9208 Q=    0.5206 A=    0.0000 R=    0.0000 C=    0.0000
 XYZ=   10.5678  -10.3169   -9.3078 Q=    0.5156 A=    0.0000 R=    0.0000 C=    0.0000
 XYZ=    8.6932  -14.0693   -9.5471 Q=   -1.0099 A=    0.0000 R=    0.0000 C=    0.0000
 XYZ=    8.2201  -13.7327   -8.7861 Q=    0.4999 A=    0.0000 R=    0.0000 C=    0.0000
 XYZ=    8.5528  -15.0157   -9.5178 Q=    0.5079 A=    0.0000 R=    0.0000 C=    0.0000
 XYZ=    5.5704  -12.7600  -10.7338 Q=   -1.0500 A=    0.0000 R=    0.0000 C=    0.0000
 XYZ=    4.6427  -12.8278  -10.5079 Q=    0.5214 A=    0.0000 R=    0.0000 C=    0.0000
 XYZ=    5.9838  -12.4052   -9.9468 Q=    0.5064 A=    0.0000 R=    0.0000 C=    0.0000
 XYZ=    6.9426  -11.8294   -8.3710 Q=   -1.0528 A=    0.0000 R=    0.0000 C=    0.0000
 XYZ=    7.4956  -12.0911   -7.6348 Q=    0.5210 A=    0.0000 R=    0.0000 C=    0.0000
 XYZ=    7.3075  -10.9928   -8.6597 Q=    0.5255 A=    0.0000 R=    0.0000 C=    0.0000
 XYZ=    9.7397  -14.5602  -13.0841 Q=   -1.0029 A=    0.0000 R=    0.0000 C=    0.0000
 XYZ=    9.4367  -13.9209  -12.4394 Q=    0.5215 A=    0.0000 R=    0.0000 C=    0.0000
 XYZ=   10.6527  -14.3230  -13.2466 Q=    0.4988 A=    0.0000 R=    0.0000 C=    0.0000
 XYZ=    9.4738   -7.9972  -10.9180 Q=   -0.9971 A=    0.0000 R=    0.0000 C=    0.0000
 XYZ=    9.9975   -8.7956  -10.8516 Q=    0.5301 A=    0.0000 R=    0.0000 C=    0.0000
 XYZ=    9.6234   -7.5424  -10.0892 Q=    0.4920 A=    0.0000 R=    0.0000 C=    0.0000
 XYZ=    5.5848  -15.5922  -11.4699 Q=   -1.0129 A=    0.0000 R=    0.0000 C=    0.0000
 XYZ=    4.6785  -15.3483  -11.6582 Q=    0.5050 A=    0.0000 R=    0.0000 C=    0.0000
 XYZ=    6.0031  -14.7735  -11.2032 Q=    0.5257 A=    0.0000 R=    0.0000 C=    0.0000
 XYZ=    8.8013  -12.4259   -6.4973 Q=   -0.9852 A=    0.0000 R=    0.0000 C=    0.0000
 XYZ=    9.0556  -11.7490   -5.8701 Q=    0.5006 A=    0.0000 R=    0.0000 C=    0.0000
 XYZ=    8.9395  -13.2499   -6.0303 Q=    0.5083 A=    0.0000 R=    0.0000 C=    0.0000
 XYZ=   10.5523   -9.0602   -7.7657 Q=   -0.9799 A=    0.0000 R=    0.0000 C=    0.0000
 XYZ=   10.0296   -9.4526   -7.0665 Q=    0.5003 A=    0.0000 R=    0.0000 C=    0.0000
 XYZ=   10.0576   -8.2839   -8.0284 Q=    0.4937 A=    0.0000 R=    0.0000 C=    0.0000
 XYZ=    8.4919  -14.1596  -15.7110 Q=   -0.9823 A=    0.0000 R=    0.0000 C=    0.0000
 XYZ=    8.8439  -15.0437  -15.8144 Q=    0.4799 A=    0.0000 R=    0.0000 C=    0.0000
 XYZ=    8.9183  -13.8221  -14.9233 Q=    0.4950 A=    0.0000 R=    0.0000 C=    0.0000
 XYZ=   10.6752  -11.9252  -15.8192 Q=   -0.9837 A=    0.0000 R=    0.0000 C=    0.0000
 XYZ=   11.1454  -12.2597  -15.0555 Q=    0.5055 A=    0.0000 R=    0.0000 C=    0.0000
 XYZ=   10.7694  -12.6123  -16.4789 Q=    0.5125 A=    0.0000 R=    0.0000 C=    0.0000
 XYZ=    7.7593  -16.5050  -13.2460 Q=   -1.0112 A=    0.0000 R=    0.0000 C=    0.0000
 XYZ=    7.3079  -16.2111  -12.4547 Q=    0.4926 A=    0.0000 R=    0.0000 C=    0.0000
 XYZ=    8.5373  -15.9498  -13.2987 Q=    0.4973 A=    0.0000 R=    0.0000 C=    0.0000
 XYZ=   13.4576  -11.7733   -9.7740 Q=   -0.9993 A=    0.0000 R=    0.0000 C=    0.0000
 XYZ=   13.9089  -10.9962  -10.1037 Q=    0.5128 A=    0.0000 R=    0.0000 C=    0.0000
 XYZ=   14.1508  -12.4236   -9.6612 Q=    0.5076 A=    0.0000 R=    0.0000 C=    0.0000
 XYZ=    5.5914  -15.5335   -8.7002 Q=   -1.0162 A=    0.0000 R=    0.0000 C=    0.0000
 XYZ=    6.3093  -16.0707   -8.3652 Q=    0.4831 A=    0.0000 R=    0.0000 C=    0.0000
 XYZ=    5.4763  -15.8239   -9.6050 Q=    0.5237 A=    0.0000 R=    0.0000 C=    0.0000
 XYZ=   12.9960  -14.7139  -11.2100 Q=   -0.9778 A=    0.0000 R=    0.0000 C=    0.0000
 XYZ=   12.2864  -15.1619  -10.7497 Q=    0.5059 A=    0.0000 R=    0.0000 C=    0.0000
 XYZ=   13.6357  -14.5124  -10.5270 Q=    0.4638 A=    0.0000 R=    0.0000 C=    0.0000
 XYZ=    8.9611  -17.0167   -9.2755 Q=   -0.9921 A=    0.0000 R=    0.0000 C=    0.0000
 XYZ=    8.6736  -17.2191   -8.3852 Q=    0.5092 A=    0.0000 R=    0.0000 C=    0.0000
 XYZ=    8.3026  -17.4234   -9.8386 Q=    0.5103 A=    0.0000 R=    0.0000 C=    0.0000
 XYZ=   12.8900   -9.6906  -13.7511 Q=   -0.9984 A=    0.0000 R=    0.0000 C=    0.0000
 XYZ=   13.4884   -9.8459  -13.0204 Q=    0.4670 A=    0.0000 R=    0.0000 C=    0.0000
 XYZ=   12.0171   -9.7427  -13.3618 Q=    0.5160 A=    0.0000 R=    0.0000 C=    0.0000
 XYZ=    4.9070   -7.9100   -9.1300 Q=   -1.0105 A=    0.0000 R=    0.0000 C=    0.0000
 XYZ=    4.0635   -8.0265   -9.5674 Q=    0.4764 A=    0.0000 R=    0.0000 C=    0.0000
 XYZ=    5.4227   -8.6710   -9.3968 Q=    0.5176 A=    0.0000 R=    0.0000 C=    0.0000
 XYZ=    2.9547  -12.7024   -9.8757 Q=   -0.9915 A=    0.0000 R=    0.0000 C=    0.0000
 XYZ=    3.0641  -13.5048   -9.3654 Q=    0.5019 A=    0.0000 R=    0.0000 C=    0.0000
 XYZ=    2.7384  -12.0329   -9.2268 Q=    0.5105 A=    0.0000 R=    0.0000 C=    0.0000
 XYZ=    4.2108  -13.3306   -7.5546 Q=   -1.0293 A=    0.0000 R=    0.0000 C=    0.0000
 XYZ=    4.9638  -12.7453   -7.4735 Q=    0.4979 A=    0.0000 R=    0.0000 C=    0.0000
 XYZ=    4.5835  -14.1618   -7.8486 Q=    0.5197 A=    0.0000 R=    0.0000 C=    0.0000
 XYZ=    8.5389   -6.2611  -12.9484 Q=   -1.0019 A=    0.0000 R=    0.0000 C=    0.0000
 XYZ=    8.8800   -6.8491  -12.2745 Q=    0.5098 A=    0.0000 R=    0.0000 C=    0.0000
 XYZ=    9.2767   -6.1230  -13.5423 Q=    0.4773 A=    0.0000 R=    0.0000 C=    0.0000
 XYZ=   11.4715  -15.3553   -7.5180 Q=   -1.0197 A=    0.0000 R=    0.0000 C=    0.0000
 XYZ=   10.8644  -15.3558   -8.2581 Q=    0.4753 A=    0.0000 R=    0.0000 C=    0.0000
 XYZ=   11.9075  -14.5045   -7.5658 Q=    0.5146 A=    0.0000 R=    0.0000 C=    0.0000
 XYZ=   12.8138  -13.0185   -7.3663 Q=   -0.9959 A=    0.0000 R=    0.0000 C=    0.0000
 XYZ=   12.4819  -12.4171   -6.6996 Q=    0.4994 A=    0.0000 R=    0.0000 C=    0.0000
 XYZ=   12.6552  -12.5682   -8.1960 Q=    0.5110 A=    0.0000 R=    0.0000 C=    0.0000
 XYZ=   11.3245  -17.0116  -10.7628 Q=   -1.0019 A=    0.0000 R=    0.0000 C=    0.0000
 XYZ=   11.7165  -17.8633  -10.5702 Q=    0.4876 A=    0.0000 R=    0.0000 C=    0.0000
 XYZ=   10.4428  -17.0644  -10.3939 Q=    0.5095 A=    0.0000 R=    0.0000 C=    0.0000
 Pt Chg Charge=              0.0469 electrons
 Pt Chg Dipole moment (Debye):
    X=             10.8647    Y=             -5.2180    Z=             20.4187  Tot=             23.7106
 Pt Chg Quadrupole moment (Debye-Ang):
   XX=            194.1872   YY=             92.3521   ZZ=           -461.6208
   XY=           -119.8118   XZ=             79.0135   YZ=           -210.9889
 Pt Chg Traceless Quadrupole moment (Debye-Ang):
   XX=            252.5477   YY=            150.7126   ZZ=           -403.2603
   XY=           -119.8118   XZ=             79.0135   YZ=           -210.9889
 Pt Chg Octapole moment (Debye-Ang**2):
  XXX=           2932.7067  YYY=          -1853.7456  ZZZ=           7909.9715  XYY=           1380.8695
  XXY=          -1908.2541  XXZ=           -403.2028  XZZ=          -2862.8947  YZZ=           5103.6507
  YYZ=           2367.2908  XYZ=           -850.9126
 Pt Chg Hexadecapole moment (Debye-Ang**3):
 XXXX=          43082.5581 YYYY=          41195.3279 ZZZZ=        -123743.8368 XXXY=         -28160.4921
 XXXZ=         -16589.0601 YYYX=         -19332.7804 YYYZ=         -25711.1058 ZZZX=          54670.4352
 ZZZY=         -89051.4956 XXYY=          19062.0631 XXZZ=         -13020.7182 YYZZ=         -61397.7399
 XXYZ=           3731.3943 YYXZ=          10088.8959 ZZXY=          31005.2832
 Leave Link  101 at Fri May 15 22:34:46 2020, MaxMem=   134217728 cpu:               0.5 elap:               0.1
 (Enter /home/soft/g16/l202.exe)
                          Input orientation:                          
 ---------------------------------------------------------------------
 Center     Atomic      Atomic             Coordinates (Angstroms)
 Number     Number       Type             X           Y           Z
 ---------------------------------------------------------------------
      1          8           0        8.392325  -11.812941  -11.200483
      2          8           0        7.250284   -9.859627  -13.103456
      3          8           0        6.966193   -9.247795  -10.274305
      4          8           0       10.084912   -9.602997  -13.694410
      5          8           0        8.451586  -10.635579  -15.685931
      6          8           0        4.039142  -11.224262  -12.804410
      7          8           0        5.339755  -11.212242  -15.474518
      8          8           0        4.641258   -8.138278  -12.671145
      9          1           0        8.175276  -12.537815  -10.614239
     10          1           0        9.252154  -11.514100  -10.904475
     11          1           0        7.120660  -10.221473  -13.980096
     12          1           0        7.341484  -10.626744  -12.538261
     13          1           0        6.975152   -9.845016  -11.022289
     14          1           0        7.684375   -8.638472  -10.445098
     15          1           0        9.837963   -9.877914  -14.577398
     16          1           0        9.267108   -9.628370  -13.197635
     17          1           0        8.125035  -10.406856  -16.556152
     18          1           0        9.262189  -11.116608  -15.852568
     19          1           0        4.524844  -12.047609  -12.755179
     20          1           0        4.432119  -10.757539  -13.541956
     21          1           0        5.880078  -10.458674  -15.712045
     22          1           0        5.489557  -11.845700  -16.176318
     23          1           0        4.597809   -7.272042  -12.266198
     24          1           0        5.576498   -8.338407  -12.709967
 ---------------------------------------------------------------------
                    Distance matrix (angstroms):
                    1          2          3          4          5
     1  O    0.000000
     2  O    2.956518   0.000000
     3  O    3.077602   2.908460   0.000000
     4  O    3.737429   2.906923   4.642165   0.000000
     5  O    4.637773   2.952017   5.780833   2.774912   0.000000
     6  O    4.676465   3.501870   4.344592   6.322336   5.302770
     7  O    5.286435   3.331910   5.791940   5.317421   3.171865
     8  O    5.453118   3.155464   3.518692   5.729384   5.462970
     9  H    0.957201   3.771538   3.521600   4.663402   5.423736
    10  H    0.957200   3.402981   3.280072   3.482749   4.926970
    11  H    3.446179   0.957200   3.834683   3.041532   2.202889
    12  H    2.073880   0.957200   2.677282   3.148196   3.337698
    13  H    2.431638   2.099325   0.957201   4.107239   4.955240
    14  H    3.339020   2.957452   0.957199   4.153422   5.660687
    15  H    4.151837   2.978074   5.211595   0.957200   1.930011
    16  H    3.086456   2.032223   3.739640   0.957200   2.805559
    17  H    5.543619   3.603576   6.492144   3.560460   0.957201
    18  H    4.783664   3.631168   6.315147   2.761438   0.957201
    19  H    4.174872   3.512348   4.466977   6.145945   5.099259
    20  H    4.720127   2.990081   4.402091   5.771506   4.557150
    21  H    5.338503   3.006835   5.675816   4.741694   2.577718
    22  H    5.760735   4.060434   6.615385   5.683913   3.237049
    23  H    6.012808   3.798976   3.671577   6.130370   6.153012
    24  H    4.720149   2.295758   2.947997   4.784779   4.732810
                    6          7          8          9         10
     6  O    0.000000
     7  O    2.970053   0.000000
     8  O    3.146999   4.218537   0.000000
     9  H    4.861057   5.780972   6.006336   0.000000
    10  H    5.556011   6.023560   5.981443   1.513901   0.000000
    11  H    3.447256   2.527161   3.492920   4.219792   3.958989
    12  H    3.366501   3.601574   3.674417   2.837122   2.665955
    13  H    3.701139   4.936210   3.328474   2.976234   2.825679
    14  H    5.053750   6.116911   3.803425   3.933760   3.307294
    15  H    6.211478   4.776937   5.802230   5.054328   4.063329
    16  H    5.480249   4.808009   4.888359   4.041151   2.968970
    17  H    5.606982   3.094570   5.690029   6.312673   5.868376
    18  H    6.048395   3.941771   6.351764   5.535458   4.964043
    19  H    0.957199   2.959176   3.911967   4.260232   5.104625
    20  H    0.957202   2.182969   2.768136   5.074656   5.546299
    21  H    3.525551   0.957200   4.020695   5.964762   5.966368
    22  H    3.722855   0.957201   5.172120   6.215210   6.485324
    23  H    4.027633   5.135073   0.957201   6.576899   6.443002
    24  H    3.271168   3.994711   0.957200   5.364769   5.182207
                   11         12         13         14         15
    11  H    0.000000
    12  H    1.513901   0.000000
    13  H    2.985216   1.744554   0.000000
    14  H    3.914062   2.907255   1.513901   0.000000
    15  H    2.803308   3.309265   4.564600   4.821832   0.000000
    16  H    2.360351   2.267058   3.167353   3.325869   1.513900
    17  H    2.771137   4.099482   5.679924   6.377017   2.670088
    18  H    2.982208   3.861827   5.493549   6.153973   1.868673
    19  H    3.401978   3.162178   3.722678   5.190503   6.021403
    20  H    2.776254   3.080408   3.694379   4.965697   5.573960
    21  H    2.143585   3.498122   4.854851   5.857419   4.158072
    22  H    3.181509   4.260393   5.724836   6.924624   5.033623
    23  H    4.242802   4.342326   3.717427   3.835417   6.292172
    24  H    2.746562   2.895021   2.659767   3.108507   4.900762
                   16         17         18         19         20
    16  H    0.000000
    17  H    3.631805   0.000000
    18  H    3.043607   1.513901   0.000000
    19  H    5.342055   5.486423   5.736115   0.000000
    20  H    4.977017   4.779747   5.366324   1.513901   0.000000
    21  H    4.299260   2.398965   3.448376   3.620004   2.625870
    22  H    5.297074   3.026597   3.856053   3.560285   3.040088
    23  H    5.312458   6.377467   7.028455   4.801090   3.715333
    24  H    3.939851   5.056349   5.583785   3.855671   2.802500
                   21         22         23         24
    21  H    0.000000
    22  H    1.513901   0.000000
    23  H    4.865460   6.082976   0.000000
    24  H    3.687840   4.931962   1.513901   0.000000
 Symmetry turned off by external request.
 Stoichiometry    H16O8
 Framework group  C1[X(H16O8)]
 Deg. of freedom    66
 Full point group                 C1      NOp   1
 Rotational constants (GHZ):           0.7814410           0.6916131           0.4994851
 Leave Link  202 at Fri May 15 22:34:46 2020, MaxMem=   134217728 cpu:               0.0 elap:               0.0
 (Enter /home/soft/g16/l301.exe)
 Standard basis: 6-31G(d,p) (5D, 7F)
 Ernie: Thresh=  0.10000D-02 Tol=  0.10000D-05 Strict=F.
   192 basis functions,   336 primitive gaussians,   200 cartesian basis functions
    40 alpha electrons       40 beta electrons
       nuclear repulsion energy       455.2343451453 Hartrees.
 IExCor=    0 DFT=F Ex=HF Corr=None ExCW=0 ScaHFX=  1.000000
 ScaDFX=  1.000000  1.000000  1.000000  1.000000 ScalE2=  1.000000  1.000000
 IRadAn=      5 IRanWt=     -1 IRanGd=            0 ICorTp=0 IEmpDi=  4
 NAtoms=   24 NActive=   24 NUniq=   24 SFac= 1.00D+00 NAtFMM=   60 NAOKFM=F Big=F
 Integral buffers will be    131072 words long.
 Raffenetti 1 integral format.
 Two-electron integral symmetry is turned off.
 Background charge distribution read from rwf.
 PtFMM for NChg=        96 BoxLen=    40.00 Levels= 1 LMax=20 SMax=    22.2 ICnFMM=     1:
 Self energy of the charges =       -11.5624040964 a.u.
 MM   energy of the charges =         0.0000000000 a.u.
 Nuclei-charges interaction =        -2.4747331635 a.u.
 Nuclear repulsion after external point charges =      441.1972078854 Hartrees.
 Leave Link  301 at Fri May 15 22:34:46 2020, MaxMem=   134217728 cpu:               0.2 elap:               0.1
 (Enter /home/soft/g16/l302.exe)
 NPDir=0 NMtPBC=     1 NCelOv=     1 NCel=       1 NClECP=     1 NCelD=      1
         NCelK=      1 NCelE2=     1 NClLst=     1 CellRange=     0.0.
 One-electron integrals computed using PRISM.
 NBasis=   192 RedAO= T EigKep=  2.49D-02  NBF=   192
 NBsUse=   192 1.00D-06 EigRej= -1.00D+00 NBFU=   192
 Leave Link  302 at Fri May 15 22:34:46 2020, MaxMem=   134217728 cpu:               0.7 elap:               0.2
 (Enter /home/soft/g16/l303.exe)
 DipDrv:  MaxL=1.
 Leave Link  303 at Fri May 15 22:34:46 2020, MaxMem=   134217728 cpu:               0.1 elap:               0.0
 (Enter /home/soft/g16/l401.exe)
 ExpMin= 1.61D-01 ExpMax= 5.48D+03 ExpMxC= 8.25D+02 IAcc=3 IRadAn=         5 AccDes= 0.00D+00
 Harris functional with IExCor=  205 and IRadAn=       5 diagonalized for initial guess.
 HarFok:  IExCor=  205 AccDes= 0.00D+00 IRadAn=         5 IDoV= 1 UseB2=F ITyADJ=14
 ICtDFT=  3500011 ScaDFX=  1.000000  1.000000  1.000000  1.000000
 FoFCou: FMM=F IPFlag=           0 FMFlag=      100000 FMFlg1=           0
         NFxFlg=           0 DoJE=T BraDBF=F KetDBF=T FulRan=T
         wScrn=  0.000000 ICntrl=       500 IOpCl=  0 I1Cent=   200000004 NGrid=           0
         NMat0=    1 NMatS0=      1 NMatT0=    0 NMatD0=    1 NMtDS0=    0 NMtDT0=    0
 Symmetry not used in FoFCou.
 Harris En= -620.617175329075    
 JPrj=0 DoOrth=F DoCkMO=F.
 Leave Link  401 at Fri May 15 22:34:47 2020, MaxMem=   134217728 cpu:               5.1 elap:               1.3
 (Enter /home/soft/g16/l502.exe)
 Two-electron integral symmetry not used.
 Closed shell SCF:
 Using DIIS extrapolation, IDIIS=  1040.
 NGot=   134217728 LenX=   134134708 LenY=   134094267
 Requested convergence on RMS density matrix=1.00D-08 within 128 cycles.
 Requested convergence on MAX density matrix=1.00D-06.
 Requested convergence on             energy=1.00D-06.
 No special actions if energy rises.
 Fock matrices will be formed incrementally for  20 cycles.
 Integral accuracy reduced to 1.0D-05 until final iterations.

 Cycle   1  Pass 0  IDiag  1:
 FoFJK:  IHMeth= 1 ICntrl=       0 DoSepK=F KAlg= 0 I1Cent=           0 FoldK=F
 IRaf= 840000000 NMat=       1 IRICut=       1 DoRegI=T DoRafI=F ISym2E= 0 IDoP0=0 IntGTp=1.
 FoFCou: FMM=F IPFlag=           0 FMFlag=      100000 FMFlg1=           0
         NFxFlg=           0 DoJE=F BraDBF=F KetDBF=F FulRan=T
         wScrn=  0.000000 ICntrl=         0 IOpCl=  0 I1Cent=           0 NGrid=           0
         NMat0=    1 NMatS0=      1 NMatT0=    0 NMatD0=    1 NMtDS0=    0 NMtDT0=    0
 Symmetry not used in FoFCou.
 E= -619.285021685819    
 DIIS: error= 4.79D-02 at cycle   1 NSaved=   1.
 NSaved= 1 IEnMin= 1 EnMin= -619.285021685819     IErMin= 1 ErrMin= 4.79D-02
 ErrMax= 4.79D-02  0.00D+00 EMaxC= 1.00D-01 BMatC= 9.07D-01 BMatP= 9.07D-01
 IDIUse=3 WtCom= 5.21D-01 WtEn= 4.79D-01
 Coeff-Com:  0.100D+01
 Coeff-En:   0.100D+01
 Coeff:      0.100D+01
 Gap=     0.647 Goal=   None    Shift=    0.000
 GapD=    0.647 DampG=2.000 DampE=0.500 DampFc=1.0000 IDamp=-1.
 RMSDP=4.02D-03 MaxDP=1.26D-01              OVMax= 1.22D-01

 Cycle   2  Pass 0  IDiag  1:
 RMSU=  3.94D-03    CP:  9.66D-01
 E= -619.703330078585     Delta-E=       -0.418308392766 Rises=F Damp=F
 DIIS: error= 2.62D-02 at cycle   2 NSaved=   2.
 NSaved= 2 IEnMin= 2 EnMin= -619.703330078585     IErMin= 2 ErrMin= 2.62D-02
 ErrMax= 2.62D-02  0.00D+00 EMaxC= 1.00D-01 BMatC= 2.67D-01 BMatP= 9.07D-01
 IDIUse=3 WtCom= 7.38D-01 WtEn= 2.62D-01
 Coeff-Com:  0.338D+00 0.662D+00
 Coeff-En:   0.654D-01 0.935D+00
 Coeff:      0.267D+00 0.733D+00
 Gap=     0.604 Goal=   None    Shift=    0.000
 RMSDP=1.81D-03 MaxDP=5.18D-02 DE=-4.18D-01 OVMax= 4.53D-02

 Cycle   3  Pass 0  IDiag  1:
 RMSU=  6.54D-04    CP:  9.79D-01  5.80D-01
 E= -619.881290010264     Delta-E=       -0.177959931679 Rises=F Damp=F
 DIIS: error= 5.09D-03 at cycle   3 NSaved=   3.
 NSaved= 3 IEnMin= 3 EnMin= -619.881290010264     IErMin= 3 ErrMin= 5.09D-03
 ErrMax= 5.09D-03  0.00D+00 EMaxC= 1.00D-01 BMatC= 6.57D-03 BMatP= 2.67D-01
 IDIUse=3 WtCom= 9.49D-01 WtEn= 5.09D-02
 Coeff-Com: -0.325D-01 0.891D-01 0.943D+00
 Coeff-En:   0.000D+00 0.000D+00 0.100D+01
 Coeff:     -0.309D-01 0.846D-01 0.946D+00
 Gap=     0.591 Goal=   None    Shift=    0.000
 RMSDP=2.54D-04 MaxDP=8.05D-03 DE=-1.78D-01 OVMax= 8.94D-03

 Cycle   4  Pass 0  IDiag  1:
 RMSU=  8.12D-05    CP:  9.77D-01  6.38D-01  1.09D+00
 E= -619.886440796060     Delta-E=       -0.005150785796 Rises=F Damp=F
 DIIS: error= 3.53D-04 at cycle   4 NSaved=   4.
 NSaved= 4 IEnMin= 4 EnMin= -619.886440796060     IErMin= 4 ErrMin= 3.53D-04
 ErrMax= 3.53D-04  0.00D+00 EMaxC= 1.00D-01 BMatC= 6.42D-05 BMatP= 6.57D-03
 IDIUse=3 WtCom= 9.96D-01 WtEn= 3.53D-03
 Coeff-Com:  0.432D-02-0.356D-01-0.232D+00 0.126D+01
 Coeff-En:   0.000D+00 0.000D+00 0.000D+00 0.100D+01
 Coeff:      0.431D-02-0.355D-01-0.231D+00 0.126D+01
 Gap=     0.594 Goal=   None    Shift=    0.000
 RMSDP=6.38D-05 MaxDP=1.28D-03 DE=-5.15D-03 OVMax= 2.11D-03

 Cycle   5  Pass 0  IDiag  1:
 RMSU=  2.86D-05    CP:  9.77D-01  6.37D-01  1.16D+00  1.44D+00
 E= -619.886554817777     Delta-E=       -0.000114021718 Rises=F Damp=F
 DIIS: error= 1.96D-04 at cycle   5 NSaved=   5.
 NSaved= 5 IEnMin= 5 EnMin= -619.886554817777     IErMin= 5 ErrMin= 1.96D-04
 ErrMax= 1.96D-04  0.00D+00 EMaxC= 1.00D-01 BMatC= 7.41D-06 BMatP= 6.42D-05
 IDIUse=3 WtCom= 9.98D-01 WtEn= 1.96D-03
 Coeff-Com:  0.323D-02-0.155D-01-0.120D+00 0.331D+00 0.802D+00
 Coeff-En:   0.000D+00 0.000D+00 0.000D+00 0.000D+00 0.100D+01
 Coeff:      0.323D-02-0.155D-01-0.120D+00 0.330D+00 0.803D+00
 Gap=     0.595 Goal=   None    Shift=    0.000
 RMSDP=1.51D-05 MaxDP=6.68D-04 DE=-1.14D-04 OVMax= 6.59D-04

 Cycle   6  Pass 0  IDiag  1:
 RMSU=  7.94D-06    CP:  9.77D-01  6.37D-01  1.17D+00  1.58D+00  9.81D-01
 E= -619.886563532859     Delta-E=       -0.000008715081 Rises=F Damp=F
 DIIS: error= 3.22D-05 at cycle   6 NSaved=   6.
 NSaved= 6 IEnMin= 6 EnMin= -619.886563532859     IErMin= 6 ErrMin= 3.22D-05
 ErrMax= 3.22D-05  0.00D+00 EMaxC= 1.00D-01 BMatC= 3.94D-07 BMatP= 7.41D-06
 IDIUse=1 WtCom= 1.00D+00 WtEn= 0.00D+00
 Coeff-Com: -0.412D-03 0.326D-02 0.235D-01-0.128D+00-0.278D-01 0.113D+01
 Coeff:     -0.412D-03 0.326D-02 0.235D-01-0.128D+00-0.278D-01 0.113D+01
 Gap=     0.595 Goal=   None    Shift=    0.000
 RMSDP=5.98D-06 MaxDP=1.29D-04 DE=-8.72D-06 OVMax= 2.19D-04

 Initial convergence to 1.0D-05 achieved.  Increase integral accuracy.
 Cycle   7  Pass 1  IDiag  1:
 E= -619.886570052434     Delta-E=       -0.000006519576 Rises=F Damp=F
 DIIS: error= 5.44D-06 at cycle   1 NSaved=   1.
 NSaved= 1 IEnMin= 1 EnMin= -619.886570052434     IErMin= 1 ErrMin= 5.44D-06
 ErrMax= 5.44D-06  0.00D+00 EMaxC= 1.00D-01 BMatC= 1.62D-08 BMatP= 1.62D-08
 IDIUse=1 WtCom= 1.00D+00 WtEn= 0.00D+00
 Coeff-Com:  0.100D+01
 Coeff:      0.100D+01
 Gap=     0.595 Goal=   None    Shift=    0.000
 RMSDP=5.98D-06 MaxDP=1.29D-04 DE=-6.52D-06 OVMax= 3.43D-05

 Cycle   8  Pass 1  IDiag  1:
 RMSU=  9.89D-07    CP:  1.00D+00
 E= -619.886570078057     Delta-E=       -0.000000025623 Rises=F Damp=F
 DIIS: error= 2.12D-06 at cycle   2 NSaved=   2.
 NSaved= 2 IEnMin= 2 EnMin= -619.886570078057     IErMin= 2 ErrMin= 2.12D-06
 ErrMax= 2.12D-06  0.00D+00 EMaxC= 1.00D-01 BMatC= 2.29D-09 BMatP= 1.62D-08
 IDIUse=1 WtCom= 1.00D+00 WtEn= 0.00D+00
 Coeff-Com: -0.751D-01 0.108D+01
 Coeff:     -0.751D-01 0.108D+01
 Gap=     0.595 Goal=   None    Shift=    0.000
 RMSDP=3.55D-07 MaxDP=1.65D-05 DE=-2.56D-08 OVMax= 1.47D-05

 Cycle   9  Pass 1  IDiag  1:
 RMSU=  2.56D-07    CP:  1.00D+00  1.25D+00
 E= -619.886570082341     Delta-E=       -0.000000004284 Rises=F Damp=F
 DIIS: error= 1.19D-06 at cycle   3 NSaved=   3.
 NSaved= 3 IEnMin= 3 EnMin= -619.886570082341     IErMin= 3 ErrMin= 1.19D-06
 ErrMax= 1.19D-06  0.00D+00 EMaxC= 1.00D-01 BMatC= 5.83D-10 BMatP= 2.29D-09
 IDIUse=1 WtCom= 1.00D+00 WtEn= 0.00D+00
 Coeff-Com: -0.162D+00 0.224D+00 0.938D+00
 Coeff:     -0.162D+00 0.224D+00 0.938D+00
 Gap=     0.595 Goal=   None    Shift=    0.000
 RMSDP=1.75D-07 MaxDP=9.39D-06 DE=-4.28D-09 OVMax= 9.02D-06

 Cycle  10  Pass 1  IDiag  1:
 RMSU=  1.01D-07    CP:  1.00D+00  1.38D+00  1.20D+00
 E= -619.886570083297     Delta-E=       -0.000000000957 Rises=F Damp=F
 DIIS: error= 2.60D-07 at cycle   4 NSaved=   4.
 NSaved= 4 IEnMin= 4 EnMin= -619.886570083297     IErMin= 4 ErrMin= 2.60D-07
 ErrMax= 2.60D-07  0.00D+00 EMaxC= 1.00D-01 BMatC= 2.95D-11 BMatP= 5.83D-10
 IDIUse=1 WtCom= 1.00D+00 WtEn= 0.00D+00
 Coeff-Com:  0.150D-01-0.130D+00-0.345D-01 0.115D+01
 Coeff:      0.150D-01-0.130D+00-0.345D-01 0.115D+01
 Gap=     0.595 Goal=   None    Shift=    0.000
 RMSDP=5.92D-08 MaxDP=2.08D-06 DE=-9.57D-10 OVMax= 2.51D-06

 Cycle  11  Pass 1  IDiag  1:
 RMSU=  1.43D-08    CP:  1.00D+00  1.41D+00  1.37D+00  1.22D+00
 E= -619.886570083354     Delta-E=       -0.000000000056 Rises=F Damp=F
 DIIS: error= 5.67D-08 at cycle   5 NSaved=   5.
 NSaved= 5 IEnMin= 5 EnMin= -619.886570083354     IErMin= 5 ErrMin= 5.67D-08
 ErrMax= 5.67D-08  0.00D+00 EMaxC= 1.00D-01 BMatC= 6.69D-13 BMatP= 2.95D-11
 IDIUse=1 WtCom= 1.00D+00 WtEn= 0.00D+00
 Coeff-Com:  0.175D-02 0.138D-01-0.165D-01-0.175D+00 0.118D+01
 Coeff:      0.175D-02 0.138D-01-0.165D-01-0.175D+00 0.118D+01
 Gap=     0.595 Goal=   None    Shift=    0.000
 RMSDP=8.63D-09 MaxDP=2.91D-07 DE=-5.62D-11 OVMax= 4.47D-07

 SCF Done:  E(RHF) =  -619.886570083     A.U. after   11 cycles
            NFock= 11  Conv=0.86D-08     -V/T= 2.0208
 KE= 6.072754763407D+02 PE=-2.353182423790D+03 EE= 6.848231694803D+02
 Leave Link  502 at Fri May 15 22:34:51 2020, MaxMem=   134217728 cpu:              13.7 elap:               3.4
 (Enter /home/soft/g16/l601.exe)
 Copying SCF densities to generalized density rwf, IOpCl= 0 IROHF=0.

 **********************************************************************

            Population analysis using the SCF density.

 **********************************************************************

 Alpha  occ. eigenvalues --  -20.55645 -20.54971 -20.54736 -20.54421 -20.53618
 Alpha  occ. eigenvalues --  -20.50720 -20.48914 -20.46528  -1.34435  -1.33627
 Alpha  occ. eigenvalues --   -1.32974  -1.32807  -1.31965  -1.29295  -1.27244
 Alpha  occ. eigenvalues --   -1.24848  -0.71388  -0.70932  -0.69227  -0.69210
 Alpha  occ. eigenvalues --   -0.67436  -0.65755  -0.63926  -0.61463  -0.58777
 Alpha  occ. eigenvalues --   -0.57388  -0.56734  -0.56146  -0.55016  -0.53327
 Alpha  occ. eigenvalues --   -0.50415  -0.50038  -0.49409  -0.48379  -0.48058
 Alpha  occ. eigenvalues --   -0.47491  -0.46800  -0.45431  -0.43032  -0.40505
 Alpha virt. eigenvalues --    0.18984   0.22856   0.26895   0.28272   0.30285
 Alpha virt. eigenvalues --    0.31823   0.33199   0.34145   0.36476   0.37224
 Alpha virt. eigenvalues --    0.39676   0.41858   0.43518   0.44741   0.47744
 Alpha virt. eigenvalues --    0.48456   0.97763   1.00767   1.01168   1.02329
 Alpha virt. eigenvalues --    1.03939   1.05508   1.07312   1.08731   1.09202
 Alpha virt. eigenvalues --    1.09707   1.10968   1.12090   1.12360   1.13152
 Alpha virt. eigenvalues --    1.13871   1.14827   1.16588   1.17612   1.18769
 Alpha virt. eigenvalues --    1.20937   1.21365   1.22962   1.25154   1.26606
 Alpha virt. eigenvalues --    1.27894   1.28033   1.28876   1.31493   1.32404
 Alpha virt. eigenvalues --    1.34232   1.35597   1.37300   1.37733   1.40319
 Alpha virt. eigenvalues --    1.42217   1.43694   1.44576   1.47098   1.47559
 Alpha virt. eigenvalues --    1.50662   1.60685   1.64112   1.68140   1.69393
 Alpha virt. eigenvalues --    1.71090   1.73829   1.77355   1.80230   1.81284
 Alpha virt. eigenvalues --    1.81765   1.83177   1.83786   1.84386   1.85669
 Alpha virt. eigenvalues --    1.86722   1.87118   1.88585   1.89809   1.90272
 Alpha virt. eigenvalues --    1.90926   1.92705   1.93866   1.94426   1.96328
 Alpha virt. eigenvalues --    1.98003   1.99335   1.99865   2.01784   2.03775
 Alpha virt. eigenvalues --    2.05738   2.05984   2.09598   2.56695   2.57604
 Alpha virt. eigenvalues --    2.59146   2.59321   2.60327   2.60511   2.60680
 Alpha virt. eigenvalues --    2.60976   2.64588   2.65520   2.66787   2.68267
 Alpha virt. eigenvalues --    2.68444   2.69844   2.69953   2.70159   2.81638
 Alpha virt. eigenvalues --    2.82465   2.84047   2.84424   2.88499   2.89853
 Alpha virt. eigenvalues --    2.91298   2.92334   2.97583   2.99348   2.99563
 Alpha virt. eigenvalues --    2.99947   3.00314   3.01573   3.02242   3.03152
 Alpha virt. eigenvalues --    3.04444   3.04908   3.05437   3.05675   3.06311
 Alpha virt. eigenvalues --    3.07507   3.09364   3.12215   3.39638   3.40238
 Alpha virt. eigenvalues --    3.40433   3.41309   3.43044   3.46000   3.48544
 Alpha virt. eigenvalues --    3.49518   3.78076   3.78382   3.79300   3.79947
 Alpha virt. eigenvalues --    3.82884   3.84384   3.87760   3.88832   3.94642
 Alpha virt. eigenvalues --    3.96932   4.01284   4.01757   4.04421   4.06949
 Alpha virt. eigenvalues --    4.09779   4.11583
          Condensed to atoms (all electrons):
               1          2          3          4          5          6
     1  O    8.126945  -0.006422  -0.002675  -0.000144  -0.000001  -0.000004
     2  O   -0.006422   8.123831  -0.004639  -0.010082  -0.003944  -0.000499
     3  O   -0.002675  -0.004639   8.160204  -0.000003  -0.000000  -0.000017
     4  O   -0.000144  -0.010082  -0.000003   8.196490  -0.012404  -0.000000
     5  O   -0.000001  -0.003944  -0.000000  -0.012404   8.108445  -0.000000
     6  O   -0.000004  -0.000499  -0.000017  -0.000000  -0.000000   8.090528
     7  O    0.000000  -0.001633   0.000000  -0.000000  -0.001439  -0.003939
     8  O   -0.000000  -0.002703  -0.000389  -0.000000  -0.000000  -0.000347
     9  H    0.313940   0.000175   0.000265   0.000002   0.000000  -0.000001
    10  H    0.311204   0.000314   0.000742   0.000514   0.000000  -0.000000
    11  H    0.000070   0.301291   0.000217   0.000689   0.007329   0.000142
    12  H    0.013776   0.293908   0.000297   0.000838   0.000293   0.000913
    13  H    0.009021   0.008965   0.312361  -0.000004   0.000001   0.000313
    14  H    0.000419   0.000929   0.321179  -0.000003   0.000000  -0.000001
    15  H    0.000002   0.000346  -0.000000   0.319154   0.022521   0.000000
    16  H    0.001116   0.029456   0.000078   0.314724   0.000345   0.000000
    17  H   -0.000000   0.000268   0.000000   0.000526   0.301986   0.000000
    18  H    0.000001   0.000184   0.000000   0.001232   0.308957  -0.000000
    19  H    0.000014   0.000127   0.000002   0.000000  -0.000000   0.312371
    20  H   -0.000002   0.002158  -0.000006   0.000000  -0.000008   0.313251
    21  H    0.000000   0.000825  -0.000000  -0.000001   0.003629   0.000299
    22  H   -0.000000   0.000048   0.000000   0.000000   0.000717   0.000269
    23  H    0.000000   0.000066   0.000100   0.000000   0.000000   0.000078
    24  H   -0.000002   0.011066   0.002418   0.000000   0.000001   0.000426
               7          8          9         10         11         12
     1  O    0.000000  -0.000000   0.313940   0.311204   0.000070   0.013776
     2  O   -0.001633  -0.002703   0.000175   0.000314   0.301291   0.293908
     3  O    0.000000  -0.000389   0.000265   0.000742   0.000217   0.000297
     4  O   -0.000000  -0.000000   0.000002   0.000514   0.000689   0.000838
     5  O   -0.001439  -0.000000   0.000000   0.000000   0.007329   0.000293
     6  O   -0.003939  -0.000347  -0.000001  -0.000000   0.000142   0.000913
     7  O    8.053890  -0.000015   0.000000   0.000000   0.009664  -0.000051
     8  O   -0.000015   8.094790   0.000000   0.000000   0.000144   0.000084
     9  H    0.000000   0.000000   0.312384  -0.018686  -0.000006  -0.000453
    10  H    0.000000   0.000000  -0.018686   0.306295   0.000001  -0.000921
    11  H    0.009664   0.000144  -0.000006   0.000001   0.316712  -0.014812
    12  H   -0.000051   0.000084  -0.000453  -0.000921  -0.014812   0.331041
    13  H   -0.000002   0.000618  -0.000188  -0.000317  -0.000309  -0.000944
    14  H    0.000000   0.000059  -0.000011   0.000048  -0.000016   0.000083
    15  H    0.000003   0.000000   0.000000  -0.000011   0.000090   0.000074
    16  H   -0.000002  -0.000000  -0.000020   0.000071  -0.001901  -0.002001
    17  H    0.000898  -0.000000   0.000000  -0.000000  -0.000813  -0.000001
    18  H    0.000058   0.000000  -0.000000   0.000000  -0.000122  -0.000011
    19  H    0.001534   0.000058   0.000000  -0.000000   0.000121   0.000180
    20  H    0.007172   0.002843  -0.000000   0.000000   0.000183   0.000048
    21  H    0.302795   0.000039  -0.000000  -0.000000  -0.001752  -0.000005
    22  H    0.312240  -0.000000  -0.000000  -0.000000  -0.000243   0.000006
    23  H    0.000000   0.308412  -0.000000  -0.000000   0.000002   0.000004
    24  H    0.000004   0.307381  -0.000000  -0.000000  -0.000559  -0.000635
              13         14         15         16         17         18
     1  O    0.009021   0.000419   0.000002   0.001116  -0.000000   0.000001
     2  O    0.008965   0.000929   0.000346   0.029456   0.000268   0.000184
     3  O    0.312361   0.321179  -0.000000   0.000078   0.000000   0.000000
     4  O   -0.000004  -0.000003   0.319154   0.314724   0.000526   0.001232
     5  O    0.000001   0.000000   0.022521   0.000345   0.301986   0.308957
     6  O    0.000313  -0.000001   0.000000   0.000000   0.000000  -0.000000
     7  O   -0.000002   0.000000   0.000003  -0.000002   0.000898   0.000058
     8  O    0.000618   0.000059   0.000000  -0.000000  -0.000000   0.000000
     9  H   -0.000188  -0.000011   0.000000  -0.000020   0.000000  -0.000000
    10  H   -0.000317   0.000048  -0.000011   0.000071  -0.000000   0.000000
    11  H   -0.000309  -0.000016   0.000090  -0.001901  -0.000813  -0.000122
    12  H   -0.000944   0.000083   0.000074  -0.002001  -0.000001  -0.000011
    13  H    0.297276  -0.026895  -0.000000   0.000014  -0.000000  -0.000000
    14  H   -0.026895   0.328930  -0.000001   0.000139  -0.000000   0.000000
    15  H   -0.000000  -0.000001   0.306291  -0.031238  -0.000536  -0.001488
    16  H    0.000014   0.000139  -0.031238   0.314018   0.000013   0.000109
    17  H   -0.000000  -0.000000  -0.000536   0.000013   0.374921  -0.015833
    18  H   -0.000000   0.000000  -0.001488   0.000109  -0.015833   0.275390
    19  H   -0.000018  -0.000000   0.000000  -0.000000  -0.000000  -0.000000
    20  H    0.000006  -0.000000  -0.000000  -0.000001  -0.000001  -0.000000
    21  H    0.000001  -0.000000   0.000001  -0.000002   0.000171  -0.000098
    22  H   -0.000000  -0.000000  -0.000001  -0.000000   0.000295   0.000004
    23  H   -0.000009   0.000008   0.000000  -0.000000  -0.000000  -0.000000
    24  H    0.000087   0.000043  -0.000000   0.000027  -0.000000  -0.000000
              19         20         21         22         23         24
     1  O    0.000014  -0.000002   0.000000  -0.000000   0.000000  -0.000002
     2  O    0.000127   0.002158   0.000825   0.000048   0.000066   0.011066
     3  O    0.000002  -0.000006  -0.000000   0.000000   0.000100   0.002418
     4  O    0.000000   0.000000  -0.000001   0.000000   0.000000   0.000000
     5  O   -0.000000  -0.000008   0.003629   0.000717   0.000000   0.000001
     6  O    0.312371   0.313251   0.000299   0.000269   0.000078   0.000426
     7  O    0.001534   0.007172   0.302795   0.312240   0.000000   0.000004
     8  O    0.000058   0.002843   0.000039  -0.000000   0.308412   0.307381
     9  H    0.000000  -0.000000  -0.000000  -0.000000  -0.000000  -0.000000
    10  H   -0.000000   0.000000  -0.000000  -0.000000  -0.000000  -0.000000
    11  H    0.000121   0.000183  -0.001752  -0.000243   0.000002  -0.000559
    12  H    0.000180   0.000048  -0.000005   0.000006   0.000004  -0.000635
    13  H   -0.000018   0.000006   0.000001  -0.000000  -0.000009   0.000087
    14  H   -0.000000  -0.000000  -0.000000  -0.000000   0.000008   0.000043
    15  H    0.000000  -0.000000   0.000001  -0.000001   0.000000  -0.000000
    16  H   -0.000000  -0.000001  -0.000002  -0.000000  -0.000000   0.000027
    17  H   -0.000000  -0.000001   0.000171   0.000295  -0.000000  -0.000000
    18  H   -0.000000  -0.000000  -0.000098   0.000004  -0.000000  -0.000000
    19  H    0.378874  -0.028907  -0.000025  -0.000016  -0.000003  -0.000021
    20  H   -0.028907   0.337657  -0.000766  -0.000044  -0.000078  -0.000500
    21  H   -0.000025  -0.000766   0.378539  -0.023747  -0.000001   0.000030
    22  H   -0.000016  -0.000044  -0.023747   0.355983   0.000000  -0.000000
    23  H   -0.000003  -0.000078  -0.000001   0.000000   0.384538  -0.024438
    24  H   -0.000021  -0.000500   0.000030  -0.000000  -0.024438   0.338126
 Mulliken charges:
               1
     1  O   -0.767259
     2  O   -0.744035
     3  O   -0.790133
     4  O   -0.811529
     5  O   -0.736429
     6  O   -0.713783
     7  O   -0.681177
     8  O   -0.710972
     9  H    0.392597
    10  H    0.400745
    11  H    0.383877
    12  H    0.378288
    13  H    0.400023
    14  H    0.375091
    15  H    0.384794
    16  H    0.375056
    17  H    0.338107
    18  H    0.431616
    19  H    0.335706
    20  H    0.366996
    21  H    0.340067
    22  H    0.354489
    23  H    0.331321
    24  H    0.366545
 Sum of Mulliken charges =   0.00000
 Mulliken charges with hydrogens summed into heavy atoms:
               1
     1  O    0.026082
     2  O    0.018131
     3  O   -0.015019
     4  O   -0.051679
     5  O    0.033293
     6  O   -0.011081
     7  O    0.013379
     8  O   -0.013106
 Electronic spatial extent (au):  <R**2>=          95325.2855
 Charge=              0.0000 electrons
 Dipole moment (field-independent basis, Debye):
    X=              6.4654    Y=             -4.3136    Z=             -6.6966  Tot=             10.2593
 Quadrupole moment (field-independent basis, Debye-Ang):
   XX=             13.7404   YY=             51.7415   ZZ=            148.7561
   XY=           -103.9295   XZ=           -126.6794   YZ=            125.4393
 Traceless Quadrupole moment (field-independent basis, Debye-Ang):
   XX=            -57.6723   YY=            -19.6712   ZZ=             77.3434
   XY=           -103.9295   XZ=           -126.6794   YZ=            125.4393
 Octapole moment (field-independent basis, Debye-Ang**2):
  XXX=           -603.8848  YYY=           -234.9331  ZZZ=          -2513.1914  XYY=           1189.9353
  XXY=           -482.7785  XXZ=           -443.8917  XZZ=           2083.1971  YZZ=          -2319.3172
  YYZ=          -1363.4107  XYZ=           1792.1895
 Hexadecapole moment (field-independent basis, Debye-Ang**3):
 XXXX=         -13679.6999 YYYY=          -4705.3698 ZZZZ=          37992.3918 XXXY=           2974.9363
 XXXZ=           6264.6983 YYYX=         -10837.6978 YYYZ=           9597.6869 ZZZX=         -31967.8380
 ZZZY=          37366.8561 XXYY=           6339.1199 XXZZ=           8561.7729 YYZZ=          24849.0717
 XXYZ=           9024.9307 YYXZ=         -19817.9176 ZZXY=         -28168.2870
 N-N= 4.411972078854D+02 E-N=-2.353182418587D+03  KE= 6.072754763407D+02
 No NMR shielding tensors so no spin-rotation constants.
 Leave Link  601 at Fri May 15 22:34:51 2020, MaxMem=   134217728 cpu:               0.6 elap:               0.2
 (Enter /home/soft/g16/l607.exe)
 ******************************Gaussian NBO Version 3.1******************************
             N A T U R A L   A T O M I C   O R B I T A L   A N D
          N A T U R A L   B O N D   O R B I T A L   A N A L Y S I S
 ******************************Gaussian NBO Version 3.1******************************
       /RESON  / : Allow strongly delocalized NBO set

 Analyzing the SCF density

 Job title: Atom number=24                                                  

 Storage needed:    112536 in NPA ( 134214704 available)
 GSVD:  LWork=       17664 too small for GESVD, short by       19872 words or       19872 for optimal perf.


 NATURAL POPULATIONS:  Natural atomic orbital occupancies 
                                                          
   NAO  Atom  No  lang   Type(AO)    Occupancy      Energy
 ----------------------------------------------------------
     1    O    1  S      Cor( 1S)     1.99986     -20.38745
     2    O    1  S      Val( 2S)     1.75840      -1.15695
     3    O    1  S      Ryd( 3S)     0.00086       1.72330
     4    O    1  px     Val( 2p)     1.68550      -0.38820
     5    O    1  px     Ryd( 3p)     0.00153       1.32280
     6    O    1  py     Val( 2p)     1.74774      -0.40939
     7    O    1  py     Ryd( 3p)     0.00147       1.30673
     8    O    1  pz     Val( 2p)     1.84742      -0.44736
     9    O    1  pz     Ryd( 3p)     0.00051       1.29150
    10    O    1  dxy    Ryd( 3d)     0.00054       2.55780
    11    O    1  dxz    Ryd( 3d)     0.00128       2.52644
    12    O    1  dyz    Ryd( 3d)     0.00143       2.72658
    13    O    1  dx2y2  Ryd( 3d)     0.00084       2.68668
    14    O    1  dz2    Ryd( 3d)     0.00131       2.37104

    15    O    2  S      Cor( 1S)     1.99984     -20.35971
    16    O    2  S      Val( 2S)     1.74430      -1.14573
    17    O    2  S      Ryd( 3S)     0.00089       1.97333
    18    O    2  px     Val( 2p)     1.96925      -0.46581
    19    O    2  px     Ryd( 3p)     0.00085       1.35862
    20    O    2  py     Val( 2p)     1.75040      -0.40751
    21    O    2  py     Ryd( 3p)     0.00037       1.33385
    22    O    2  pz     Val( 2p)     1.55761      -0.33802
    23    O    2  pz     Ryd( 3p)     0.00155       1.44387
    24    O    2  dxy    Ryd( 3d)     0.00146       2.28499
    25    O    2  dxz    Ryd( 3d)     0.00014       2.34485
    26    O    2  dyz    Ryd( 3d)     0.00169       3.10225
    27    O    2  dx2y2  Ryd( 3d)     0.00184       2.53878
    28    O    2  dz2    Ryd( 3d)     0.00055       2.76759

    29    O    3  S      Cor( 1S)     1.99985     -20.37344
    30    O    3  S      Val( 2S)     1.74880      -1.15039
    31    O    3  S      Ryd( 3S)     0.00066       1.85929
    32    O    3  px     Val( 2p)     1.79642      -0.42518
    33    O    3  px     Ryd( 3p)     0.00089       1.24106
    34    O    3  py     Val( 2p)     1.69205      -0.38205
    35    O    3  py     Ryd( 3p)     0.00170       1.31359
    36    O    3  pz     Val( 2p)     1.79970      -0.43315
    37    O    3  pz     Ryd( 3p)     0.00065       1.21165
    38    O    3  dxy    Ryd( 3d)     0.00096       2.74394
    39    O    3  dxz    Ryd( 3d)     0.00118       2.37481
    40    O    3  dyz    Ryd( 3d)     0.00107       2.80757
    41    O    3  dx2y2  Ryd( 3d)     0.00054       2.39667
    42    O    3  dz2    Ryd( 3d)     0.00130       2.55575

    43    O    4  S      Cor( 1S)     1.99984     -20.32924
    44    O    4  S      Val( 2S)     1.73933      -1.11673
    45    O    4  S      Ryd( 3S)     0.00055       1.93444
    46    O    4  px     Val( 2p)     1.76077      -0.39272
    47    O    4  px     Ryd( 3p)     0.00068       1.26503
    48    O    4  py     Val( 2p)     1.96900      -0.44232
    49    O    4  py     Ryd( 3p)     0.00053       1.22002
    50    O    4  pz     Val( 2p)     1.58288      -0.31788
    51    O    4  pz     Ryd( 3p)     0.00178       1.41245
    52    O    4  dxy    Ryd( 3d)     0.00129       2.30790
    53    O    4  dxz    Ryd( 3d)     0.00117       2.92280
    54    O    4  dyz    Ryd( 3d)     0.00042       2.46590
    55    O    4  dx2y2  Ryd( 3d)     0.00148       2.59234
    56    O    4  dz2    Ryd( 3d)     0.00059       2.79634

    57    O    5  S      Cor( 1S)     1.99986     -20.39302
    58    O    5  S      Val( 2S)     1.75677      -1.16340
    59    O    5  S      Ryd( 3S)     0.00112       1.72270
    60    O    5  px     Val( 2p)     1.70466      -0.40661
    61    O    5  px     Ryd( 3p)     0.00120       1.36255
    62    O    5  py     Val( 2p)     1.87874      -0.45549
    63    O    5  py     Ryd( 3p)     0.00094       1.25199
    64    O    5  pz     Val( 2p)     1.67843      -0.39777
    65    O    5  pz     Ryd( 3p)     0.00066       1.37042
    66    O    5  dxy    Ryd( 3d)     0.00076       2.64608
    67    O    5  dxz    Ryd( 3d)     0.00130       2.59510
    68    O    5  dyz    Ryd( 3d)     0.00127       2.40069
    69    O    5  dx2y2  Ryd( 3d)     0.00047       2.39252
    70    O    5  dz2    Ryd( 3d)     0.00187       2.85348

    71    O    6  S      Cor( 1S)     1.99985     -20.29834
    72    O    6  S      Val( 2S)     1.75162      -1.06216
    73    O    6  S      Ryd( 3S)     0.00087       1.88008
    74    O    6  px     Val( 2p)     1.85228      -0.36161
    75    O    6  px     Ryd( 3p)     0.00050       1.28119
    76    O    6  py     Val( 2p)     1.59336      -0.26538
    77    O    6  py     Ryd( 3p)     0.00174       1.40260
    78    O    6  pz     Val( 2p)     1.78214      -0.33529
    79    O    6  pz     Ryd( 3p)     0.00101       1.31753
    80    O    6  dxy    Ryd( 3d)     0.00134       2.84963
    81    O    6  dxz    Ryd( 3d)     0.00185       2.59597
    82    O    6  dyz    Ryd( 3d)     0.00078       2.69695
    83    O    6  dx2y2  Ryd( 3d)     0.00110       2.51878
    84    O    6  dz2    Ryd( 3d)     0.00132       2.63237

    85    O    7  S      Cor( 1S)     1.99986     -20.38430
    86    O    7  S      Val( 2S)     1.75387      -1.14188
    87    O    7  S      Ryd( 3S)     0.00119       1.70902
    88    O    7  px     Val( 2p)     1.87117      -0.44346
    89    O    7  px     Ryd( 3p)     0.00059       1.24655
    90    O    7  py     Val( 2p)     1.56254      -0.33585
    91    O    7  py     Ryd( 3p)     0.00193       1.32730
    92    O    7  pz     Val( 2p)     1.78247      -0.41824
    93    O    7  pz     Ryd( 3p)     0.00071       1.35580
    94    O    7  dxy    Ryd( 3d)     0.00089       2.72747
    95    O    7  dxz    Ryd( 3d)     0.00185       2.39378
    96    O    7  dyz    Ryd( 3d)     0.00125       2.86554
    97    O    7  dx2y2  Ryd( 3d)     0.00065       2.45331
    98    O    7  dz2    Ryd( 3d)     0.00164       2.47557

    99    O    8  S      Cor( 1S)     1.99985     -20.32336
   100    O    8  S      Val( 2S)     1.75354      -1.08668
   101    O    8  S      Ryd( 3S)     0.00113       1.84731
   102    O    8  px     Val( 2p)     1.65474      -0.32031
   103    O    8  px     Ryd( 3p)     0.00104       1.32525
   104    O    8  py     Val( 2p)     1.64820      -0.31009
   105    O    8  py     Ryd( 3p)     0.00131       1.36962
   106    O    8  pz     Val( 2p)     1.92439      -0.40264
   107    O    8  pz     Ryd( 3p)     0.00077       1.25983
   108    O    8  dxy    Ryd( 3d)     0.00116       2.53948
   109    O    8  dxz    Ryd( 3d)     0.00111       2.35614
   110    O    8  dyz    Ryd( 3d)     0.00115       2.62359
   111    O    8  dx2y2  Ryd( 3d)     0.00182       3.12845
   112    O    8  dz2    Ryd( 3d)     0.00121       2.51987

   113    H    9  S      Val( 1S)     0.46750       0.39977
   114    H    9  S      Ryd( 2S)     0.00054       0.74870
   115    H    9  px     Ryd( 2p)     0.00055       2.74414
   116    H    9  py     Ryd( 2p)     0.00133       3.09316
   117    H    9  pz     Ryd( 2p)     0.00109       2.93358

   118    H   10  S      Val( 1S)     0.46237       0.41009
   119    H   10  S      Ryd( 2S)     0.00080       0.77520
   120    H   10  px     Ryd( 2p)     0.00159       3.28734
   121    H   10  py     Ryd( 2p)     0.00071       2.76836
   122    H   10  pz     Ryd( 2p)     0.00077       2.74091

   123    H   11  S      Val( 1S)     0.47273       0.40285
   124    H   11  S      Ryd( 2S)     0.00111       0.97786
   125    H   11  px     Ryd( 2p)     0.00079       2.71080
   126    H   11  py     Ryd( 2p)     0.00076       2.82673
   127    H   11  pz     Ryd( 2p)     0.00140       3.39663

   128    H   12  S      Val( 1S)     0.48133       0.38714
   129    H   12  S      Ryd( 2S)     0.00073       1.00188
   130    H   12  px     Ryd( 2p)     0.00090       2.68254
   131    H   12  py     Ryd( 2p)     0.00140       3.22135
   132    H   12  pz     Ryd( 2p)     0.00087       2.98857

   133    H   13  S      Val( 1S)     0.47211       0.39882
   134    H   13  S      Ryd( 2S)     0.00165       0.92841
   135    H   13  px     Ryd( 2p)     0.00058       2.65657
   136    H   13  py     Ryd( 2p)     0.00090       3.00987
   137    H   13  pz     Ryd( 2p)     0.00127       3.17117

   138    H   14  S      Val( 1S)     0.48210       0.37906
   139    H   14  S      Ryd( 2S)     0.00065       0.74572
   140    H   14  px     Ryd( 2p)     0.00129       3.07263
   141    H   14  py     Ryd( 2p)     0.00106       2.96436
   142    H   14  pz     Ryd( 2p)     0.00068       2.68329

   143    H   15  S      Val( 1S)     0.47848       0.41364
   144    H   15  S      Ryd( 2S)     0.00117       0.88150
   145    H   15  px     Ryd( 2p)     0.00062       2.79769
   146    H   15  py     Ryd( 2p)     0.00088       2.72266
   147    H   15  pz     Ryd( 2p)     0.00136       3.38677

   148    H   16  S      Val( 1S)     0.47953       0.40969
   149    H   16  S      Ryd( 2S)     0.00197       0.89313
   150    H   16  px     Ryd( 2p)     0.00152       3.27733
   151    H   16  py     Ryd( 2p)     0.00080       2.65634
   152    H   16  pz     Ryd( 2p)     0.00060       2.95138

   153    H   17  S      Val( 1S)     0.50810       0.32758
   154    H   17  S      Ryd( 2S)     0.00121       0.75475
   155    H   17  px     Ryd( 2p)     0.00072       2.76727
   156    H   17  py     Ryd( 2p)     0.00091       2.66784
   157    H   17  pz     Ryd( 2p)     0.00146       3.27084

   158    H   18  S      Val( 1S)     0.43737       0.43742
   159    H   18  S      Ryd( 2S)     0.00053       0.83728
   160    H   18  px     Ryd( 2p)     0.00157       3.23181
   161    H   18  py     Ryd( 2p)     0.00107       2.84843
   162    H   18  pz     Ryd( 2p)     0.00053       2.73529

   163    H   19  S      Val( 1S)     0.51334       0.41117
   164    H   19  S      Ryd( 2S)     0.00109       0.82536
   165    H   19  px     Ryd( 2p)     0.00111       2.90269
   166    H   19  py     Ryd( 2p)     0.00134       3.28754
   167    H   19  pz     Ryd( 2p)     0.00076       2.72146

   168    H   20  S      Val( 1S)     0.49341       0.44537
   169    H   20  S      Ryd( 2S)     0.00115       0.97958
   170    H   20  px     Ryd( 2p)     0.00094       2.84971
   171    H   20  py     Ryd( 2p)     0.00076       2.97130
   172    H   20  pz     Ryd( 2p)     0.00136       3.19596

   173    H   21  S      Val( 1S)     0.50927       0.34074
   174    H   21  S      Ryd( 2S)     0.00140       0.85380
   175    H   21  px     Ryd( 2p)     0.00121       2.86659
   176    H   21  py     Ryd( 2p)     0.00120       3.16817
   177    H   21  pz     Ryd( 2p)     0.00078       2.72634

   178    H   22  S      Val( 1S)     0.49496       0.35909
   179    H   22  S      Ryd( 2S)     0.00107       0.73766
   180    H   22  px     Ryd( 2p)     0.00084       2.66101
   181    H   22  py     Ryd( 2p)     0.00107       3.01076
   182    H   22  pz     Ryd( 2p)     0.00126       3.04787

   183    H   23  S      Val( 1S)     0.51747       0.38210
   184    H   23  S      Ryd( 2S)     0.00106       0.79495
   185    H   23  px     Ryd( 2p)     0.00062       2.71876
   186    H   23  py     Ryd( 2p)     0.00149       3.31738
   187    H   23  pz     Ryd( 2p)     0.00111       2.79687

   188    H   24  S      Val( 1S)     0.48822       0.42800
   189    H   24  S      Ryd( 2S)     0.00128       0.91709
   190    H   24  px     Ryd( 2p)     0.00160       3.49497
   191    H   24  py     Ryd( 2p)     0.00071       2.77518
   192    H   24  pz     Ryd( 2p)     0.00083       2.68271


 Summary of Natural Population Analysis:                  
                                                          
                                       Natural Population 
                Natural  -----------------------------------------------
    Atom  No    Charge         Core      Valence    Rydberg      Total
 -----------------------------------------------------------------------
      O    1   -1.04870      1.99986     7.03907    0.00977     9.04870
      O    2   -1.03073      1.99984     7.02155    0.00934     9.03073
      O    3   -1.04578      1.99985     7.03697    0.00895     9.04578
      O    4   -1.06031      1.99984     7.05198    0.00848     9.06031
      O    5   -1.02804      1.99986     7.01860    0.00958     9.02804
      O    6   -0.98976      1.99985     6.97941    0.01049     8.98976
      O    7   -0.98060      1.99986     6.97005    0.01070     8.98060
      O    8   -0.99142      1.99985     6.98086    0.01070     8.99142
      H    9    0.52899      0.00000     0.46750    0.00351     0.47101
      H   10    0.53376      0.00000     0.46237    0.00387     0.46624
      H   11    0.52320      0.00000     0.47273    0.00407     0.47680
      H   12    0.51477      0.00000     0.48133    0.00390     0.48523
      H   13    0.52348      0.00000     0.47211    0.00440     0.47652
      H   14    0.51421      0.00000     0.48210    0.00369     0.48579
      H   15    0.51750      0.00000     0.47848    0.00403     0.48250
      H   16    0.51558      0.00000     0.47953    0.00489     0.48442
      H   17    0.48760      0.00000     0.50810    0.00430     0.51240
      H   18    0.55893      0.00000     0.43737    0.00370     0.44107
      H   19    0.48236      0.00000     0.51334    0.00429     0.51764
      H   20    0.50238      0.00000     0.49341    0.00421     0.49762
      H   21    0.48614      0.00000     0.50927    0.00460     0.51386
      H   22    0.50080      0.00000     0.49496    0.00424     0.49920
      H   23    0.47825      0.00000     0.51747    0.00428     0.52175
      H   24    0.50736      0.00000     0.48822    0.00442     0.49264
 =======================================================================
   * Total *    0.00000     15.99881    63.85676    0.14443    80.00000

                                 Natural Population      
 --------------------------------------------------------
   Core                      15.99881 ( 99.9926% of  16)
   Valence                   63.85676 ( 99.7762% of  64)
   Natural Minimal Basis     79.85557 ( 99.8195% of  80)
   Natural Rydberg Basis      0.14443 (  0.1805% of  80)
 --------------------------------------------------------

    Atom  No          Natural Electron Configuration
 ----------------------------------------------------------------------------
      O    1      [core]2S( 1.76)2p( 5.28)3d( 0.01)
      O    2      [core]2S( 1.74)2p( 5.28)3d( 0.01)
      O    3      [core]2S( 1.75)2p( 5.29)3d( 0.01)
      O    4      [core]2S( 1.74)2p( 5.31)
      O    5      [core]2S( 1.76)2p( 5.26)3d( 0.01)
      O    6      [core]2S( 1.75)2p( 5.23)3d( 0.01)
      O    7      [core]2S( 1.75)2p( 5.22)3d( 0.01)
      O    8      [core]2S( 1.75)2p( 5.23)3d( 0.01)
      H    9            1S( 0.47)
      H   10            1S( 0.46)
      H   11            1S( 0.47)
      H   12            1S( 0.48)
      H   13            1S( 0.47)
      H   14            1S( 0.48)
      H   15            1S( 0.48)
      H   16            1S( 0.48)
      H   17            1S( 0.51)
      H   18            1S( 0.44)
      H   19            1S( 0.51)
      H   20            1S( 0.49)
      H   21            1S( 0.51)
      H   22            1S( 0.49)
      H   23            1S( 0.52)
      H   24            1S( 0.49)


 NBO analysis skipped by request.
 Leave Link  607 at Fri May 15 22:34:51 2020, MaxMem=   134217728 cpu:               0.8 elap:               0.2
 (Enter /home/soft/g16/l9999.exe)

 Test job not archived.
 1\1\GINC-MASTER\SP\RHF\6-31G(d,p)\H16O8\LIWEI01\15-May-2020\0\\#p hf/6
 -31g** 5d 7f pop=npa charge nosymm\\Atom number=24\\0,1\O,0,8.392325,-
 11.812941,-11.200483\O,0,7.250284,-9.859627,-13.103456\O,0,6.966193,-9
 .247795,-10.274305\O,0,10.084912,-9.602997,-13.69441\O,0,8.451586,-10.
 635579,-15.685931\O,0,4.039142,-11.224262,-12.80441\O,0,5.339755,-11.2
 12242,-15.474518\O,0,4.641258,-8.138278,-12.671145\H,0,8.175276,-12.53
 7815,-10.614239\H,0,9.252154,-11.5141,-10.904475\H,0,7.12066,-10.22147
 3,-13.980096\H,0,7.341484,-10.626744,-12.538261\H,0,6.975152,-9.845016
 ,-11.022289\H,0,7.684375,-8.638472,-10.445098\H,0,9.837963,-9.877914,-
 14.577398\H,0,9.267108,-9.62837,-13.197635\H,0,8.125035,-10.406856,-16
 .556152\H,0,9.262189,-11.116608,-15.852568\H,0,4.524844,-12.047609,-12
 .755179\H,0,4.432119,-10.757539,-13.541956\H,0,5.880078,-10.458674,-15
 .712045\H,0,5.489557,-11.8457,-16.176318\H,0,4.597809,-7.272042,-12.26
 6198\H,0,5.576498,-8.338407,-12.709967\\Version=ES64L-G16RevA.03\HF=-6
 19.8865701\RMSD=8.625e-09\Dipole=2.5436889,-1.6970895,-2.6346499\Quadr
 upole=-42.8779097,-14.6250298,57.5029395,-77.269068,-94.1830529,93.261
 0182\PG=C01 [X(H16O8)]\\@


 IF MATHEMATICALLY YOU END UP WITH THE INCORRECT ANSWER,
 TRY MULTIPLYING BY THE PAGE NUMBER.
 Job cpu time:       0 days  0 hours  0 minutes 22.3 seconds.
 Elapsed time:       0 days  0 hours  0 minutes  5.7 seconds.
 File lengths (MBytes):  RWF=     80 Int=      0 D2E=      0 Chk=      8 Scr=      8
 Normal termination of Gaussian 16 at Fri May 15 22:34:51 2020.
