Atom number=9                                                           
SP        RHF                                                         6-31G(d,p)          
Number of atoms                            I                9
Info1-9                                    I   N=           9
         107         106           0           0           0         111
           1           1           2
Full Title                                 C   N=           2
Atom number=9           
Route                                      C   N=           4
#p hf/6-31g** 5d 7f pop=npa charge nosymm       
Charge                                     I                0
Multiplicity                               I                1
Number of electrons                        I               30
Number of alpha electrons                  I               15
Number of beta electrons                   I               15
Number of basis functions                  I               72
Number of independent functions            I               72
Number of point charges in /Mol/           I                0
Number of translation vectors              I                0
Atomic numbers                             I   N=           9
           8           8           8           1           1           1
           1           1           1
Nuclear charges                            R   N=           9
  8.00000000E+00  8.00000000E+00  8.00000000E+00  1.00000000E+00  1.00000000E+00
  1.00000000E+00  1.00000000E+00  1.00000000E+00  1.00000000E+00
Current cartesian coordinates              R   N=          27
  2.45589393E+01 -2.78051467E+01 -2.11838979E+01  2.16779838E+01 -2.90173418E+01
 -1.42069912E+01  2.14001128E+01 -3.21472498E+01 -2.03386876E+01  2.32179689E+01
 -2.86518083E+01 -2.03139039E+01  2.57676610E+01 -2.74243858E+01 -1.98931866E+01
  2.05307462E+01 -2.90181619E+01 -1.56054812E+01  2.25019856E+01 -2.74096119E+01
 -1.42973126E+01  2.21410612E+01 -3.37567560E+01 -1.99748058E+01  1.97339942E+01
 -3.22469688E+01 -1.96415299E+01
Number of symbols in /Mol/                 I                0
Force Field                                I                0
Atom Types                                 C   N=           9
                                                            
                                                
Int Atom Types                             I   N=           9
           0           0           0           0           0           0
           0           0           0
MM charges                                 R   N=           9
  0.00000000E+00  0.00000000E+00  0.00000000E+00  0.00000000E+00  0.00000000E+00
  0.00000000E+00  0.00000000E+00  0.00000000E+00  0.00000000E+00
Integer atomic weights                     I   N=           9
          16          16          16           1           1           1
           1           1           1
Real atomic weights                        R   N=           9
  1.59949146E+01  1.59949146E+01  1.59949146E+01  1.00782504E+00  1.00782504E+00
  1.00782504E+00  1.00782504E+00  1.00782504E+00  1.00782504E+00
Atom fragment info                         I   N=           9
           0           0           0           0           0           0
           0           0           0
Atom residue num                           I   N=           9
           0           0           0           0           0           0
           0           0           0
Nuclear spins                              I   N=           9
           0           0           0           1           1           1
           1           1           1
Nuclear ZEff                               R   N=           9
 -5.60000000E+00 -5.60000000E+00 -5.60000000E+00 -1.00000000E+00 -1.00000000E+00
 -1.00000000E+00 -1.00000000E+00 -1.00000000E+00 -1.00000000E+00
Nuclear ZNuc                               R   N=           9
  8.00000000E+00  8.00000000E+00  8.00000000E+00  1.00000000E+00  1.00000000E+00
  1.00000000E+00  1.00000000E+00  1.00000000E+00  1.00000000E+00
Nuclear QMom                               R   N=           9
  0.00000000E+00  0.00000000E+00  0.00000000E+00  0.00000000E+00  0.00000000E+00
  0.00000000E+00  0.00000000E+00  0.00000000E+00  0.00000000E+00
Nuclear GFac                               R   N=           9
  0.00000000E+00  0.00000000E+00  0.00000000E+00  2.79284600E+00  2.79284600E+00
  2.79284600E+00  2.79284600E+00  2.79284600E+00  2.79284600E+00
MicOpt                                     I   N=           9
          -1          -1          -1          -1          -1          -1
          -1          -1          -1
Number of residues                         I                0
Number of secondary structures             I                0
Number of contracted shells                I               30
Number of primitive shells                 I               63
Pure/Cartesian d shells                    I                0
Pure/Cartesian f shells                    I                0
Highest angular momentum                   I                2
Largest degree of contraction              I                6
Shell types                                I   N=          30
           0          -1          -1          -2           0          -1
          -1          -2           0          -1          -1          -2
           0           0           1           0           0           1
           0           0           1           0           0           1
           0           0           1           0           0           1
Number of primitives per shell             I   N=          30
           6           3           1           1           6           3
           1           1           6           3           1           1
           3           1           1           3           1           1
           3           1           1           3           1           1
           3           1           1           3           1           1
Shell to atom map                          I   N=          30
           1           1           1           1           2           2
           2           2           3           3           3           3
           4           4           4           5           5           5
           6           6           6           7           7           7
           8           8           8           9           9           9
Primitive exponents                        R   N=          63
  5.48467166E+03  8.25234946E+02  1.88046958E+02  5.29645000E+01  1.68975704E+01
  5.79963534E+00  1.55396162E+01  3.59993359E+00  1.01376175E+00  2.70005823E-01
  8.00000000E-01  5.48467166E+03  8.25234946E+02  1.88046958E+02  5.29645000E+01
  1.68975704E+01  5.79963534E+00  1.55396162E+01  3.59993359E+00  1.01376175E+00
  2.70005823E-01  8.00000000E-01  5.48467166E+03  8.25234946E+02  1.88046958E+02
  5.29645000E+01  1.68975704E+01  5.79963534E+00  1.55396162E+01  3.59993359E+00
  1.01376175E+00  2.70005823E-01  8.00000000E-01  1.87311370E+01  2.82539436E+00
  6.40121692E-01  1.61277759E-01  1.10000000E+00  1.87311370E+01  2.82539436E+00
  6.40121692E-01  1.61277759E-01  1.10000000E+00  1.87311370E+01  2.82539436E+00
  6.40121692E-01  1.61277759E-01  1.10000000E+00  1.87311370E+01  2.82539436E+00
  6.40121692E-01  1.61277759E-01  1.10000000E+00  1.87311370E+01  2.82539436E+00
  6.40121692E-01  1.61277759E-01  1.10000000E+00  1.87311370E+01  2.82539436E+00
  6.40121692E-01  1.61277759E-01  1.10000000E+00
Contraction coefficients                   R   N=          63
  1.83107443E-03  1.39501722E-02  6.84450781E-02  2.32714336E-01  4.70192898E-01
  3.58520853E-01 -1.10777550E-01 -1.48026263E-01  1.13076702E+00  1.00000000E+00
  1.00000000E+00  1.83107443E-03  1.39501722E-02  6.84450781E-02  2.32714336E-01
  4.70192898E-01  3.58520853E-01 -1.10777550E-01 -1.48026263E-01  1.13076702E+00
  1.00000000E+00  1.00000000E+00  1.83107443E-03  1.39501722E-02  6.84450781E-02
  2.32714336E-01  4.70192898E-01  3.58520853E-01 -1.10777550E-01 -1.48026263E-01
  1.13076702E+00  1.00000000E+00  1.00000000E+00  3.34946043E-02  2.34726953E-01
  8.13757326E-01  1.00000000E+00  1.00000000E+00  3.34946043E-02  2.34726953E-01
  8.13757326E-01  1.00000000E+00  1.00000000E+00  3.34946043E-02  2.34726953E-01
  8.13757326E-01  1.00000000E+00  1.00000000E+00  3.34946043E-02  2.34726953E-01
  8.13757326E-01  1.00000000E+00  1.00000000E+00  3.34946043E-02  2.34726953E-01
  8.13757326E-01  1.00000000E+00  1.00000000E+00  3.34946043E-02  2.34726953E-01
  8.13757326E-01  1.00000000E+00  1.00000000E+00
P(S=P) Contraction coefficients            R   N=          63
  0.00000000E+00  0.00000000E+00  0.00000000E+00  0.00000000E+00  0.00000000E+00
  0.00000000E+00  7.08742682E-02  3.39752839E-01  7.27158577E-01  1.00000000E+00
  0.00000000E+00  0.00000000E+00  0.00000000E+00  0.00000000E+00  0.00000000E+00
  0.00000000E+00  0.00000000E+00  7.08742682E-02  3.39752839E-01  7.27158577E-01
  1.00000000E+00  0.00000000E+00  0.00000000E+00  0.00000000E+00  0.00000000E+00
  0.00000000E+00  0.00000000E+00  0.00000000E+00  7.08742682E-02  3.39752839E-01
  7.27158577E-01  1.00000000E+00  0.00000000E+00  0.00000000E+00  0.00000000E+00
  0.00000000E+00  0.00000000E+00  0.00000000E+00  0.00000000E+00  0.00000000E+00
  0.00000000E+00  0.00000000E+00  0.00000000E+00  0.00000000E+00  0.00000000E+00
  0.00000000E+00  0.00000000E+00  0.00000000E+00  0.00000000E+00  0.00000000E+00
  0.00000000E+00  0.00000000E+00  0.00000000E+00  0.00000000E+00  0.00000000E+00
  0.00000000E+00  0.00000000E+00  0.00000000E+00  0.00000000E+00  0.00000000E+00
  0.00000000E+00  0.00000000E+00  0.00000000E+00
Coordinates of each shell                  R   N=          90
  2.45589393E+01 -2.78051467E+01 -2.11838979E+01  2.45589393E+01 -2.78051467E+01
 -2.11838979E+01  2.45589393E+01 -2.78051467E+01 -2.11838979E+01  2.45589393E+01
 -2.78051467E+01 -2.11838979E+01  2.16779838E+01 -2.90173418E+01 -1.42069912E+01
  2.16779838E+01 -2.90173418E+01 -1.42069912E+01  2.16779838E+01 -2.90173418E+01
 -1.42069912E+01  2.16779838E+01 -2.90173418E+01 -1.42069912E+01  2.14001128E+01
 -3.21472498E+01 -2.03386876E+01  2.14001128E+01 -3.21472498E+01 -2.03386876E+01
  2.14001128E+01 -3.21472498E+01 -2.03386876E+01  2.14001128E+01 -3.21472498E+01
 -2.03386876E+01  2.32179689E+01 -2.86518083E+01 -2.03139039E+01  2.32179689E+01
 -2.86518083E+01 -2.03139039E+01  2.32179689E+01 -2.86518083E+01 -2.03139039E+01
  2.57676610E+01 -2.74243858E+01 -1.98931866E+01  2.57676610E+01 -2.74243858E+01
 -1.98931866E+01  2.57676610E+01 -2.74243858E+01 -1.98931866E+01  2.05307462E+01
 -2.90181619E+01 -1.56054812E+01  2.05307462E+01 -2.90181619E+01 -1.56054812E+01
  2.05307462E+01 -2.90181619E+01 -1.56054812E+01  2.25019856E+01 -2.74096119E+01
 -1.42973126E+01  2.25019856E+01 -2.74096119E+01 -1.42973126E+01  2.25019856E+01
 -2.74096119E+01 -1.42973126E+01  2.21410612E+01 -3.37567560E+01 -1.99748058E+01
  2.21410612E+01 -3.37567560E+01 -1.99748058E+01  2.21410612E+01 -3.37567560E+01
 -1.99748058E+01  1.97339942E+01 -3.22469688E+01 -1.96415299E+01  1.97339942E+01
 -3.22469688E+01 -1.96415299E+01  1.97339942E+01 -3.22469688E+01 -1.96415299E+01
Num ILSW                                   I              100
ILSW                                       I   N=         100
           0           0           0           0           2           0
           0           0           0           0           0          -1
           5           0           0           0           0           0
           0           0           0           0           0           0
           1           1           0           0           0           0
           0           0      100000           0          -1           0
           0           0           0           0           0           0
           0           0           0           1           0           0
           0 -2000000000           1           0           0           0
           0           0           4          52           0           0
           0           1           0           0           0           0
           0           0           0           9           0           1
           0           0           0           0           0           0
           0           0           0           0           0           0
           0           0           0           0           0           0
           0           0           0           0           0           0
           0           0           0           0
Num RLSW                                   I               52
RLSW                                       R   N=          52
  1.00000000E+00  1.00000000E+00  1.00000000E+00  1.00000000E+00  1.00000000E+00
  0.00000000E+00  0.00000000E+00  1.00000000E+00  0.00000000E+00  0.00000000E+00
  0.00000000E+00  0.00000000E+00  1.00000000E+00  0.00000000E+00  0.00000000E+00
  0.00000000E+00  0.00000000E+00  1.00000000E+00  0.00000000E+00  0.00000000E+00
  0.00000000E+00  0.00000000E+00  1.00000000E+00  0.00000000E+00  0.00000000E+00
  0.00000000E+00  0.00000000E+00  1.00000000E+00  0.00000000E+00  0.00000000E+00
  0.00000000E+00  0.00000000E+00  1.00000000E+00  0.00000000E+00  0.00000000E+00
  0.00000000E+00  0.00000000E+00  0.00000000E+00  1.00000000E+00  1.00000000E+00
  0.00000000E+00  1.00000000E+00  0.00000000E+00  0.00000000E+00  0.00000000E+00
  0.00000000E+00  0.00000000E+00  0.00000000E+00  0.00000000E+00  0.00000000E+00
  0.00000000E+00  0.00000000E+00
MxBond                                     I                2
NBond                                      I   N=           9
           2           2           2           1           1           1
           1           1           1
IBond                                      I   N=          18
           4           5           6           7           8           9
           1           0           1           0           2           0
           2           0           3           0           3           0
RBond                                      R   N=          18
  1.00000000E+00  1.00000000E+00  1.00000000E+00  1.00000000E+00  1.00000000E+00
  1.00000000E+00  1.00000000E+00  0.00000000E+00  1.00000000E+00  0.00000000E+00
  1.00000000E+00  0.00000000E+00  1.00000000E+00  0.00000000E+00  1.00000000E+00
  0.00000000E+00  1.00000000E+00  0.00000000E+00
Virial Ratio                               R      2.063988250188139E+00
SCF Energy                                 R     -2.422853759881357E+02
Total Energy                               R     -2.422853759881357E+02
RMS Density                                R      7.788880557766667E-09
Job Status                                 I                1
Nuclear derivative order                   I                0
External E-field                           R   N=          35
  0.00000000E+00  0.00000000E+00  0.00000000E+00  0.00000000E+00  0.00000000E+00
  0.00000000E+00  0.00000000E+00  0.00000000E+00  0.00000000E+00  0.00000000E+00
  0.00000000E+00  0.00000000E+00  0.00000000E+00  0.00000000E+00  0.00000000E+00
  0.00000000E+00  0.00000000E+00  0.00000000E+00  0.00000000E+00  0.00000000E+00
  0.00000000E+00  0.00000000E+00  0.00000000E+00  0.00000000E+00  0.00000000E+00
  0.00000000E+00  0.00000000E+00  0.00000000E+00  0.00000000E+00  0.00000000E+00
  0.00000000E+00  0.00000000E+00  0.00000000E+00  0.00000000E+00  0.00000000E+00
IOpCl                                      I                0
IROHF                                      I                0
Alpha Orbital Energies                     R   N=          72
 -2.05707347E+01 -2.05622804E+01 -2.05583615E+01 -1.35446357E+00 -1.34544750E+00
 -1.34118181E+00 -7.15566506E-01 -7.09547031E-01 -7.05705045E-01 -5.90130590E-01
 -5.76735487E-01 -5.68754745E-01 -5.11692509E-01 -5.03501801E-01 -4.98124926E-01
  1.74280540E-01  2.27939617E-01  2.49024253E-01  3.18080167E-01  3.54307873E-01
  3.87276270E-01  9.80490110E-01  1.00594460E+00  1.01141578E+00  1.05707778E+00
  1.10026366E+00  1.10977142E+00  1.13379768E+00  1.14364139E+00  1.17774967E+00
  1.19466420E+00  1.21947710E+00  1.28592633E+00  1.29741816E+00  1.30823897E+00
  1.35141015E+00  1.57336906E+00  1.60763046E+00  1.71226780E+00  1.79231400E+00
  1.79821584E+00  1.80149863E+00  1.82626596E+00  1.83005366E+00  1.86018100E+00
  1.91267718E+00  1.91994404E+00  1.99776483E+00  2.55701086E+00  2.57914863E+00
  2.58050604E+00  2.58592634E+00  2.59233219E+00  2.62912476E+00  2.79948135E+00
  2.81031831E+00  2.82058373E+00  2.96888820E+00  2.97587157E+00  2.97656453E+00
  2.98791993E+00  2.99465004E+00  3.02484091E+00  3.37570534E+00  3.37921820E+00
  3.38890937E+00  3.74919281E+00  3.75872289E+00  3.77795048E+00  3.91718833E+00
  3.93321578E+00  3.97369260E+00
Alpha MO coefficients                      R   N=        5184
  1.61885051E-04  1.82576015E-04 -2.63051267E-05  2.01358308E-05  7.94051457E-06
 -7.36663647E-04  3.62209734E-04  1.65515404E-04 -1.82597346E-04  1.64141521E-05
  3.78109537E-05  3.58209294E-05 -1.93047355E-05 -6.88064344E-05 -6.35766715E-05
 -1.47937518E-05  7.57017571E-06 -1.98141962E-06 -8.57046537E-06  8.58901205E-05
 -2.96378873E-05  1.33590235E-05  5.20348138E-06 -3.62281310E-06  4.05331869E-06
  1.30038794E-06 -1.78101379E-07  2.21151426E-07  9.95703394E-01  2.20567685E-02
 -7.90990415E-04 -1.50964674E-03  1.02111213E-03 -5.99078876E-03  2.66254126E-04
  4.02893180E-04 -4.37974488E-04 -2.72819967E-04 -1.84654477E-04 -1.37683502E-04
  9.73833658E-05 -2.70852889E-04  3.35080909E-05  1.04126763E-03  8.49124066E-05
 -2.33588992E-05 -9.16880423E-05  6.85891021E-05 -1.97608868E-04 -6.58979507E-06
  7.76442499E-06  8.92064081E-06  1.43525473E-05 -1.19463707E-04 -7.06917496E-06
  6.08641662E-06 -1.37291996E-07  1.05146686E-05 -3.38959897E-05  4.96705160E-06
  5.14066415E-06 -5.04202894E-06 -5.82501253E-04  1.15296418E-03  4.63267672E-04
 -1.06774113E-03  2.70594320E-04 -5.30188628E-04  1.19045275E-03 -1.06008586E-03
 -8.35023815E-05  4.70853424E-04 -2.64651435E-04 -4.54838319E-05 -7.46337406E-08
  3.93757422E-06  6.67535934E-06  1.72226483E-04 -4.64171518E-05 -4.01938220E-05
  2.64503247E-05 -2.53353636E-06 -9.57528435E-06 -7.74531438E-06  5.01559967E-06
  9.05573914E-06  9.95708741E-01  2.19832811E-02 -3.70962628E-04  1.50430539E-03
 -1.40246482E-03 -6.01053106E-03  2.01149652E-04 -6.92921123E-04  6.78761683E-04
 -5.08310044E-05  3.07448032E-04  2.19577764E-07 -5.16173671E-05  2.89452080E-04
  6.03344458E-05 -1.81031825E-05  1.21855764E-06  4.26275409E-06  2.02556024E-05
  1.23507773E-04 -5.41060636E-05 -2.07381658E-06 -3.69437886E-05 -1.60268764E-05
 -1.72468420E-06 -8.22202521E-06  2.21538385E-06  4.58660747E-06  9.93698837E-07
 -1.84220159E-04 -2.15074196E-05 -1.66220231E-05  6.82918915E-06  8.29756571E-06
 -3.09648856E-05  5.69169514E-06  3.86355546E-06  3.07685281E-06 -5.29148652E-04
  1.38978822E-03 -7.10732916E-04  5.85361243E-05 -9.08626941E-04 -5.13322354E-04
  1.24004787E-03  4.85500480E-04  1.03715949E-03 -1.11578957E-04 -1.53976460E-05
  4.83256910E-05 -3.39307379E-07  1.66697196E-06  1.03695042E-05  4.30511250E-05
 -2.25218458E-04 -2.90839040E-05 -6.54616180E-06  1.15964286E-05  9.95716315E-01
  2.21035778E-02 -9.06886817E-05 -3.48677607E-04  2.05479631E-03 -6.47584303E-03
  3.33901600E-04  3.23326479E-04 -1.07972383E-03  1.98500345E-05  1.34904347E-04
 -8.85736637E-06  2.28137588E-04  2.86103199E-04  2.57613075E-04 -4.26533432E-05
  1.83686078E-05  1.17106002E-06 -2.57988058E-05  2.59321432E-04 -9.80312797E-05
  1.88296945E-05 -1.22384236E-05 -1.70038681E-06  2.26548867E-05  4.24870275E-06
  4.39378379E-06 -4.33304830E-06 -1.42977060E-04  1.33823301E-04  2.51379602E-05
  8.13325192E-05  1.51332506E-05 -2.57528516E-04 -2.98769789E-05 -4.82754724E-04
 -4.00193563E-05  1.90426937E-05  2.14509070E-05 -3.07427353E-05 -1.99368869E-05
 -6.04621331E-05 -4.69708966E-04  1.99999479E-03 -7.26191702E-04 -4.96580514E-04
  5.32449924E-04 -4.95683227E-04  1.13275439E-03  7.49362874E-04  2.22272191E-04
  9.03926229E-04  3.48587334E-05 -2.88744528E-04 -3.07577407E-05 -9.01561406E-07
 -3.70095431E-05  3.94251097E-05 -1.06978071E-04  1.48618405E-05  1.28614668E-05
 -8.12136781E-06 -9.71957215E-05 -1.61672748E-04  4.05402707E-05 -2.64961465E-05
  2.24109050E-05  7.84627769E-05 -1.66857298E-06  2.68938505E-05  6.04266165E-05
  6.76421060E-08 -6.35708740E-02  1.39868229E-01 -3.16063385E-03 -6.57452588E-03
  2.44912174E-02  1.33060158E-01 -2.85115032E-03 -2.99556091E-03  9.66885804E-03
  6.29811675E-04 -2.22453865E-04 -5.86058348E-04  4.02947851E-04  9.81630662E-04
 -1.40314354E-02  3.14761613E-02 -1.11769789E-03  3.81219612E-03 -3.97015274E-03
  2.67263011E-02  6.02230737E-04  1.22857739E-03 -1.04863238E-03  2.59453556E-05
 -9.35415118E-06 -1.37347806E-04 -1.14123406E-04  1.97316410E-05 -2.02046432E-01
  4.46759391E-01 -3.08780995E-02 -5.80658460E-02  3.80368025E-02  4.23349684E-01
 -1.19558771E-02 -1.82576478E-02  1.61140351E-02 -2.52917617E-03 -1.78120763E-03
 -1.99866997E-03 -1.12131080E-03  8.16294454E-04  4.64441958E-02  8.79588355E-04
  5.70796044E-03  3.58931085E-03 -2.85086025E-03  4.29937680E-02  5.06986759E-03
 -5.60252847E-03 -1.84560146E-03 -5.10093270E-03  9.81599226E-03  5.23044539E-03
  1.41472639E-03  4.53650025E-05  1.47934485E-03  9.26112112E-03  3.28410520E-04
 -9.93853646E-04 -1.55280750E-03 -3.58360750E-05  1.37436283E-01  1.11753334E-02
 -1.20733166E-02  2.14634079E-02 -3.99991288E-03  1.33778300E-01  4.96774597E-03
  2.34624328E-02 -8.90062606E-04 -9.46139994E-03 -1.46552460E-04  1.20761291E-03
 -1.20720534E-05  5.51531344E-05  1.70824202E-04 -3.20525377E-03  1.13881298E-03
  8.80101803E-04 -6.01324428E-04  5.95183227E-05  1.54511249E-04  1.22800732E-04
 -7.91298256E-05 -2.03670843E-04 -2.11951167E-01  4.68021823E-01 -1.39915728E-02
  5.96427663E-02 -5.52340493E-02  4.45368627E-01 -8.14821170E-03  2.48294691E-02
 -2.13040300E-02  2.32208777E-04  2.21828083E-03 -2.42178092E-03 -1.34503809E-03
  7.76698888E-04  1.52719389E-02 -3.36270219E-02  2.40314777E-03  4.82293833E-03
 -2.67729558E-03 -3.29966828E-02  1.07248573E-03  1.25117976E-03 -3.40238307E-04
  3.10916444E-04  1.13084694E-04  1.70800210E-04  1.13143812E-04 -1.20388740E-04
 -2.17466000E-07  4.32043520E-03  4.22131823E-04  2.82200001E-04 -1.93804376E-04
  1.85040666E-04  6.17195540E-04 -1.24752130E-04 -5.55922335E-05 -6.28705748E-05
  1.44670392E-01  1.04384278E-02  1.70446656E-02  2.24653055E-03  1.96811684E-02
  1.40073820E-01  5.72336560E-03 -1.38784184E-02 -2.30012160E-02 -9.49011942E-04
 -1.06236099E-02 -1.02273298E-03  9.48054691E-04 -1.63922507E-03  2.33902550E-04
 -1.04457261E-02  1.17888872E-03 -1.69465280E-03  1.15648940E-04  6.40187320E-04
 -2.02567033E-01  4.48084847E-01 -3.53913605E-03 -1.44864715E-02  7.70714331E-02
  4.24227368E-01 -3.27880925E-03 -3.24314173E-03  3.06109337E-02  2.81111023E-03
  2.03988573E-04 -1.02205172E-03  1.71107243E-03  1.69945971E-03  4.93998558E-03
 -1.04727366E-02  3.72955640E-04 -1.31434444E-03  1.27064309E-03 -1.22818421E-02
  5.83964792E-04 -8.12879811E-04  5.91456421E-04  2.98276689E-06 -1.51029206E-04
  3.35831264E-05  2.41018575E-05 -3.35327559E-05  6.46568110E-02 -1.44119871E-01
  1.23922715E-02  2.25358693E-02 -1.28059740E-02 -1.33784695E-01  5.93036460E-03
  1.06115035E-02 -5.50864012E-03  4.32467992E-04  5.10974893E-04  7.10244270E-04
  1.90119287E-04  3.91424552E-04  1.33546310E-01  1.66837507E-03  1.93702718E-02
  1.26971333E-02 -9.62421259E-03  1.40464731E-01  1.42267800E-02 -1.78797255E-02
 -5.85466912E-03 -1.63154229E-02 -3.54272182E-03  1.20131767E-03 -2.84954118E-04
 -5.06537398E-06 -2.47501174E-04 -3.37051060E-03  1.31016507E-03  2.29149736E-04
  3.99993187E-04  3.43589737E-05 -4.53230614E-02 -2.72875747E-03  3.92296182E-03
 -6.94133846E-03  1.27477806E-03 -4.44965701E-02 -1.69279412E-03 -7.79553430E-03
  2.15140285E-04  3.14431703E-03 -1.34333166E-04 -6.61233164E-05  1.08283830E-01
  4.80502048E-02  1.26459211E-02  7.45760834E-04  6.03525930E-02  2.48138598E-02
  6.36785843E-03  1.54322977E-03  6.83385257E-03  2.91825530E-03 -1.94905851E-04
 -1.34361933E-03 -1.93201251E-03  3.47569124E-03  7.25705219E-02  5.83578798E-02
  5.19104391E-02  1.21536267E-02  3.95102094E-02  3.36414066E-02  2.81138188E-02
 -3.64975110E-03 -3.64983884E-03 -1.68667427E-04 -3.65215620E-03  2.75395643E-03
  3.25120228E-03 -5.70981060E-03  3.87747701E-01 -2.75496669E-01 -5.05978660E-02
 -2.24840043E-02  2.21123983E-01 -1.58446040E-01 -2.96039929E-02 -3.36231617E-03
  1.42476281E-02 -6.29906123E-03 -2.29286850E-02 -1.27092648E-02 -5.80497856E-02
 -3.35434376E-02 -2.52701088E-03 -3.02524103E-03  3.79653090E-03  5.64803295E-02
  3.47743819E-02 -1.90523915E-03  2.56656607E-05 -4.87020852E-03 -5.24143298E-02
 -3.49468892E-02 -2.45548521E-03  1.70158067E-03 -3.73293939E-03  4.83745009E-02
  2.23895316E-02 -1.43957500E-03 -4.41492534E-03  1.50314554E-03  2.34671163E-01
  1.21439682E-01 -2.44199192E-03  1.96897555E-02 -7.46044151E-03 -2.12303456E-01
 -9.90947593E-02 -1.63207974E-02 -8.45852873E-03  1.04312275E-02  1.39607554E-03
 -2.71266454E-03  4.17927527E-01  2.07974561E-01  6.09370273E-02 -1.33717869E-02
  2.33539168E-01  1.16631926E-01  3.07741023E-02  6.87601314E-03  2.65568277E-02
  1.25111917E-02  8.94168935E-04 -5.15471574E-03 -8.24094241E-04  1.55977670E-03
  3.15176182E-02  2.58222375E-02  2.38305366E-02  4.84056378E-03  1.73480838E-02
  1.50017414E-02  1.33938885E-02 -1.69897833E-03 -1.58436071E-03 -2.31263430E-05
 -1.61556560E-03  1.22910390E-03  5.01419034E-03 -1.21678042E-02 -1.63524960E-01
 -4.94001767E-03  3.61137597E-02 -2.32877677E-02 -9.77411846E-02 -9.97189711E-03
  2.18562699E-02  1.06180622E-04 -5.60607598E-03 -5.21109675E-04  6.21173464E-03
  4.60003281E-03 -2.21481502E-01 -1.11957555E-01 -1.11104762E-02 -9.88795530E-03
  1.51117830E-02  2.26597672E-01  1.33238198E-01 -7.72153013E-03  5.26431876E-04
 -1.89693796E-02 -2.29270807E-02 -1.39562323E-02 -1.13286118E-03  5.90663754E-04
 -1.73736189E-03  2.13905484E-02  9.34849664E-03 -5.94709129E-04 -1.89098501E-03
  6.98501519E-04 -4.03805867E-02 -2.36083268E-02 -2.76199936E-03 -4.38734348E-03
  1.90781835E-03  8.93562805E-02  3.92227195E-02  7.39951420E-03  1.62987508E-04
 -4.32384374E-03 -4.24579278E-04  1.33234837E-03 -6.53516244E-02 -3.09505746E-02
 -1.00411834E-02  1.10386740E-03 -3.70958164E-02 -1.70372319E-02 -5.79942177E-03
 -1.09826136E-03 -4.18671397E-03 -1.85277201E-03 -1.01080957E-04  7.41272268E-04
 -2.72621964E-03  5.26495480E-03  3.39037980E-01  2.78382964E-01  2.22771690E-01
  1.81932960E-02  1.94778580E-01  1.62731915E-01  1.25130692E-01 -1.66146315E-02
 -1.76591892E-02 -1.35940425E-03 -1.76025666E-02  1.29146631E-02 -2.46650774E-03
  5.49687824E-03 -7.43866844E-02  5.88342278E-02 -8.03004027E-04  1.17924632E-02
 -4.33412017E-02  3.34782944E-02 -2.74582167E-03  1.96201792E-04 -2.57535910E-03
  1.46143339E-03  4.58082351E-03  2.57378986E-03  3.39638196E-02  1.80836342E-02
  1.74830711E-03  1.66960550E-03 -2.48974149E-03 -3.50656084E-02 -1.92836081E-02
  1.06375376E-03 -7.95388669E-05  2.84917798E-03 -2.33892991E-01 -1.23407462E-01
 -9.37852174E-03  7.08754268E-03 -1.75191616E-02  2.26538710E-01  1.01117281E-01
 -6.78970976E-03 -2.02074298E-02  6.43710236E-03 -4.79568764E-02 -2.60270583E-02
  7.01724090E-04 -3.99893220E-03  1.28626099E-03  3.94663188E-02  1.59348599E-02
  2.82196388E-03  1.69665489E-03 -2.28058395E-03  4.42660154E-02 -1.01960577E-01
  8.90130462E-02 -6.19279026E-02  2.84930353E-01 -2.00201220E-01  5.72718271E-02
 -5.38267641E-02  1.94890779E-01  1.32047776E-02  5.78403407E-03 -3.47236592E-03
 -1.45571600E-04  2.05687759E-03  7.37898196E-03 -1.60245726E-02  1.24384896E-04
  3.58753161E-02 -4.05502536E-02 -3.79873388E-02  4.57763994E-03  2.57496505E-02
 -2.79533571E-02  5.53865214E-04  8.39978880E-05 -2.34895067E-03 -1.30613940E-03
  2.39078523E-05 -5.35213877E-02  1.25988614E-01  2.09904939E-01  3.56421674E-01
 -1.82828513E-01  2.33402854E-01  1.49634452E-01  2.53065923E-01 -1.23922853E-01
  5.23968064E-03  9.16402259E-03  1.45652275E-02  5.77275128E-03 -9.45310794E-03
  3.94490160E-02  5.05796143E-02  4.90259531E-03 -1.11401565E-03  5.95966148E-03
  1.21287572E-01  7.90040516E-02 -8.12673546E-03 -4.72419444E-03 -2.52645380E-03
  1.29116823E-02  2.05097752E-02  1.83936285E-03  1.14962692E-03  8.05326524E-04
  1.35742077E-02  7.88724010E-03 -1.15233855E-03 -8.00402371E-04 -1.18308106E-03
 -1.15606481E-01 -6.66945241E-02  1.35368189E-02 -3.91979560E-03 -2.46402469E-03
 -1.19785824E-01 -5.89591531E-02 -1.04641685E-02  9.74031352E-03  1.90806677E-03
  6.07282539E-03 -1.27943760E-02 -2.28814894E-02 -5.65681207E-03  5.27381286E-02
 -3.25509743E-02 -1.39220791E-02 -2.75414635E-04  3.85870991E-02  2.81300419E-03
 -1.06919535E-03 -4.69952888E-04  3.16189586E-04 -1.24415245E-05  6.71017801E-02
 -1.59916970E-01 -6.65935105E-02  3.92795401E-01 -3.66936335E-01 -2.85797069E-01
 -4.35284931E-02  2.86800306E-01 -2.64694189E-01  4.08031087E-03  8.64274573E-03
 -2.24134844E-02 -1.21648747E-02 -2.40098569E-03  1.31163354E-02 -3.12648400E-02
 -3.20111010E-02 -7.21097132E-02  6.64485131E-02 -5.38873235E-02 -2.59337611E-02
 -5.35528963E-02  4.90540971E-02 -4.22234513E-04 -2.21058252E-03 -3.66032593E-03
 -1.36845943E-03  1.50832033E-03  1.84364538E-02  1.56715440E-02  2.28315525E-03
  2.16366244E-03  2.06965082E-04  7.39836446E-03  6.96549194E-03 -1.60848474E-03
 -5.20328544E-04  8.30972937E-04  1.40638661E-01  8.44436318E-02  9.98735809E-03
  1.21052142E-02  4.05400816E-03  1.37794922E-01  6.43467421E-02 -1.21256683E-02
 -6.64151422E-03 -1.01621254E-02  2.80045263E-02  1.50624895E-02 -2.41642109E-03
  1.20069770E-03  1.31241964E-03  2.36109838E-02  8.42219808E-03  1.91030669E-03
 -1.75648269E-03  8.22229898E-04  5.28404467E-02 -1.25662204E-01 -9.01471387E-02
 -1.01053861E-01  4.48712251E-01 -2.24748635E-01 -6.72984401E-02 -7.03074336E-02
  3.29544488E-01  2.15891949E-02 -5.19033264E-03 -7.52668457E-03  2.40155713E-03
  3.40541321E-03 -1.18803712E-02  2.96912219E-02  2.66315161E-02 -8.01458519E-02
  6.33337577E-02  4.46539476E-02  1.96389380E-02 -6.19258970E-02  4.44484573E-02