Atom number=6                                                           
SP        RHF                                                         6-31G(d,p)          
Number of atoms                            I                6
Info1-9                                    I   N=           9
         107         106           0           0           0         111
           1           1           2
Full Title                                 C   N=           2
Atom number=6           
Route                                      C   N=           4
#p hf/6-31g** 5d 7f pop=npa charge nosymm       
Charge                                     I                0
Multiplicity                               I                1
Number of electrons                        I               20
Number of alpha electrons                  I               10
Number of beta electrons                   I               10
Number of basis functions                  I               48
Number of independent functions            I               48
Number of point charges in /Mol/           I                0
Number of translation vectors              I                0
Atomic numbers                             I   N=           6
           8           8           1           1           1           1
Nuclear charges                            R   N=           6
  8.00000000E+00  8.00000000E+00  1.00000000E+00  1.00000000E+00  1.00000000E+00
  1.00000000E+00
Current cartesian coordinates              R   N=          18
  2.54311103E+01 -2.22482823E+01 -1.84702379E+01  2.45589393E+01 -2.78051467E+01
 -2.11838979E+01  2.62839852E+01 -2.07798196E+01 -1.90932542E+01  2.67410892E+01
 -2.34772676E+01 -1.82569899E+01  2.32179689E+01 -2.86518083E+01 -2.03139039E+01
  2.57676610E+01 -2.74243858E+01 -1.98931866E+01
Number of symbols in /Mol/                 I                0
Force Field                                I                0
Atom Types                                 C   N=           6
                                                            
            
Int Atom Types                             I   N=           6
           0           0           0           0           0           0
MM charges                                 R   N=           6
  0.00000000E+00  0.00000000E+00  0.00000000E+00  0.00000000E+00  0.00000000E+00
  0.00000000E+00
Integer atomic weights                     I   N=           6
          16          16           1           1           1           1
Real atomic weights                        R   N=           6
  1.59949146E+01  1.59949146E+01  1.00782504E+00  1.00782504E+00  1.00782504E+00
  1.00782504E+00
Atom fragment info                         I   N=           6
           0           0           0           0           0           0
Atom residue num                           I   N=           6
           0           0           0           0           0           0
Nuclear spins                              I   N=           6
           0           0           1           1           1           1
Nuclear ZEff                               R   N=           6
 -5.60000000E+00 -5.60000000E+00 -1.00000000E+00 -1.00000000E+00 -1.00000000E+00
 -1.00000000E+00
Nuclear ZNuc                               R   N=           6
  8.00000000E+00  8.00000000E+00  1.00000000E+00  1.00000000E+00  1.00000000E+00
  1.00000000E+00
Nuclear QMom                               R   N=           6
  0.00000000E+00  0.00000000E+00  0.00000000E+00  0.00000000E+00  0.00000000E+00
  0.00000000E+00
Nuclear GFac                               R   N=           6
  0.00000000E+00  0.00000000E+00  2.79284600E+00  2.79284600E+00  2.79284600E+00
  2.79284600E+00
MicOpt                                     I   N=           6
          -1          -1          -1          -1          -1          -1
Number of residues                         I                0
Number of secondary structures             I                0
Number of contracted shells                I               20
Number of primitive shells                 I               42
Pure/Cartesian d shells                    I                0
Pure/Cartesian f shells                    I                0
Highest angular momentum                   I                2
Largest degree of contraction              I                6
Shell types                                I   N=          20
           0          -1          -1          -2           0          -1
          -1          -2           0           0           1           0
           0           1           0           0           1           0
           0           1
Number of primitives per shell             I   N=          20
           6           3           1           1           6           3
           1           1           3           1           1           3
           1           1           3           1           1           3
           1           1
Shell to atom map                          I   N=          20
           1           1           1           1           2           2
           2           2           3           3           3           4
           4           4           5           5           5           6
           6           6
Primitive exponents                        R   N=          42
  5.48467166E+03  8.25234946E+02  1.88046958E+02  5.29645000E+01  1.68975704E+01
  5.79963534E+00  1.55396162E+01  3.59993359E+00  1.01376175E+00  2.70005823E-01
  8.00000000E-01  5.48467166E+03  8.25234946E+02  1.88046958E+02  5.29645000E+01
  1.68975704E+01  5.79963534E+00  1.55396162E+01  3.59993359E+00  1.01376175E+00
  2.70005823E-01  8.00000000E-01  1.87311370E+01  2.82539436E+00  6.40121692E-01
  1.61277759E-01  1.10000000E+00  1.87311370E+01  2.82539436E+00  6.40121692E-01
  1.61277759E-01  1.10000000E+00  1.87311370E+01  2.82539436E+00  6.40121692E-01
  1.61277759E-01  1.10000000E+00  1.87311370E+01  2.82539436E+00  6.40121692E-01
  1.61277759E-01  1.10000000E+00
Contraction coefficients                   R   N=          42
  1.83107443E-03  1.39501722E-02  6.84450781E-02  2.32714336E-01  4.70192898E-01
  3.58520853E-01 -1.10777550E-01 -1.48026263E-01  1.13076702E+00  1.00000000E+00
  1.00000000E+00  1.83107443E-03  1.39501722E-02  6.84450781E-02  2.32714336E-01
  4.70192898E-01  3.58520853E-01 -1.10777550E-01 -1.48026263E-01  1.13076702E+00
  1.00000000E+00  1.00000000E+00  3.34946043E-02  2.34726953E-01  8.13757326E-01
  1.00000000E+00  1.00000000E+00  3.34946043E-02  2.34726953E-01  8.13757326E-01
  1.00000000E+00  1.00000000E+00  3.34946043E-02  2.34726953E-01  8.13757326E-01
  1.00000000E+00  1.00000000E+00  3.34946043E-02  2.34726953E-01  8.13757326E-01
  1.00000000E+00  1.00000000E+00
P(S=P) Contraction coefficients            R   N=          42
  0.00000000E+00  0.00000000E+00  0.00000000E+00  0.00000000E+00  0.00000000E+00
  0.00000000E+00  7.08742682E-02  3.39752839E-01  7.27158577E-01  1.00000000E+00
  0.00000000E+00  0.00000000E+00  0.00000000E+00  0.00000000E+00  0.00000000E+00
  0.00000000E+00  0.00000000E+00  7.08742682E-02  3.39752839E-01  7.27158577E-01
  1.00000000E+00  0.00000000E+00  0.00000000E+00  0.00000000E+00  0.00000000E+00
  0.00000000E+00  0.00000000E+00  0.00000000E+00  0.00000000E+00  0.00000000E+00
  0.00000000E+00  0.00000000E+00  0.00000000E+00  0.00000000E+00  0.00000000E+00
  0.00000000E+00  0.00000000E+00  0.00000000E+00  0.00000000E+00  0.00000000E+00
  0.00000000E+00  0.00000000E+00
Coordinates of each shell                  R   N=          60
  2.54311103E+01 -2.22482823E+01 -1.84702379E+01  2.54311103E+01 -2.22482823E+01
 -1.84702379E+01  2.54311103E+01 -2.22482823E+01 -1.84702379E+01  2.54311103E+01
 -2.22482823E+01 -1.84702379E+01  2.45589393E+01 -2.78051467E+01 -2.11838979E+01
  2.45589393E+01 -2.78051467E+01 -2.11838979E+01  2.45589393E+01 -2.78051467E+01
 -2.11838979E+01  2.45589393E+01 -2.78051467E+01 -2.11838979E+01  2.62839852E+01
 -2.07798196E+01 -1.90932542E+01  2.62839852E+01 -2.07798196E+01 -1.90932542E+01
  2.62839852E+01 -2.07798196E+01 -1.90932542E+01  2.67410892E+01 -2.34772676E+01
 -1.82569899E+01  2.67410892E+01 -2.34772676E+01 -1.82569899E+01  2.67410892E+01
 -2.34772676E+01 -1.82569899E+01  2.32179689E+01 -2.86518083E+01 -2.03139039E+01
  2.32179689E+01 -2.86518083E+01 -2.03139039E+01  2.32179689E+01 -2.86518083E+01
 -2.03139039E+01  2.57676610E+01 -2.74243858E+01 -1.98931866E+01  2.57676610E+01
 -2.74243858E+01 -1.98931866E+01  2.57676610E+01 -2.74243858E+01 -1.98931866E+01
Num ILSW                                   I              100
ILSW                                       I   N=         100
           0           0           0           0           2           0
           0           0           0           0           0          -1
           5           0           0           0           0           0
           0           0           0           0           0           0
           1           1           0           0           0           0
           0           0      100000           0          -1           0
           0           0           0           0           0           0
           0           0           0           1           0           0
           0 -2000000000           1           0           0           0
           0           0           4          52           0           0
           0           1           0           0           0           0
           0           0           0           6           0           1
           0           0           0           0           0           0
           0           0           0           0           0           0
           0           0           0           0           0           0
           0           0           0           0           0           0
           0           0           0           0
Num RLSW                                   I               52
RLSW                                       R   N=          52
  1.00000000E+00  1.00000000E+00  1.00000000E+00  1.00000000E+00  1.00000000E+00
  0.00000000E+00  0.00000000E+00  1.00000000E+00  0.00000000E+00  0.00000000E+00
  0.00000000E+00  0.00000000E+00  1.00000000E+00  0.00000000E+00  0.00000000E+00
  0.00000000E+00  0.00000000E+00  1.00000000E+00  0.00000000E+00  0.00000000E+00
  0.00000000E+00  0.00000000E+00  1.00000000E+00  0.00000000E+00  0.00000000E+00
  0.00000000E+00  0.00000000E+00  1.00000000E+00  0.00000000E+00  0.00000000E+00
  0.00000000E+00  0.00000000E+00  1.00000000E+00  0.00000000E+00  0.00000000E+00
  0.00000000E+00  0.00000000E+00  0.00000000E+00  1.00000000E+00  1.00000000E+00
  0.00000000E+00  1.00000000E+00  0.00000000E+00  0.00000000E+00  0.00000000E+00
  0.00000000E+00  0.00000000E+00  0.00000000E+00  0.00000000E+00  0.00000000E+00
  0.00000000E+00  0.00000000E+00
MxBond                                     I                2
NBond                                      I   N=           6
           2           2           1           1           1           1
IBond                                      I   N=          12
           3           4           5           6           1           0
           1           0           2           0           2           0
RBond                                      R   N=          12
  1.00000000E+00  1.00000000E+00  1.00000000E+00  1.00000000E+00  1.00000000E+00
  0.00000000E+00  1.00000000E+00  0.00000000E+00  1.00000000E+00  0.00000000E+00
  1.00000000E+00  0.00000000E+00
Virial Ratio                               R      2.098367317705173E+00
SCF Energy                                 R     -1.667285580832044E+02
Total Energy                               R     -1.667285580832044E+02
RMS Density                                R      5.637750363172232E-09
Job Status                                 I                1
Nuclear derivative order                   I                0
External E-field                           R   N=          35
  0.00000000E+00  0.00000000E+00  0.00000000E+00  0.00000000E+00  0.00000000E+00
  0.00000000E+00  0.00000000E+00  0.00000000E+00  0.00000000E+00  0.00000000E+00
  0.00000000E+00  0.00000000E+00  0.00000000E+00  0.00000000E+00  0.00000000E+00
  0.00000000E+00  0.00000000E+00  0.00000000E+00  0.00000000E+00  0.00000000E+00
  0.00000000E+00  0.00000000E+00  0.00000000E+00  0.00000000E+00  0.00000000E+00
  0.00000000E+00  0.00000000E+00  0.00000000E+00  0.00000000E+00  0.00000000E+00
  0.00000000E+00  0.00000000E+00  0.00000000E+00  0.00000000E+00  0.00000000E+00
IOpCl                                      I                0
IROHF                                      I                0
Alpha Orbital Energies                     R   N=          48
 -2.06406842E+01 -2.05545421E+01 -1.42240212E+00 -1.33681290E+00 -7.85683968E-01
 -6.98744867E-01 -6.65153980E-01 -5.80579883E-01 -5.68656142E-01 -4.93894850E-01
  1.40709567E-01  2.16283850E-01  2.84997518E-01  3.60839301E-01  9.29132225E-01
  1.00607542E+00  1.02198622E+00  1.06819674E+00  1.08043951E+00  1.11982542E+00
  1.18151913E+00  1.19998873E+00  1.24250983E+00  1.30681883E+00  1.52515202E+00
  1.62103775E+00  1.73476489E+00  1.74727542E+00  1.81607235E+00  1.83052224E+00
  1.84169091E+00  1.92868509E+00  2.50252754E+00  2.51046929E+00  2.58468367E+00
  2.59835962E+00  2.73389612E+00  2.82026013E+00  2.90190708E+00  2.91559693E+00
  2.98351324E+00  3.00410564E+00  3.29677365E+00  3.38410738E+00  3.67989176E+00
  3.76494727E+00  3.84583654E+00  3.94161937E+00
Alpha MO coefficients                      R   N=        2304
  9.95702978E-01  2.20037848E-02  1.93906430E-03  2.38154032E-04 -3.08397368E-04
 -6.02114503E-03 -9.57848718E-04 -9.08580881E-05  1.44401677E-04 -2.91018646E-04
 -3.87399321E-05 -2.38092238E-04 -1.57870140E-04 -7.53957900E-05 -2.38200832E-05
 -4.00646680E-05 -3.64838533E-06 -4.37246477E-06 -3.56407896E-06  1.62717872E-04
  8.89422622E-05  3.40140362E-05  7.20148354E-05  1.10087140E-05  2.39638039E-05
  9.48343936E-06  1.21555200E-05  6.57655553E-06 -4.92469452E-04  1.24184922E-03
  5.97578673E-04  8.94850340E-04 -3.89747085E-04 -5.10000248E-04  1.37656458E-03
  8.56279567E-04 -7.22630611E-04  1.07828529E-04 -1.01607899E-05  6.08842631E-05
  3.64642295E-06  5.60780843E-07 -7.04512389E-06 -4.02431637E-05 -2.55756218E-04
  2.35349027E-05 -2.29209249E-05  2.10131350E-05  1.75351878E-05 -4.52010996E-05
 -3.67646606E-06 -2.82006700E-06 -2.00858068E-06  2.27541422E-04  1.12206674E-04
 -9.03423522E-05  3.22324310E-05 -1.46283001E-05  1.41038558E-06 -1.08428541E-05
  7.17819805E-06 -3.36103077E-05  9.95710274E-01  2.19909380E-02 -8.26589789E-05
 -3.73287033E-04  2.06360470E-03 -6.05004466E-03 -1.69917421E-05  1.75150512E-04
 -9.95756467E-04  3.99962562E-06  7.22797071E-05 -4.35462026E-05  2.45175498E-04
  3.31720435E-04 -2.43983144E-05  7.78173631E-05 -5.23481380E-06 -3.39528431E-06
  1.99051148E-06 -1.57112197E-05 -3.85948883E-04  5.71724509E-05 -1.30526116E-05
  2.27067767E-05 -5.01219293E-04  1.21271515E-03 -8.16976694E-04 -5.32727899E-04
  6.10846692E-04 -5.29114511E-04  1.46365264E-03  7.31263565E-04  2.21489307E-04
  8.67118617E-04 -2.13017462E-01  4.71071169E-01  7.72530597E-02  9.00189481E-03
 -1.26135910E-02  4.46832573E-01  2.38737142E-02  3.02772294E-03  1.58626569E-05
 -3.16071159E-03 -1.78144101E-03 -2.47522911E-03  1.96580986E-03 -2.85981555E-04
 -2.97694069E-03  6.63773058E-03  3.07674413E-04  3.58026901E-04  1.45058401E-03
  4.71353716E-03 -5.69374760E-04  9.05896450E-04  2.38241795E-04  1.14040264E-05
 -6.34147433E-06  1.02183935E-04 -1.05325194E-04 -2.28420955E-05  1.43402220E-01
  9.24142905E-03 -1.02690822E-02 -2.24141489E-02  9.08847098E-03  1.43024741E-01
  6.99974426E-03 -1.72654818E-02  1.91754092E-02 -4.00818447E-03  1.80766666E-03
 -1.70069528E-04  3.17354284E-04  1.42622436E-04 -1.63530693E-04  2.68193673E-03
  3.42346008E-03 -4.12018739E-04  2.33491408E-04 -3.02638332E-04  3.74202516E-03
 -8.26596752E-03 -1.41556944E-03 -1.35288031E-03 -1.40023579E-05 -9.71187711E-03
 -1.81053177E-03 -1.29551250E-03 -8.94635191E-04  9.73928463E-05  8.29324023E-05
  2.75537186E-04 -1.34066905E-04 -3.52944589E-05 -2.12335357E-01  4.70092275E-01
 -3.92765701E-03 -1.48734097E-02  8.10809166E-02  4.43334609E-01 -1.88790497E-03
 -2.47074276E-03  3.24341196E-02  3.08071264E-03  4.05418233E-04 -9.54741842E-04
  1.79757010E-03  1.68447821E-03 -2.65968203E-03 -4.51133420E-04  1.78348956E-04
  3.71894590E-04 -9.77786448E-05 -2.12870528E-03  3.96732148E-03  4.14863266E-06
 -3.50794575E-04 -9.65074729E-05  1.40819067E-01  5.49967287E-03  2.05314812E-02
  1.35000067E-02 -1.01097030E-02  1.47242571E-01  1.24616266E-02 -1.86965204E-02
 -6.13284301E-03 -1.69071299E-02  5.85346434E-05  3.84329000E-04 -8.02685984E-02
  4.75664703E-01 -1.50219761E-01 -2.37277295E-03 -4.71110144E-02  2.75266351E-01
 -8.97441155E-02  1.89280080E-03 -7.95925870E-03 -4.89605337E-03 -8.19644862E-03
  2.79791599E-02 -3.15949291E-03  7.25386546E-03 -2.16448791E-02 -1.66314741E-02
 -8.75089121E-03  1.18465772E-02 -1.01565087E-02 -1.03814010E-02 -4.96946079E-03
 -5.99362377E-04 -1.41421470E-03 -1.19013206E-03  2.01603611E-04  2.31731561E-04
  2.35501623E-01  1.14419698E-01 -1.68587741E-02 -1.28231317E-02  6.88187582E-03
 -2.33955678E-01 -1.11567970E-01  2.04229343E-02 -8.47835589E-03 -1.72772102E-04
  1.32962550E-02  4.87354453E-03  8.00404063E-04  5.88533766E-04 -1.00779912E-03
 -1.55215116E-02 -1.30783405E-02  6.56385260E-04 -9.97400088E-04  7.24716597E-04
  3.42912721E-03 -7.36698070E-03  1.12807480E-03  2.96004740E-02 -3.07778959E-02
 -1.61693427E-02 -1.27135149E-04  1.78125029E-02 -2.33951423E-02  8.09433294E-05
 -1.32990383E-03 -8.25260502E-05 -7.31500846E-04  2.07196110E-03  4.37809678E-03
 -9.14016162E-03  4.49166162E-01  2.13217576E-01  7.19190519E-02 -2.66397908E-02
  2.55427065E-01  1.18842071E-01  3.64139806E-02  7.58315962E-03  2.89758912E-02
  1.31963674E-02  5.90750762E-04 -5.44154875E-03  1.90276939E-02  9.58119569E-03
 -1.10097136E-03 -1.11002904E-03  3.89412692E-05 -1.35365107E-02  2.12268150E-03
  9.59597238E-04 -9.17868827E-04 -1.02993293E-03 -2.32770925E-01 -1.06700454E-01
 -1.15155010E-02 -1.12236815E-02  1.56165099E-02  2.43162099E-01  1.38202440E-01
 -8.11538050E-03  3.62157352E-04 -1.98050514E-02  6.41789181E-02 -1.46691301E-01
  5.36523148E-01  4.97136456E-02 -1.23439373E-01 -2.81648575E-01  4.01117449E-01
  3.64132271E-02 -9.86496497E-02 -1.42185446E-02 -5.98650436E-03 -2.68816717E-03
  1.59826481E-02  3.83021231E-03 -2.99408604E-04  8.04376478E-04 -9.19733959E-03
 -9.04771820E-03 -2.43481440E-03  3.55264382E-03 -3.27813231E-03 -8.93938967E-03
 -1.86845292E-03 -2.46238956E-04 -4.96545665E-04 -8.06119345E-04  1.55434039E-04
  3.03453711E-04  1.42190037E-01  6.43237079E-02  5.59020053E-03 -1.43680284E-02
  3.42331271E-03  1.44274602E-01  6.56399782E-02  1.83399899E-04  1.50569563E-02
 -5.33087927E-03  6.45081370E-03  6.71071817E-04  1.38460958E-04  3.39144925E-04
 -2.36436293E-04 -4.24653115E-03 -9.30144201E-03  5.45664656E-04  2.81447332E-05
  6.18391542E-04  4.29889087E-03 -1.29570932E-02  1.13456547E-01  2.05869219E-01
  5.90065955E-01 -1.61325283E-02  8.25175337E-02  1.56328216E-01  4.65855117E-01
 -4.59844225E-03  1.98326995E-02  1.88627362E-03  2.90942148E-03  7.88058782E-03
 -5.81354545E-03  1.38377477E-02  3.72674570E-02 -1.59910791E-02 -3.11176734E-02
  2.87978144E-02  2.89590377E-02 -2.06069085E-02 -2.05086594E-02 -1.03372302E-03
  2.06451756E-03 -9.96503363E-04  6.23060285E-04 -3.26299996E-04  7.93326883E-03
  7.89685917E-03  2.96493811E-03  5.16615111E-03  1.89188900E-02  8.91246094E-04
  1.01527783E-02  3.13914580E-03  7.37890790E-03  1.79784235E-02 -1.67465726E-02
 -9.13716320E-03 -9.96382998E-04 -1.42138398E-03  3.16923629E-04  3.95013630E-03
 -1.95556017E-02  1.41954948E-03 -1.28436212E-03 -8.56990375E-04  1.23835862E-03
 -2.74033312E-03  4.30043892E-03  2.02545132E-02  3.03368636E-02 -5.13383830E-03
  2.76350403E-03  1.51455802E-02  2.68248625E-02 -3.79720612E-04  1.02617250E-03
 -1.14129388E-05 -2.06196228E-04  1.11913551E-03  6.86465437E-02 -1.62294498E-01
 -3.67201496E-02 -1.30125337E-01  5.36210647E-01 -2.96702665E-01 -3.17148298E-02
 -9.73433304E-02  3.85783692E-01  2.55059256E-02 -1.98005223E-03 -8.81941544E-03
  1.99871335E-03  4.37248111E-03  4.78549111E-03  2.56078012E-03 -9.06113336E-05
  1.56868246E-04  9.68859411E-04 -2.79852176E-03 -2.38350266E-04  4.04803397E-04
 -2.57580857E-04  7.55151838E-04  1.42397509E-01  6.40564310E-02  1.39768185E-02
  7.20078264E-03  6.39887417E-03  1.45907688E-01  9.30203812E-02 -1.44303375E-02
 -7.80039353E-03  2.48191306E-03  3.50391294E-03 -8.41296446E-03  1.18256701E-02
  2.89217124E-02  4.03365920E-02 -2.40148106E-02 -1.79595542E-03  1.27152490E-02
  2.74142265E-02 -1.14242542E-04  1.64355156E-03  1.45496706E-03 -4.64989794E-04
  1.17133440E-03  2.47251012E-03 -1.00572012E-02 -2.81193266E-01  5.59463940E-01
  1.09169208E-01 -1.53471788E-03 -2.20782570E-01  4.40562520E-01  8.76786526E-02
  6.74574712E-03 -1.13886660E-02  2.25743991E-02  3.62116114E-03  8.65052955E-04
  9.91766011E-03  9.16275604E-03 -3.07125128E-04 -5.14360447E-04  2.45151221E-03
 -7.39357612E-03  2.64939238E-02  2.38762800E-04  9.39682147E-04  1.05687410E-03
 -3.10985825E-03  1.06071313E-02 -8.65538137E-03  1.66653002E-02  3.27452206E-03
  2.99567406E-03 -6.37081814E-03 -8.89178042E-03  1.84693432E-02  3.84580104E-03
 -8.07976877E-02  1.11860265E-01  1.70706103E-01 -8.67212383E-03 -2.87657236E-02
  1.05506314E+00  4.29767679E-01  1.48533310E-02 -8.23467323E-02 -1.22430080E-02
 -3.63596023E-03 -7.57446817E-03  5.98354662E-03 -1.17778347E-03 -3.20825592E-02
  4.15913643E-02  4.94657889E-02  4.20016218E-02  9.87449252E-02  4.04295824E-01
  1.08493762E-01  3.42223821E-02  1.94556113E-01  7.67890589E-03  6.55785689E-03
 -5.92172815E-04  5.19586896E-03  1.28318687E-03 -6.41214642E-02 -8.33574865E-01
  4.53334194E-03  8.66193662E-03 -3.85873421E-03 -6.21797253E-02 -8.99212611E-01
  5.87557651E-03 -3.67352333E-03  3.05622975E-03 -2.01650217E-02 -1.28840083E-01
 -1.78217582E-03  2.04174005E-04  2.19804942E-03 -1.66007527E-02 -5.17304990E-01
  2.51655291E-03 -2.58775628E-03  2.02426489E-03  2.98140700E-02 -3.18586164E-02
 -3.86980118E-02 -2.49849907E-01  6.31422504E-02 -4.61857510E-01 -8.97083400E-02
 -5.77188169E-01  1.98351739E-01  5.42638554E-03  7.14793457E-03  5.06514308E-03
  8.11563901E-03 -2.12489683E-02 -4.89483220E-02  5.91828724E-02  5.20299249E-02
  5.98510111E-03  1.30564803E-01  6.64571078E-01  1.19771943E-01  1.49001119E-02
  2.94195270E-01  9.10873474E-03  7.08827370E-03 -5.70626468E-05  4.23708949E-03
  3.63415346E-03  5.51536222E-02  1.34908587E+00 -4.70277654E-03 -1.39467727E-02
  3.48773709E-03 -1.05307492E-02 -5.53424012E-01  4.39899694E-03  1.04439541E-03
  2.26418521E-03 -3.13552918E-02 -3.08982787E-01 -1.92449939E-03 -2.48858172E-03
  1.32837317E-03 -4.45226229E-02 -7.74488275E-01  4.50238615E-03  3.86239578E-04
  4.66331746E-03  1.92630753E-02 -2.40692419E-02 -9.30945606E-02  1.61561680E-01
 -6.93786216E-02 -2.93766263E-01 -1.96389133E-01  4.87546945E-01 -1.33945805E-01
  4.18011306E-03 -2.89152801E-03 -4.09560540E-03 -1.50620991E-03  1.08790366E-02
 -6.67696372E-02  8.79326111E-02 -8.92852149E-02 -8.48679237E-02  1.36293086E-01
  9.48824852E-01 -1.93298210E-01 -1.75790643E-01  3.33992899E-01  6.50027990E-03
 -4.79047080E-03 -4.72207765E-03  3.16012722E-03  1.10621029E-02 -4.60514163E-02
 -6.16285308E-01  1.90424754E-03  5.23558273E-03 -4.67850796E-03  8.22755460E-02
  1.13354480E+00 -2.50812553E-03  9.50988038E-03 -6.71286103E-05 -6.14644210E-02
 -1.10706581E+00 -8.28785473E-03 -7.97948291E-03  1.54046060E-03 -3.23100805E-02
 -5.15599138E-01  4.76928090E-03  6.71183268E-03  5.95170594E-03 -1.95649903E-02
  2.67022191E-02  7.95005392E-02 -9.00602368E-02  5.80274240E-02  3.25670129E-01
  1.84288546E-01 -3.21457743E-01  8.98569478E-02 -4.94133694E-03 -7.05696512E-04
  3.17427144E-03 -5.51872131E-03 -2.13375921E-03  5.02055620E-03  4.59757542E-03
 -2.87664829E-01 -1.06390056E-01 -5.50907028E-02 -1.25559856E-01 -7.22329244E-01
 -3.35344347E-01 -1.63751884E-01 -6.16486332E-03 -2.34611960E-02 -1.20237289E-02
  9.21193576E-05  6.62596296E-04  4.46916806E-02  3.21977336E-01 -7.95249393E-04
  7.68976460E-04  3.34345395E-03 -7.34540908E-02 -9.35646578E-01 -3.25666798E-03
 -1.49087480E-02 -3.24423642E-03 -6.79078040E-02 -1.26843251E+00 -8.83405668E-03
 -5.46846621E-03  2.04575396E-03  7.52090454E-02  1.48895025E+00 -1.15692088E-02
 -8.21097883E-03 -8.02012807E-03  4.98882789E-03 -4.94080559E-02 -2.26471212E-02
 -5.50345505E-02  2.52652797E-02  6.96662907E-02  9.45196508E-02 -4.26007677E-01
  1.24758445E-01  1.27771671E-02 -6.65082065E-02 -6.36550913E-02 -7.17627318E-02
  2.22745431E-01 -1.19663924E-02  5.47815953E-02  9.99838507E-02 -1.02164045E-01
  3.52366140E-02  3.82607392E-02  8.13268770E-02  1.55834172E-01  6.94542207E-02
 -1.67022125E-02 -5.62588239E-02 -1.21776138E-02 -2.41821526E-02 -1.98379609E-03
  7.78783479E-01 -5.96336092E-01  8.05299239E-02  5.94007349E-02 -3.19284954E-02
 -6.96463872E-01  5.15187176E-01 -7.80693879E-02  1.16271568E-02  7.62731073E-03
  1.02302695E-01 -4.08385577E-02  7.70067441E-03 -7.68281286E-03  1.15618686E-02
 -2.69986613E-01 -2.75133631E-02 -2.80889278E-02  5.06418874E-03 -3.52742399E-02
  1.27426439E-02 -9.17441539E-02 -4.61165969E-01 -1.92310933E-01 -1.32664939E-01
  2.73223751E-01  3.97064635E-01  1.72502309E-01  1.51273064E-01 -9.33455314E-02
 -2.79235401E-02 -1.05494296E-01 -5.86696797E-02  3.09920914E-02  5.77515150E-03
 -1.92012811E-02 -8.86759038E-02  8.82159489E-02 -5.29957850E-02  8.10129719E-03
 -2.51506994E-01 -2.39127236E-01 -5.39724113E-02  4.49926762E-02  1.55249664E-01
  5.92991487E-02  2.88694308E-02 -1.59464884E-02  4.52103078E-01 -5.46123400E-01
  4.84835367E-02  1.31879957E-01 -6.15376531E-02  2.03011311E-01 -9.72233774E-02
  3.73607473E-02 -8.21499613E-02  2.84664375E-02 -4.34852112E-01  3.21976515E-01
  4.79899776E-03  1.70126821E-02 -4.89530142E-02  6.23093529E-01 -4.11770820E-01
  3.82142587E-02  5.17017152E-03  7.43325332E-02 -1.85948647E-02  1.48922859E-01
  3.70450863E-01 -6.23075256E-02 -3.75477832E-01 -4.34974072E-01 -2.96229187E-01
  1.38217078E-02  3.85278351E-01  1.41072475E-01  5.76213453E-03  8.84792945E-02
  7.09196785E-02  8.63798768E-02 -2.24496033E-03 -4.88103231E-04  2.34366258E-03
 -1.35649475E-01 -4.32567840E-02  8.45792542E-02 -1.98273027E-01  2.43887729E-02
  2.94445193E-02  3.62753979E-02  1.30292025E-01  6.45858871E-02  5.50207613E-03
 -2.01096658E-02 -3.08891102E-01  3.14471052E-01 -4.96652892E-03 -1.35303967E-01
  3.45403506E-02 -5.94524509E-01  7.10546655E-01 -7.87118397E-02  1.43592068E-01
 -2.98857744E-02 -3.93412535E-01  3.44471720E-01  2.36426446E-02  1.31165810E-02
 -5.19035410E-02  4.37644653E-01 -5.29075956E-01  2.84199430E-02  1.67231795E-02
  6.43093462E-02 -3.08259687E-02  2.17262589E-01 -3.19414044E-01 -2.64785714E-01
 -3.99760744E-01 -1.05376243E-01  4.78944524E-01  3.48304475E-01  3.86528897E-01
  4.41545983E-02 -2.75778235E-04  2.81012131E-02  2.64374153E-02  4.05909791E-02
  2.23728792E-02 -1.42391908E-01 -9.01418176E-02  3.12198337E-01 -1.96462262E-01
  2.34807683E-01  2.68840723E-01 -2.17026354E-01  1.01597618E-01 -2.59802244E-02
 -6.49045682E-02 -5.87558621E-02  7.98953530E-02  1.29254502E-01 -2.26644012E-01
 -1.84192570E-02  2.31044137E-02  2.22703875E-04 -1.32282255E-02 -2.54612549E-01
  1.92285064E-01 -1.55897806E-02  2.97031243E-02 -1.48964444E-02  6.60221420E-01
 -5.46381277E-01 -1.08699168E-01 -5.04665259E-02  5.49917184E-02  6.33969542E-02
 -4.35510374E-02  7.62824573E-02  4.29060165E-02  1.04893928E-02 -5.59178318E-02
  3.84919855E-01 -4.54714102E-01  9.46493474E-02  5.70472202E-01 -1.56300831E-01
  7.58350756E-01 -8.02543580E-02 -6.71206223E-01  7.08147415E-02  8.88397359E-04
  5.79533732E-02  5.57035987E-02  3.53254943E-02  5.31845300E-03 -5.07959770E-02
  1.95457048E-02 -1.74218020E-01 -5.88728479E-04  7.35926645E-02 -2.79193598E-02
  1.73559371E-01 -1.55144369E-02  1.03421226E-02  5.22299668E-02  2.62630234E-02
  5.90366377E-03  4.39838720E-03 -4.01903245E-01  7.94729699E-02  2.99660338E-02
 -1.47591537E-02  6.85598868E-03 -4.62217118E-01  1.99242084E-01  1.67182203E-02
  3.21393732E-02  5.79739773E-04 -5.55178248E-02  1.29493191E-01  1.10218981E-02
  2.28763052E-03 -2.30869960E-02  1.62337878E-01 -2.50206090E-01  2.11821502E-02
  1.29767174E-02  2.83135401E-02 -2.36098439E-02  1.60062102E-01 -2.59057897E-01
 -4.46169889E-02 -2.48933981E-01 -1.62232128E-02  4.27802121E-01  1.87257721E-02
  2.76605467E-01  1.93966591E-02  1.09443843E-02  3.89001287E-02  1.55370092E-02
 -1.61939272E-02 -2.14902302E-02  1.87611251E-01 -2.02357894E-01  2.56347167E-01
  5.01596047E-01 -4.95961605E-01  2.00194132E-01 -2.91138535E-01 -4.30926914E-01
 -5.67722284E-03 -5.41748673E-02  2.03243394E-03 -1.17101218E-01 -1.59309903E-01
 -1.94491577E-01  1.63116742E-01 -6.45362989E-03 -1.99325414E-02  9.48370687E-03
 -1.29452062E-01 -1.84850404E-01  1.72383185E-02 -2.16116644E-02 -1.42514379E-02
 -4.47498244E-01  4.49589238E-01  1.30210921E-01  7.98384329E-02 -2.02559587E-02
 -5.23947834E-01  6.39806726E-01 -1.36833616E-01 -5.79346827E-02 -7.80934948E-02
 -7.58066517E-03  4.69794346E-02 -1.98585468E-01  4.08330026E-01 -2.07051324E-01
  3.14858823E-02  3.29488620E-01 -8.23381718E-01  3.41920634E-01 -1.37107856E-02
  3.11539764E-02  2.95696924E-02  2.53518712E-02 -1.02865223E-01 -4.79219259E-02
  2.81788656E-01  8.24528042E-02  2.87121490E-02 -6.38042990E-01  3.71939198E-02
 -1.22103744E-01 -8.82278287E-02  9.58546918E-01  2.37371584E-02 -1.95902777E-02
 -3.65491550E-03 -3.81625516E-02 -5.60128869E-02 -2.12839898E-02  5.58818036E-01
 -5.86159763E-02 -9.06700263E-02  4.21773795E-02 -3.15947048E-02 -6.46525081E-01
  9.95176701E-02 -9.23789727E-02  1.01704732E-02 -3.33133224E-01 -4.83737338E-02
 -1.20379323E-02 -1.37541493E-02  3.70403926E-02 -3.54318687E-01  7.77592671E-02
  5.78966116E-03 -1.37749614E-02  4.12362647E-02  3.60749209E-03 -1.56835725E-02
  2.42730856E-01 -3.88109085E-01  3.92668096E-01 -1.00681853E-01 -3.66853555E-01