Atom number=6                                                           
SP        RHF                                                         6-31G(d,p)          
Number of atoms                            I                6
Info1-9                                    I   N=           9
         107         106           0           0           0         111
           1           1           2
Full Title                                 C   N=           2
Atom number=6           
Route                                      C   N=           4
#p hf/6-31g** 5d 7f pop=npa charge nosymm       
Charge                                     I                0
Multiplicity                               I                1
Number of electrons                        I               20
Number of alpha electrons                  I               10
Number of beta electrons                   I               10
Number of basis functions                  I               48
Number of independent functions            I               48
Number of point charges in /Mol/           I                0
Number of translation vectors              I                0
Atomic numbers                             I   N=           6
           8           8           1           1           1           1
Nuclear charges                            R   N=           6
  8.00000000E+00  8.00000000E+00  1.00000000E+00  1.00000000E+00  1.00000000E+00
  1.00000000E+00
Current cartesian coordinates              R   N=          18
  1.84053920E+01 -2.75148262E+01 -2.47254336E+01  1.90577217E+01 -1.81470343E+01
 -2.58786843E+01  1.78327464E+01 -2.63066431E+01 -2.35071158E+01  2.01306987E+01
 -2.70664981E+01 -2.50324158E+01  1.85910557E+01 -1.86665521E+01 -2.75472898E+01
  1.75122961E+01 -1.81949823E+01 -2.49399156E+01
Number of symbols in /Mol/                 I                0
Force Field                                I                0
Atom Types                                 C   N=           6
                                                            
            
Int Atom Types                             I   N=           6
           0           0           0           0           0           0
MM charges                                 R   N=           6
  0.00000000E+00  0.00000000E+00  0.00000000E+00  0.00000000E+00  0.00000000E+00
  0.00000000E+00
Integer atomic weights                     I   N=           6
          16          16           1           1           1           1
Real atomic weights                        R   N=           6
  1.59949146E+01  1.59949146E+01  1.00782504E+00  1.00782504E+00  1.00782504E+00
  1.00782504E+00
Atom fragment info                         I   N=           6
           0           0           0           0           0           0
Atom residue num                           I   N=           6
           0           0           0           0           0           0
Nuclear spins                              I   N=           6
           0           0           1           1           1           1
Nuclear ZEff                               R   N=           6
 -5.60000000E+00 -5.60000000E+00 -1.00000000E+00 -1.00000000E+00 -1.00000000E+00
 -1.00000000E+00
Nuclear ZNuc                               R   N=           6
  8.00000000E+00  8.00000000E+00  1.00000000E+00  1.00000000E+00  1.00000000E+00
  1.00000000E+00
Nuclear QMom                               R   N=           6
  0.00000000E+00  0.00000000E+00  0.00000000E+00  0.00000000E+00  0.00000000E+00
  0.00000000E+00
Nuclear GFac                               R   N=           6
  0.00000000E+00  0.00000000E+00  2.79284600E+00  2.79284600E+00  2.79284600E+00
  2.79284600E+00
MicOpt                                     I   N=           6
          -1          -1          -1          -1          -1          -1
Number of residues                         I                0
Number of secondary structures             I                0
Number of contracted shells                I               20
Number of primitive shells                 I               42
Pure/Cartesian d shells                    I                0
Pure/Cartesian f shells                    I                0
Highest angular momentum                   I                2
Largest degree of contraction              I                6
Shell types                                I   N=          20
           0          -1          -1          -2           0          -1
          -1          -2           0           0           1           0
           0           1           0           0           1           0
           0           1
Number of primitives per shell             I   N=          20
           6           3           1           1           6           3
           1           1           3           1           1           3
           1           1           3           1           1           3
           1           1
Shell to atom map                          I   N=          20
           1           1           1           1           2           2
           2           2           3           3           3           4
           4           4           5           5           5           6
           6           6
Primitive exponents                        R   N=          42
  5.48467166E+03  8.25234946E+02  1.88046958E+02  5.29645000E+01  1.68975704E+01
  5.79963534E+00  1.55396162E+01  3.59993359E+00  1.01376175E+00  2.70005823E-01
  8.00000000E-01  5.48467166E+03  8.25234946E+02  1.88046958E+02  5.29645000E+01
  1.68975704E+01  5.79963534E+00  1.55396162E+01  3.59993359E+00  1.01376175E+00
  2.70005823E-01  8.00000000E-01  1.87311370E+01  2.82539436E+00  6.40121692E-01
  1.61277759E-01  1.10000000E+00  1.87311370E+01  2.82539436E+00  6.40121692E-01
  1.61277759E-01  1.10000000E+00  1.87311370E+01  2.82539436E+00  6.40121692E-01
  1.61277759E-01  1.10000000E+00  1.87311370E+01  2.82539436E+00  6.40121692E-01
  1.61277759E-01  1.10000000E+00
Contraction coefficients                   R   N=          42
  1.83107443E-03  1.39501722E-02  6.84450781E-02  2.32714336E-01  4.70192898E-01
  3.58520853E-01 -1.10777550E-01 -1.48026263E-01  1.13076702E+00  1.00000000E+00
  1.00000000E+00  1.83107443E-03  1.39501722E-02  6.84450781E-02  2.32714336E-01
  4.70192898E-01  3.58520853E-01 -1.10777550E-01 -1.48026263E-01  1.13076702E+00
  1.00000000E+00  1.00000000E+00  3.34946043E-02  2.34726953E-01  8.13757326E-01
  1.00000000E+00  1.00000000E+00  3.34946043E-02  2.34726953E-01  8.13757326E-01
  1.00000000E+00  1.00000000E+00  3.34946043E-02  2.34726953E-01  8.13757326E-01
  1.00000000E+00  1.00000000E+00  3.34946043E-02  2.34726953E-01  8.13757326E-01
  1.00000000E+00  1.00000000E+00
P(S=P) Contraction coefficients            R   N=          42
  0.00000000E+00  0.00000000E+00  0.00000000E+00  0.00000000E+00  0.00000000E+00
  0.00000000E+00  7.08742682E-02  3.39752839E-01  7.27158577E-01  1.00000000E+00
  0.00000000E+00  0.00000000E+00  0.00000000E+00  0.00000000E+00  0.00000000E+00
  0.00000000E+00  0.00000000E+00  7.08742682E-02  3.39752839E-01  7.27158577E-01
  1.00000000E+00  0.00000000E+00  0.00000000E+00  0.00000000E+00  0.00000000E+00
  0.00000000E+00  0.00000000E+00  0.00000000E+00  0.00000000E+00  0.00000000E+00
  0.00000000E+00  0.00000000E+00  0.00000000E+00  0.00000000E+00  0.00000000E+00
  0.00000000E+00  0.00000000E+00  0.00000000E+00  0.00000000E+00  0.00000000E+00
  0.00000000E+00  0.00000000E+00
Coordinates of each shell                  R   N=          60
  1.84053920E+01 -2.75148262E+01 -2.47254336E+01  1.84053920E+01 -2.75148262E+01
 -2.47254336E+01  1.84053920E+01 -2.75148262E+01 -2.47254336E+01  1.84053920E+01
 -2.75148262E+01 -2.47254336E+01  1.90577217E+01 -1.81470343E+01 -2.58786843E+01
  1.90577217E+01 -1.81470343E+01 -2.58786843E+01  1.90577217E+01 -1.81470343E+01
 -2.58786843E+01  1.90577217E+01 -1.81470343E+01 -2.58786843E+01  1.78327464E+01
 -2.63066431E+01 -2.35071158E+01  1.78327464E+01 -2.63066431E+01 -2.35071158E+01
  1.78327464E+01 -2.63066431E+01 -2.35071158E+01  2.01306987E+01 -2.70664981E+01
 -2.50324158E+01  2.01306987E+01 -2.70664981E+01 -2.50324158E+01  2.01306987E+01
 -2.70664981E+01 -2.50324158E+01  1.85910557E+01 -1.86665521E+01 -2.75472898E+01
  1.85910557E+01 -1.86665521E+01 -2.75472898E+01  1.85910557E+01 -1.86665521E+01
 -2.75472898E+01  1.75122961E+01 -1.81949823E+01 -2.49399156E+01  1.75122961E+01
 -1.81949823E+01 -2.49399156E+01  1.75122961E+01 -1.81949823E+01 -2.49399156E+01
Num ILSW                                   I              100
ILSW                                       I   N=         100
           0           0           0           0           2           0
           0           0           0           0           0          -1
           5           0           0           0           0           0
           0           0           0           0           0           0
           1           1           0           0           0           0
           0           0      100000           0          -1           0
           0           0           0           0           0           0
           0           0           0           1           0           0
           0 -2000000000           1           0           0           0
           0           0           4          52           0           0
           0           1           0           0           0           0
           0           0           0           6           0           1
           0           0           0           0           0           0
           0           0           0           0           0           0
           0           0           0           0           0           0
           0           0           0           0           0           0
           0           0           0           0
Num RLSW                                   I               52
RLSW                                       R   N=          52
  1.00000000E+00  1.00000000E+00  1.00000000E+00  1.00000000E+00  1.00000000E+00
  0.00000000E+00  0.00000000E+00  1.00000000E+00  0.00000000E+00  0.00000000E+00
  0.00000000E+00  0.00000000E+00  1.00000000E+00  0.00000000E+00  0.00000000E+00
  0.00000000E+00  0.00000000E+00  1.00000000E+00  0.00000000E+00  0.00000000E+00
  0.00000000E+00  0.00000000E+00  1.00000000E+00  0.00000000E+00  0.00000000E+00
  0.00000000E+00  0.00000000E+00  1.00000000E+00  0.00000000E+00  0.00000000E+00
  0.00000000E+00  0.00000000E+00  1.00000000E+00  0.00000000E+00  0.00000000E+00
  0.00000000E+00  0.00000000E+00  0.00000000E+00  1.00000000E+00  1.00000000E+00
  0.00000000E+00  1.00000000E+00  0.00000000E+00  0.00000000E+00  0.00000000E+00
  0.00000000E+00  0.00000000E+00  0.00000000E+00  0.00000000E+00  0.00000000E+00
  0.00000000E+00  0.00000000E+00
MxBond                                     I                2
NBond                                      I   N=           6
           2           2           1           1           1           1
IBond                                      I   N=          12
           3           4           5           6           1           0
           1           0           2           0           2           0
RBond                                      R   N=          12
  1.00000000E+00  1.00000000E+00  1.00000000E+00  1.00000000E+00  1.00000000E+00
  0.00000000E+00  1.00000000E+00  0.00000000E+00  1.00000000E+00  0.00000000E+00
  1.00000000E+00  0.00000000E+00
Virial Ratio                               R      2.097996717326735E+00
SCF Energy                                 R     -1.666523168641119E+02
Total Energy                               R     -1.666523168641119E+02
RMS Density                                R      1.288899991848378E-09
Job Status                                 I                1
Nuclear derivative order                   I                0
External E-field                           R   N=          35
  0.00000000E+00  0.00000000E+00  0.00000000E+00  0.00000000E+00  0.00000000E+00
  0.00000000E+00  0.00000000E+00  0.00000000E+00  0.00000000E+00  0.00000000E+00
  0.00000000E+00  0.00000000E+00  0.00000000E+00  0.00000000E+00  0.00000000E+00
  0.00000000E+00  0.00000000E+00  0.00000000E+00  0.00000000E+00  0.00000000E+00
  0.00000000E+00  0.00000000E+00  0.00000000E+00  0.00000000E+00  0.00000000E+00
  0.00000000E+00  0.00000000E+00  0.00000000E+00  0.00000000E+00  0.00000000E+00
  0.00000000E+00  0.00000000E+00  0.00000000E+00  0.00000000E+00  0.00000000E+00
IOpCl                                      I                0
IROHF                                      I                0
Alpha Orbital Energies                     R   N=          48
 -2.05824619E+01 -2.05122230E+01 -1.36419652E+00 -1.29401213E+00 -7.25463009E-01
 -6.56508730E-01 -6.03763733E-01 -5.35598077E-01 -5.24584591E-01 -4.56079114E-01
  2.12420366E-01  2.94712982E-01  3.10513675E-01  3.88539586E-01  9.85443251E-01
  1.05573884E+00  1.07355157E+00  1.13839402E+00  1.14576005E+00  1.14987431E+00
  1.20464731E+00  1.21787965E+00  1.27187028E+00  1.34012399E+00  1.57700916E+00
  1.65055622E+00  1.78235669E+00  1.80129657E+00  1.85142245E+00  1.87032598E+00
  1.89647273E+00  1.96516062E+00  2.56240326E+00  2.56929690E+00  2.63792991E+00
  2.63980357E+00  2.78712957E+00  2.85856217E+00  2.95915589E+00  2.97339678E+00
  3.03084063E+00  3.04335602E+00  3.35740625E+00  3.43043377E+00  3.72896551E+00
  3.80312767E+00  3.90487228E+00  3.97593306E+00
Alpha MO coefficients                      R   N=        2304
  9.95703165E-01  2.19791154E-02  1.03950766E-03  1.52389877E-03  7.77409594E-04
 -5.93391850E-03 -4.90053166E-04 -7.13499582E-04 -3.75157090E-04 -1.01196432E-04
 -2.67973250E-04  2.59164365E-04  1.80936239E-04 -8.12058034E-06 -1.87418754E-06
 -4.61271538E-06  2.05556455E-07 -1.67730710E-06  2.67233326E-07  2.12825545E-05
 -8.51619311E-06  2.81688905E-06  8.99306957E-08  5.46947619E-07 -9.56729763E-07
  3.15777943E-07  1.65463441E-06 -1.05439282E-07 -5.05687040E-04  1.25553742E-03
 -3.01336313E-04  7.90293257E-04  7.69409850E-04 -5.12212390E-04  1.26046874E-03
  1.09374524E-03  3.34948052E-04 -1.52653886E-04  3.44149290E-07 -7.81855165E-06
 -4.85401443E-08 -1.41456347E-06 -1.78027493E-06  3.50618203E-07 -1.75651526E-05
 -3.26840563E-06 -8.86308694E-07  2.44365274E-06  1.15487583E-06 -4.00192614E-06
  1.88341928E-07  4.21068893E-07 -3.43463656E-07  1.69228944E-05 -2.28790736E-06
  5.03590595E-06  6.51911231E-06  3.47698555E-07 -8.06866382E-07  1.90260016E-06
 -4.77993131E-07 -6.97280655E-07  9.95699971E-01  2.19901500E-02 -1.76281482E-03
 -5.46757484E-04 -6.20655565E-04 -5.94032519E-03  8.43287621E-04  2.53665849E-04
  3.02012977E-04  2.76530808E-04 -1.58648151E-04  1.66288287E-04  2.20326355E-04
  5.23987159E-05 -5.47702220E-07 -1.73283560E-05 -1.35556928E-06  2.86154570E-06
  2.67324842E-06 -1.48530273E-08 -1.16070282E-06  5.73107293E-07  1.69909421E-08
 -5.24935301E-07 -5.01703121E-04  1.25674574E-03 -3.54540426E-04 -3.31665982E-04
 -1.02691258E-03 -5.05305602E-04  1.25721122E-03 -1.00404584E-03 -5.01648931E-05
  5.37298068E-04 -2.12971060E-01  4.70717752E-01  4.11167215E-02  6.08826790E-02
  3.10550447E-02  4.47070671E-01  1.14386739E-02  2.27519081E-02  7.67035871E-03
 -1.25036732E-03 -7.72651951E-04  2.42670668E-03  1.74129598E-05  2.94405599E-03
 -1.37904387E-05  6.89060612E-05 -7.35681671E-06 -2.79710510E-06 -2.53451595E-06
 -1.25941793E-04  5.15097243E-05 -8.05521809E-06  2.48340984E-05 -6.14181635E-06
  2.17048184E-06 -3.86490086E-06 -6.63508355E-06 -8.56653383E-07  1.41709674E-01
  6.34276816E-03  1.06020264E-02 -1.67332264E-02 -1.76554016E-02  1.43865522E-01
  1.00519188E-02 -2.53110605E-02 -4.48132275E-03  5.48844309E-03  1.16892750E-05
  1.09132867E-04  2.70198142E-06  7.06898986E-06  1.70991545E-05  1.21187642E-05
  1.03069826E-04  1.40493590E-05  1.73005483E-06 -1.12893534E-05  3.45975215E-05
  1.81819772E-05 -7.10235633E-06 -1.29669565E-06  1.78084817E-06 -4.42989214E-04
  4.48652498E-06 -1.08004514E-04 -1.13285576E-04 -4.23295336E-07  1.32147944E-05
 -2.48044573E-05  1.13020326E-06  5.26347813E-06 -2.13342281E-01  4.70736917E-01
 -7.09075431E-02 -2.17323567E-02 -2.49049058E-02  4.50134205E-01 -2.02066608E-02
 -9.31604861E-03 -5.38571500E-03  6.34637373E-04  6.99822391E-04  1.16897752E-03
  2.99771220E-03  1.00241284E-03 -9.25566783E-06  3.79086738E-04  1.75076075E-05
 -3.28585462E-05 -3.26012759E-05 -1.27806264E-05  1.11411089E-04 -1.62806550E-05
 -8.27122980E-07  7.66852052E-06  1.41818082E-01  7.43517100E-03  5.35210078E-03
  7.42230002E-03  2.47784666E-02  1.41882732E-01  7.17847329E-03  2.20216720E-02
 -1.44332158E-04 -1.49190600E-02  1.84054544E-03 -3.46720308E-03  4.09082048E-01
 -1.28214344E-01 -2.71333402E-01 -1.13616979E-02  2.35086200E-01 -7.01725821E-02
 -1.58945123E-01 -1.10096709E-02  9.88719882E-04 -1.63119280E-02  1.93562435E-02
  1.54402302E-02 -1.78581556E-05  3.34903496E-05  8.67600758E-05  3.88589261E-05
 -1.61809711E-04  1.14233328E-04  2.10006590E-05  7.13154830E-05 -5.13242228E-05
  4.20599281E-06  1.91126857E-06  3.26912141E-06  2.64252691E-06 -5.84395882E-06
 -2.32473237E-01 -1.08636725E-01  5.28608231E-04  1.73820246E-02  1.41632401E-02
  2.39060235E-01  1.19371457E-01 -1.95975387E-02 -1.04600455E-02 -3.04601671E-03
  7.77395751E-05  9.31874049E-05  7.05627109E-06  3.40888256E-06  1.08773304E-05
 -6.63018744E-05 -2.35779952E-04 -2.09113598E-05  1.84138770E-06  7.57136997E-06
  1.19536826E-05  2.22659903E-06  2.30471185E-04 -3.67538386E-05 -7.71981500E-05
 -1.53663091E-04  3.49900330E-04 -1.33698023E-04 -1.92595683E-04 -1.92547296E-05
  7.77492946E-06 -3.13168305E-05  3.47296760E-05  2.78569472E-05  1.70357032E-04
 -9.47557432E-04 -1.89827117E-01  8.41173902E-02  4.63731778E-01  3.42527728E-04
 -1.11436993E-01  4.95657366E-02  2.74697549E-01 -1.52159941E-02 -2.21910607E-02
 -9.93059089E-03  1.20290708E-02 -1.12184024E-03 -7.98292885E-05  4.49955017E-04
  1.42836991E-05 -2.35816976E-05 -2.90981576E-05  1.32950522E-04 -2.94192424E-04
  1.99206116E-05  7.93760925E-06 -1.39323232E-06 -2.32852063E-01 -1.07608992E-01
 -1.43744100E-02 -6.77740511E-03 -1.66524523E-02  2.31184173E-01  1.08468134E-01
  2.28195182E-02  2.61002425E-03 -2.92507773E-03  6.51817879E-02 -1.51109933E-01
  2.82822119E-01  4.12909931E-01  2.38432809E-01 -2.81769355E-01  2.12971520E-01
  3.05675533E-01  1.75412208E-01 -7.48920365E-03  4.86571371E-03  1.59725040E-02
 -4.74388244E-03  1.45377143E-02  7.41632576E-05 -4.88543466E-05 -7.55792603E-05
 -4.51454622E-04 -2.51253598E-05 -8.55844523E-04  1.89092785E-04 -4.79698585E-04
  1.00668201E-04 -2.35877691E-05  9.83766017E-06 -6.78058892E-06 -3.27701776E-05
  1.68624992E-05  1.46201213E-01  6.49086158E-02  1.41474421E-02 -2.31975262E-03
 -7.11934623E-03  1.39423229E-01  6.69429388E-02 -1.06928843E-02  7.70510612E-03
  9.30540959E-03  4.24577354E-05  5.34921130E-04  6.61533433E-06  1.73185903E-05
  5.29259547E-05 -1.99080952E-05  5.73140264E-04  4.21204429E-05 -1.07699916E-06
 -3.69621500E-05  2.50094370E-06 -4.78042157E-05  6.12796631E-04 -8.88467223E-04
  1.50345876E-03  2.11648938E-04  3.27293317E-04 -6.39431559E-04  1.39533349E-03
  4.35269911E-05  2.60505572E-05  6.64891440E-05  2.16797834E-05 -1.64218024E-05
 -6.27326994E-02  1.43938442E-01  5.10002602E-01  1.24180231E-01  1.86374925E-01
  2.69696013E-01  3.83053468E-01  8.88154757E-02  1.41916488E-01  4.17708275E-03
 -8.44796252E-03 -5.47039659E-03 -1.62231529E-02 -1.09408218E-02  1.23699879E-04
 -6.09853073E-04  7.61797287E-06  1.74678811E-06  7.03870210E-05  6.91583729E-05
  1.49189354E-04 -3.85139902E-06 -3.45963936E-05  4.30593696E-05 -1.41377120E-01
 -5.57269554E-02  7.50690602E-03 -2.14204963E-03 -1.29424644E-02 -1.43955444E-01
 -5.58223159E-02 -4.12585381E-03  3.18821353E-03  1.44175379E-02 -2.46876560E-03
  1.02366607E-02  1.87552583E-01 -3.91352124E-01  4.63824896E-01  2.73037767E-03
  1.43337222E-01 -3.10861044E-01  3.71317531E-01  1.11118818E-02  1.07199867E-02
  9.55441576E-03  1.49730659E-02 -1.33319102E-03  1.33120176E-04 -5.36705491E-04
 -1.61200327E-03  8.77042240E-05 -7.27769878E-04  3.53682314E-04 -1.52781025E-03
  9.90757884E-05 -8.38886819E-04  3.70224432E-05  3.41676889E-05  4.21508980E-05
  8.53730299E-05  2.69038491E-05 -2.15241724E-03 -3.87556075E-03  5.55811901E-03
 -1.11072315E-02  1.41693290E-02  6.62683366E-03 -5.85881323E-03  5.15396591E-03
 -1.22818069E-02  1.43588872E-02  4.54318139E-04 -8.21781796E-04 -4.32408681E-05
 -1.77323933E-05 -6.05681230E-05  4.16821030E-04 -4.01449214E-04 -3.93711059E-05
 -2.89249979E-06 -1.32274141E-06 -1.10591528E-04 -6.05121215E-04  7.20386264E-05
  1.03397592E-03 -6.31869773E-05  3.91002191E-03  1.16885226E-04  1.90652100E-03
  1.01745233E-03 -2.12701617E-05 -1.14887243E-04  2.16367793E-04 -2.92740520E-05
 -2.13108429E-05 -3.75677059E-03  1.18990283E-02 -9.64463523E-02  6.08036567E-01
 -1.49011346E-01  1.17550896E-02 -8.24526087E-02  4.85586656E-01 -1.20282718E-01
  4.22456076E-03  5.50951820E-03 -4.46837579E-03  9.76754397E-03 -1.77872333E-02
  2.14094236E-04 -4.05515904E-03 -1.35493968E-04  2.69392519E-04  2.37465305E-04
  7.61124509E-05 -1.49707405E-03  1.50427274E-04  3.84418716E-05 -6.81389584E-05
 -3.40057640E-03 -4.52408217E-03 -2.89996034E-03  1.79505603E-02 -5.17557132E-03
 -3.62525302E-03 -8.07497550E-03 -3.47767173E-03  1.81327442E-02 -3.92626394E-03
 -8.83415637E-02  1.15689014E-01  1.29876618E-01  1.43314900E-01  5.44897029E-02
  1.20180349E+00  3.43096157E-01  3.38814892E-01  1.48683635E-01 -8.33299981E-03
 -4.21245788E-03  1.17142267E-02  6.16660574E-03  9.90346850E-03 -5.75124110E-03
  5.93473714E-03 -9.71493229E-03 -8.07271666E-03 -1.70789386E-03  8.28644851E-02
 -3.15890087E-02 -6.68258115E-03 -9.89105886E-03  7.72083594E-04 -2.78401764E-04
  7.45341484E-04  1.50950612E-03  5.06970026E-04 -6.06239497E-02 -8.30517237E-01
 -4.55925532E-03  6.16167850E-03  5.56935117E-03 -7.10588672E-02 -1.16693000E+00
  1.45426462E-02  2.24058929E-03 -2.62905986E-03 -2.45242185E-03 -6.47010010E-02
 -2.64417910E-04 -9.72563017E-04 -1.53946712E-03 -2.09510593E-03 -7.12520479E-02
 -1.55613817E-03 -4.07726613E-04  1.22601229E-03  3.84820148E-03 -8.17276571E-03
 -7.10487851E-02  1.60603763E-02  4.03159702E-02 -4.23563720E-02 -1.83474217E-01
  4.30300385E-02  1.07923980E-01  3.07372994E-03 -6.97957815E-04  4.27516589E-03
 -4.89628620E-03 -4.16893714E-03 -8.74062905E-02  1.23993407E-01 -1.64273849E-01
 -5.42901680E-02 -5.73132778E-02  1.16176141E+00 -4.34054021E-01 -1.21621602E-01
 -1.65387084E-01  4.83539074E-03  8.43082969E-04  6.69622543E-03  1.29578568E-02
  6.40307930E-03 -1.04258501E-02 -3.21560836E-01 -2.14150848E-03  3.18844019E-03
  3.51746915E-03  2.02740363E-02  3.95428321E-01 -3.43712073E-03 -2.06351707E-04
  4.48151555E-04 -7.18298591E-02 -9.75348859E-01 -3.20835767E-03 -3.79888056E-03
 -1.03966004E-02 -6.67465707E-02 -9.64074150E-01 -9.57039405E-03  9.36967891E-05
  5.67724892E-03  1.17772515E-02 -2.24610410E-02  2.40962934E-01 -1.03214509E-01
 -1.83339969E-01 -1.43762861E-01  6.15310048E-01 -2.57343629E-01 -4.51381460E-01
 -9.04008796E-03  8.77804037E-04 -1.45756253E-02  1.68655571E-02  1.16456505E-02
 -2.29134212E-02  3.44634605E-02 -3.81279374E-02 -1.35829023E-02 -2.87683103E-02
  2.98698772E-01 -9.70294897E-02 -3.92458116E-02 -7.90960079E-02  1.92889428E-03
  1.91303164E-03  2.06579343E-03  2.09693618E-03  1.76385293E-03  7.37660991E-02
  1.46605858E+00  6.02299923E-03 -7.06963507E-03 -8.48387081E-03 -5.29261659E-02
 -1.21465233E+00  1.21652768E-02  5.11853516E-04 -2.85917175E-03 -2.18891426E-02
 -3.18815779E-01 -1.16045114E-03 -8.58491529E-04 -3.26835534E-03 -1.85173586E-02
 -1.81585174E-01 -5.38012607E-04  2.17962307E-04  2.27075951E-04 -9.45201533E-04
  2.87680151E-03 -1.33310213E-02  6.81041477E-03  1.03160357E-02  8.61457880E-03
 -2.71992438E-02  1.20610220E-02  2.09704764E-02 -5.36072319E-05  1.90198662E-04
 -1.46437724E-04 -1.55480228E-05  1.02013390E-04  1.39055390E-03 -3.36620378E-03
  1.28124834E-01 -5.23117752E-02 -3.03973380E-01 -1.56827837E-02  3.17696766E-01
 -1.34818291E-01 -7.50277219E-01  1.21384350E-02  1.71568039E-02  7.59366511E-03
 -9.49262511E-03  8.05620797E-04 -5.61583312E-03 -7.15313048E-02  6.55514276E-05
 -6.75208545E-04 -7.35493412E-04  4.01429155E-03  5.41309399E-02  2.26458739E-04
  3.96168104E-04  1.15646959E-04 -6.38106527E-02 -1.37750146E+00 -2.33759365E-03
 -2.67359806E-03 -1.08785573E-02  6.56105571E-02  1.40650164E+00  9.89673472E-03
 -9.90489179E-04 -6.60266202E-03  3.42876069E-03 -2.61396891E-02 -9.85983851E-02
  3.58548551E-02  3.45315955E-02  3.25275586E-02 -3.25751119E-01  9.11854533E-02
  2.36851170E-01 -1.08527122E-01  6.62371262E-03 -1.29939643E-01  1.72471640E-01
  1.25537265E-01 -7.42779068E-04  5.09947505E-03 -6.26930393E-03  3.65352387E-03
  3.71918611E-03 -3.99157198E-03 -1.11044045E-03 -2.52777722E-03  5.71300210E-03
  1.68338055E-03  4.90374606E-03  7.89271265E-04 -3.41304208E-03  1.70977312E-04
 -7.35552789E-01  5.70571681E-01 -1.74413527E-02 -7.86208273E-02 -5.93031129E-02
  8.09048808E-01 -6.28394587E-01  9.66917175E-02  6.20785069E-02  9.49359168E-03
  9.03189735E-03 -6.51356479E-03 -1.58572750E-03 -2.41329667E-04 -6.32646351E-04
 -2.11677160E-02  1.19822504E-02  4.25430078E-03  4.10660001E-04 -2.20279819E-03
  1.18492586E-03 -1.03109846E-02 -3.88139206E-03 -1.56327231E-02 -1.18087704E-02
  2.06961234E-02 -9.57121209E-03  1.64244299E-02  1.76837974E-02 -3.28008557E-03
 -5.05056214E-03  3.28671562E-03  5.58576015E-03  1.40545211E-03 -2.76467307E-04
  3.12890493E-03  3.96240995E-02 -1.26418466E-02 -7.41009132E-02 -2.44252509E-03
  1.64374923E-01 -7.56339885E-02 -4.17470005E-01 -1.41201075E-01 -1.88953295E-01
 -7.55777148E-02  1.03654905E-01 -1.51041282E-02  3.77534282E-03 -1.20093340E-02
 -4.84501778E-03  3.54501988E-03  4.87091866E-03  3.49617247E-02 -2.76151510E-02
  5.67307429E-03  6.10353190E-04 -1.88226992E-03 -7.76410051E-01  5.75332799E-01
  6.52482384E-02  3.05626168E-02  6.93418241E-02  7.77633289E-01 -5.75724329E-01
 -9.90491103E-02 -1.68168223E-02  1.11885218E-02  2.73603420E-02 -2.15570280E-01
 -3.36803968E-01 -4.09209117E-01 -2.74173310E-01  5.38314289E-01  3.08898485E-01
  3.12177619E-01  2.08586672E-01 -5.42485547E-02 -1.58030538E-01  1.54953817E-01
  1.00839029E-01 -1.00599919E-02  2.99975690E-03 -2.24658685E-02  3.22378559E-02
 -1.63177209E-02  1.65873967E-02  3.21269761E-02 -2.73522429E-02  2.31458745E-02
  3.38515325E-03  1.41688759E-02  3.46390482E-04  8.09910290E-03  4.62113693E-03
  2.05831220E-03  6.22917134E-01 -6.15780932E-01 -1.14888979E-01  9.96447623E-02
  1.24812389E-01  5.48274302E-01 -5.96735213E-01  1.86136746E-01  4.28215489E-05
 -7.82928708E-02  6.24322698E-02 -4.84668499E-02 -1.30001672E-03 -4.90434643E-03
 -1.35891983E-02  1.24797944E-02 -1.14013782E-02 -5.56869410E-03  2.99340379E-04
  9.52069064E-03 -7.44210691E-03  2.52926201E-02  1.76515927E-01 -6.67580635E-01
  6.57605893E-01  7.02481838E-02 -1.47747711E-01  7.58618764E-01 -6.95396499E-01
 -9.13274210E-03 -1.43535769E-03 -1.16150528E-02  8.21089920E-04  7.98951441E-03
 -3.56638625E-03  2.89193997E-02 -7.74022886E-02 -1.18384809E-02 -3.15070107E-02
 -7.32481255E-02  6.44885137E-02  8.15571943E-03  2.88350886E-02 -2.20069314E-02
  1.24061522E-02 -1.29572898E-02 -1.68364080E-02 -4.00705580E-03 -5.56764365E-02
  8.35827231E-03  1.28647896E-03 -5.63636163E-03  1.38778770E-02 -3.06435027E-02
 -9.00389724E-02  2.70218936E-02  9.10215338E-04  6.66832458E-03 -7.54818997E-02
  8.12547645E-02 -1.70437926E-03  6.99099823E-03  2.66663821E-02 -7.73252315E-02
  7.95564309E-02  1.72392234E-02 -1.49399116E-03 -2.05217906E-02 -2.68914657E-02
  1.89334500E-01 -2.26230352E-01 -1.14703314E-01 -2.47875938E-01 -4.45653815E-02
  3.24142525E-01  2.15637532E-01  3.13167235E-01  5.56580809E-03  2.64239785E-02
 -1.71595024E-02 -1.50660241E-02  7.03947477E-03 -1.99921597E-02  1.57106484E-01
 -5.29415641E-01 -9.06072052E-02 -2.06862165E-01 -4.60308149E-01  4.56488674E-01
  6.77078466E-02  1.83967858E-01 -1.45154208E-01  8.05299879E-02 -8.54143452E-02
 -1.09808407E-01 -2.65528323E-02 -1.60760125E-01  2.27969860E-02  6.48916826E-03
  9.01760202E-03  1.44307054E-03 -1.72898092E-01 -3.31518465E-05  1.20525831E-02
  1.24571683E-02  2.71902203E-03 -4.99055960E-01  5.41677244E-01 -1.18393480E-02
  4.48690580E-02  1.73049646E-01 -4.94126596E-01  5.25963357E-01  1.12384703E-01
 -1.04251005E-02 -1.35113619E-01 -6.11302994E-02  4.08446526E-01 -3.45543417E-01
 -4.15343231E-01 -3.01665946E-01 -1.13062207E-01  5.34626275E-01  6.88689668E-01
  4.62072726E-01  1.80682365E-02  8.10268418E-02 -6.25222948E-02 -4.94948849E-02
  1.89258812E-02  8.40775030E-03 -6.57994648E-02  2.50927651E-01  5.80219633E-02
  9.64179366E-02  2.12458372E-01 -2.19626579E-01 -4.93496921E-02 -8.82048141E-02
  6.75438827E-02 -3.77949573E-02  3.97947663E-02  5.12481958E-02  1.25167127E-02
 -4.79632204E-01  1.25071178E-01  2.71606232E-02  1.35027603E-02 -6.97060704E-04
 -4.43960365E-01  8.17889396E-02  2.78935894E-03  2.82927496E-02  2.16189220E-02
  2.29227242E-01 -2.54812577E-01  5.59379903E-03 -2.05663759E-02 -8.10388142E-02
  2.29855395E-01 -2.48359626E-01 -5.23599983E-02  5.25653530E-03  6.28996605E-02
 -5.79755427E-04 -1.75830183E-03  1.17326798E-02 -2.11072223E-03 -5.94414686E-03
  2.86840760E-03 -1.81051454E-02  1.20615795E-02  1.66411927E-02  1.90738281E-03
  4.19883082E-03 -2.68686733E-03 -3.94436719E-03 -2.02508450E-04 -2.27254359E-02
  1.69585357E-01  3.11587991E-01 -8.33896738E-01  2.76925012E-01 -1.14871994E-01
 -4.31628336E-01  8.72765520E-01 -3.30332704E-01 -3.68181923E-02  2.51067810E-02
 -2.16493853E-02 -2.16493266E-02 -9.26395480E-03 -2.19823761E-02  1.62665889E-04
  1.24545059E-03  1.75481295E-03  9.25737736E-04 -1.41019290E-02  2.22423221E-02
 -4.93973845E-03  3.61992849E-04  2.31449389E-03 -1.87977327E-01  9.18020533E-02
 -6.67597679E-03 -1.05719389E-02  2.12300342E-02 -1.91765844E-01  9.17518014E-02
  7.42404911E-03 -1.71781172E-02 -1.48992506E-02 -6.75622696E-04 -1.60639625E-03
  2.72982312E-02 -1.14658665E-02 -1.33073885E-02  3.57784629E-03 -4.84463184E-02