 Entering Gaussian System, Link 0=g16
 Input=w32_37.gjf
 Output=w32_37.log
 Initial command:
 /home/soft/g16/l1.exe "/tmp/liwei01/gaussian/wsr/Gau-6820.inp" -scrdir="/tmp/liwei01/gaussian/wsr/"
 Entering Link 1 = /home/soft/g16/l1.exe PID=      6821.
  
 Copyright (c) 1988,1990,1992,1993,1995,1998,2003,2009,2016,
            Gaussian, Inc.  All Rights Reserved.
  
 This is part of the Gaussian(R) 16 program.  It is based on
 the Gaussian(R) 09 system (copyright 2009, Gaussian, Inc.),
 the Gaussian(R) 03 system (copyright 2003, Gaussian, Inc.),
 the Gaussian(R) 98 system (copyright 1998, Gaussian, Inc.),
 the Gaussian(R) 94 system (copyright 1995, Gaussian, Inc.),
 the Gaussian 92(TM) system (copyright 1992, Gaussian, Inc.),
 the Gaussian 90(TM) system (copyright 1990, Gaussian, Inc.),
 the Gaussian 88(TM) system (copyright 1988, Gaussian, Inc.),
 the Gaussian 86(TM) system (copyright 1986, Carnegie Mellon
 University), and the Gaussian 82(TM) system (copyright 1983,
 Carnegie Mellon University). Gaussian is a federally registered
 trademark of Gaussian, Inc.
  
 This software contains proprietary and confidential information,
 including trade secrets, belonging to Gaussian, Inc.
  
 This software is provided under written license and may be
 used, copied, transmitted, or stored only in accord with that
 written license.
  
 The following legend is applicable only to US Government
 contracts under FAR:
  
                    RESTRICTED RIGHTS LEGEND
  
 Use, reproduction and disclosure by the US Government is
 subject to restrictions as set forth in subparagraphs (a)
 and (c) of the Commercial Computer Software - Restricted
 Rights clause in FAR 52.227-19.
  
 Gaussian, Inc.
 340 Quinnipiac St., Bldg. 40, Wallingford CT 06492
  
  
 ---------------------------------------------------------------
 Warning -- This program may not be used in any manner that
 competes with the business of Gaussian, Inc. or will provide
 assistance to any competitor of Gaussian, Inc.  The licensee
 of this program is prohibited from giving any competitor of
 Gaussian, Inc. access to this program.  By using this program,
 the user acknowledges that Gaussian, Inc. is engaged in the
 business of creating and licensing software in the field of
 computational chemistry and represents and warrants to the
 licensee that it is not a competitor of Gaussian, Inc. and that
 it will not use this program in any manner prohibited above.
 ---------------------------------------------------------------
  

 Cite this work as:
 Gaussian 16, Revision A.03,
 M. J. Frisch, G. W. Trucks, H. B. Schlegel, G. E. Scuseria, 
 M. A. Robb, J. R. Cheeseman, G. Scalmani, V. Barone, 
 G. A. Petersson, H. Nakatsuji, X. Li, M. Caricato, A. V. Marenich, 
 J. Bloino, B. G. Janesko, R. Gomperts, B. Mennucci, H. P. Hratchian, 
 J. V. Ortiz, A. F. Izmaylov, J. L. Sonnenberg, D. Williams-Young, 
 F. Ding, F. Lipparini, F. Egidi, J. Goings, B. Peng, A. Petrone, 
 T. Henderson, D. Ranasinghe, V. G. Zakrzewski, J. Gao, N. Rega, 
 G. Zheng, W. Liang, M. Hada, M. Ehara, K. Toyota, R. Fukuda, 
 J. Hasegawa, M. Ishida, T. Nakajima, Y. Honda, O. Kitao, H. Nakai, 
 T. Vreven, K. Throssell, J. A. Montgomery, Jr., J. E. Peralta, 
 F. Ogliaro, M. J. Bearpark, J. J. Heyd, E. N. Brothers, K. N. Kudin, 
 V. N. Staroverov, T. A. Keith, R. Kobayashi, J. Normand, 
 K. Raghavachari, A. P. Rendell, J. C. Burant, S. S. Iyengar, 
 J. Tomasi, M. Cossi, J. M. Millam, M. Klene, C. Adamo, R. Cammi, 
 J. W. Ochterski, R. L. Martin, K. Morokuma, O. Farkas, 
 J. B. Foresman, and D. J. Fox, Gaussian, Inc., Wallingford CT, 2016.
 
 ******************************************
 Gaussian 16:  ES64L-G16RevA.03 25-Dec-2016
                15-May-2020 
 ******************************************
 %chk=w32_37.chk
 %nproc=4
 Will use up to    4 processors via shared memory.
 %mem=1gb
 -----------------------------------------
 #p hf/6-31g** 5d 7f pop=npa charge nosymm
 -----------------------------------------
 1/18=10,28=-2,38=1,125=101,172=1/1;
 2/12=2,15=1,17=6,18=5,40=1/2;
 3/5=1,6=6,7=101,8=11,11=9,25=1,30=1/1,2,3;
 4//1;
 5/5=2,38=5/2;
 6/7=2,8=2,9=2,10=2,28=1,40=-1/1,7;
 99/5=1,9=1/99;
 Leave Link    1 at Fri May 15 22:35:41 2020, MaxMem=   134217728 cpu:               0.2 elap:               0.1
 (Enter /home/soft/g16/l101.exe)
 --------------
 Atom number=12
 --------------
 Symbolic Z-matrix:
 Charge =  0 Multiplicity = 1
 o                     8.39232  -11.81294  -11.20048 
 o                     7.25028  -9.85963  -13.10346 
 o                     6.96619  -9.24779  -10.27431 
 o                     4.64126  -8.13828  -12.67115 
 h                     8.17528  -12.53782  -10.61424 
 h                     9.25215  -11.5141  -10.90447 
 h                     7.12066  -10.22147  -13.9801 
 h                     7.34148  -10.62674  -12.53826 
 h                     6.97515  -9.84502  -11.02229 
 h                     7.68438  -8.63847  -10.4451 
 h                     4.59781  -7.27204  -12.2662 
 h                     5.5765   -8.33841  -12.70997 
 
 ITRead=  0  0  0  0  0  0  0  0  0  0  0  0
 MicOpt= -1 -1 -1 -1 -1 -1 -1 -1 -1 -1 -1 -1
 NAtoms=     12 NQM=       12 NQMF=       0 NMMI=      0 NMMIF=      0
                NMic=       0 NMicF=      0.
                    Isotopes and Nuclear Properties:
 (Nuclear quadrupole moments (NQMom) in fm**2, nuclear magnetic moments (NMagM)
  in nuclear magnetons)

  Atom         1           2           3           4           5           6           7           8           9          10
 IAtWgt=          16          16          16          16           1           1           1           1           1           1
 AtmWgt=  15.9949146  15.9949146  15.9949146  15.9949146   1.0078250   1.0078250   1.0078250   1.0078250   1.0078250   1.0078250
 NucSpn=           0           0           0           0           1           1           1           1           1           1
 AtZEff=  -0.0000000  -0.0000000  -0.0000000  -0.0000000  -0.0000000  -0.0000000  -0.0000000  -0.0000000  -0.0000000  -0.0000000
 NQMom=    0.0000000   0.0000000   0.0000000   0.0000000   0.0000000   0.0000000   0.0000000   0.0000000   0.0000000   0.0000000
 NMagM=    0.0000000   0.0000000   0.0000000   0.0000000   2.7928460   2.7928460   2.7928460   2.7928460   2.7928460   2.7928460
 AtZNuc=   8.0000000   8.0000000   8.0000000   8.0000000   1.0000000   1.0000000   1.0000000   1.0000000   1.0000000   1.0000000

  Atom        11          12
 IAtWgt=           1           1
 AtmWgt=   1.0078250   1.0078250
 NucSpn=           1           1
 AtZEff=  -0.0000000  -0.0000000
 NQMom=    0.0000000   0.0000000
 NMagM=    2.7928460   2.7928460
 AtZNuc=   1.0000000   1.0000000
 Background charge distribution read from input stream:
 Point Charges:
 XYZ=   10.7060  -10.8489  -10.0915 Q=   -1.0357 A=    0.0000 R=    0.0000 C=    0.0000
 XYZ=   11.5214  -11.3203   -9.9208 Q=    0.5206 A=    0.0000 R=    0.0000 C=    0.0000
 XYZ=   10.5678  -10.3169   -9.3078 Q=    0.5156 A=    0.0000 R=    0.0000 C=    0.0000
 XYZ=    8.6932  -14.0693   -9.5471 Q=   -1.0099 A=    0.0000 R=    0.0000 C=    0.0000
 XYZ=    8.2201  -13.7327   -8.7861 Q=    0.4999 A=    0.0000 R=    0.0000 C=    0.0000
 XYZ=    8.5528  -15.0157   -9.5178 Q=    0.5079 A=    0.0000 R=    0.0000 C=    0.0000
 XYZ=    5.5704  -12.7600  -10.7338 Q=   -1.0500 A=    0.0000 R=    0.0000 C=    0.0000
 XYZ=    4.6427  -12.8278  -10.5079 Q=    0.5214 A=    0.0000 R=    0.0000 C=    0.0000
 XYZ=    5.9838  -12.4052   -9.9468 Q=    0.5064 A=    0.0000 R=    0.0000 C=    0.0000
 XYZ=    6.9426  -11.8294   -8.3710 Q=   -1.0528 A=    0.0000 R=    0.0000 C=    0.0000
 XYZ=    7.4956  -12.0911   -7.6348 Q=    0.5210 A=    0.0000 R=    0.0000 C=    0.0000
 XYZ=    7.3075  -10.9928   -8.6597 Q=    0.5255 A=    0.0000 R=    0.0000 C=    0.0000
 XYZ=    9.7397  -14.5602  -13.0841 Q=   -1.0029 A=    0.0000 R=    0.0000 C=    0.0000
 XYZ=    9.4367  -13.9209  -12.4394 Q=    0.5215 A=    0.0000 R=    0.0000 C=    0.0000
 XYZ=   10.6527  -14.3230  -13.2466 Q=    0.4988 A=    0.0000 R=    0.0000 C=    0.0000
 XYZ=   10.0849   -9.6030  -13.6944 Q=   -1.0549 A=    0.0000 R=    0.0000 C=    0.0000
 XYZ=    9.8380   -9.8779  -14.5774 Q=    0.5180 A=    0.0000 R=    0.0000 C=    0.0000
 XYZ=    9.2671   -9.6284  -13.1976 Q=    0.5226 A=    0.0000 R=    0.0000 C=    0.0000
 XYZ=    9.4738   -7.9972  -10.9180 Q=   -0.9971 A=    0.0000 R=    0.0000 C=    0.0000
 XYZ=    9.9975   -8.7956  -10.8516 Q=    0.5301 A=    0.0000 R=    0.0000 C=    0.0000
 XYZ=    9.6234   -7.5424  -10.0892 Q=    0.4920 A=    0.0000 R=    0.0000 C=    0.0000
 XYZ=    8.4516  -10.6356  -15.6859 Q=   -1.0322 A=    0.0000 R=    0.0000 C=    0.0000
 XYZ=    8.1250  -10.4069  -16.5562 Q=    0.4798 A=    0.0000 R=    0.0000 C=    0.0000
 XYZ=    9.2622  -11.1166  -15.8526 Q=    0.5341 A=    0.0000 R=    0.0000 C=    0.0000
 XYZ=    4.0391  -11.2243  -12.8044 Q=   -0.9921 A=    0.0000 R=    0.0000 C=    0.0000
 XYZ=    4.5248  -12.0476  -12.7552 Q=    0.4802 A=    0.0000 R=    0.0000 C=    0.0000
 XYZ=    4.4321  -10.7575  -13.5420 Q=    0.5046 A=    0.0000 R=    0.0000 C=    0.0000
 XYZ=    5.5848  -15.5922  -11.4699 Q=   -1.0129 A=    0.0000 R=    0.0000 C=    0.0000
 XYZ=    4.6785  -15.3483  -11.6582 Q=    0.5050 A=    0.0000 R=    0.0000 C=    0.0000
 XYZ=    6.0031  -14.7735  -11.2032 Q=    0.5257 A=    0.0000 R=    0.0000 C=    0.0000
 XYZ=    8.8013  -12.4259   -6.4973 Q=   -0.9852 A=    0.0000 R=    0.0000 C=    0.0000
 XYZ=    9.0556  -11.7490   -5.8701 Q=    0.5006 A=    0.0000 R=    0.0000 C=    0.0000
 XYZ=    8.9395  -13.2499   -6.0303 Q=    0.5083 A=    0.0000 R=    0.0000 C=    0.0000
 XYZ=   10.5523   -9.0602   -7.7657 Q=   -0.9799 A=    0.0000 R=    0.0000 C=    0.0000
 XYZ=   10.0296   -9.4526   -7.0665 Q=    0.5003 A=    0.0000 R=    0.0000 C=    0.0000
 XYZ=   10.0576   -8.2839   -8.0284 Q=    0.4937 A=    0.0000 R=    0.0000 C=    0.0000
 XYZ=    8.4919  -14.1596  -15.7110 Q=   -0.9823 A=    0.0000 R=    0.0000 C=    0.0000
 XYZ=    8.8439  -15.0437  -15.8144 Q=    0.4799 A=    0.0000 R=    0.0000 C=    0.0000
 XYZ=    8.9183  -13.8221  -14.9233 Q=    0.4950 A=    0.0000 R=    0.0000 C=    0.0000
 XYZ=   10.6752  -11.9252  -15.8192 Q=   -0.9837 A=    0.0000 R=    0.0000 C=    0.0000
 XYZ=   11.1454  -12.2597  -15.0555 Q=    0.5055 A=    0.0000 R=    0.0000 C=    0.0000
 XYZ=   10.7694  -12.6123  -16.4789 Q=    0.5125 A=    0.0000 R=    0.0000 C=    0.0000
 XYZ=    7.7593  -16.5050  -13.2460 Q=   -1.0112 A=    0.0000 R=    0.0000 C=    0.0000
 XYZ=    7.3079  -16.2111  -12.4547 Q=    0.4926 A=    0.0000 R=    0.0000 C=    0.0000
 XYZ=    8.5373  -15.9498  -13.2987 Q=    0.4973 A=    0.0000 R=    0.0000 C=    0.0000
 XYZ=   13.4576  -11.7733   -9.7740 Q=   -0.9993 A=    0.0000 R=    0.0000 C=    0.0000
 XYZ=   13.9089  -10.9962  -10.1037 Q=    0.5128 A=    0.0000 R=    0.0000 C=    0.0000
 XYZ=   14.1508  -12.4236   -9.6612 Q=    0.5076 A=    0.0000 R=    0.0000 C=    0.0000
 XYZ=    5.5914  -15.5335   -8.7002 Q=   -1.0162 A=    0.0000 R=    0.0000 C=    0.0000
 XYZ=    6.3093  -16.0707   -8.3652 Q=    0.4831 A=    0.0000 R=    0.0000 C=    0.0000
 XYZ=    5.4763  -15.8239   -9.6050 Q=    0.5237 A=    0.0000 R=    0.0000 C=    0.0000
 XYZ=    5.3398  -11.2122  -15.4745 Q=   -0.9760 A=    0.0000 R=    0.0000 C=    0.0000
 XYZ=    5.8801  -10.4587  -15.7120 Q=    0.4863 A=    0.0000 R=    0.0000 C=    0.0000
 XYZ=    5.4896  -11.8457  -16.1763 Q=    0.4965 A=    0.0000 R=    0.0000 C=    0.0000
 XYZ=   12.9960  -14.7139  -11.2100 Q=   -0.9778 A=    0.0000 R=    0.0000 C=    0.0000
 XYZ=   12.2864  -15.1619  -10.7497 Q=    0.5059 A=    0.0000 R=    0.0000 C=    0.0000
 XYZ=   13.6357  -14.5124  -10.5270 Q=    0.4638 A=    0.0000 R=    0.0000 C=    0.0000
 XYZ=    8.9611  -17.0167   -9.2755 Q=   -0.9921 A=    0.0000 R=    0.0000 C=    0.0000
 XYZ=    8.6736  -17.2191   -8.3852 Q=    0.5092 A=    0.0000 R=    0.0000 C=    0.0000
 XYZ=    8.3026  -17.4234   -9.8386 Q=    0.5103 A=    0.0000 R=    0.0000 C=    0.0000
 XYZ=   12.8900   -9.6906  -13.7511 Q=   -0.9984 A=    0.0000 R=    0.0000 C=    0.0000
 XYZ=   13.4884   -9.8459  -13.0204 Q=    0.4670 A=    0.0000 R=    0.0000 C=    0.0000
 XYZ=   12.0171   -9.7427  -13.3618 Q=    0.5160 A=    0.0000 R=    0.0000 C=    0.0000
 XYZ=    4.9070   -7.9100   -9.1300 Q=   -1.0105 A=    0.0000 R=    0.0000 C=    0.0000
 XYZ=    4.0635   -8.0265   -9.5674 Q=    0.4764 A=    0.0000 R=    0.0000 C=    0.0000
 XYZ=    5.4227   -8.6710   -9.3968 Q=    0.5176 A=    0.0000 R=    0.0000 C=    0.0000
 XYZ=    2.9547  -12.7024   -9.8757 Q=   -0.9915 A=    0.0000 R=    0.0000 C=    0.0000
 XYZ=    3.0641  -13.5048   -9.3654 Q=    0.5019 A=    0.0000 R=    0.0000 C=    0.0000
 XYZ=    2.7384  -12.0329   -9.2268 Q=    0.5105 A=    0.0000 R=    0.0000 C=    0.0000
 XYZ=    4.2108  -13.3306   -7.5546 Q=   -1.0293 A=    0.0000 R=    0.0000 C=    0.0000
 XYZ=    4.9638  -12.7453   -7.4735 Q=    0.4979 A=    0.0000 R=    0.0000 C=    0.0000
 XYZ=    4.5835  -14.1618   -7.8486 Q=    0.5197 A=    0.0000 R=    0.0000 C=    0.0000
 XYZ=    8.5389   -6.2611  -12.9484 Q=   -1.0019 A=    0.0000 R=    0.0000 C=    0.0000
 XYZ=    8.8800   -6.8491  -12.2745 Q=    0.5098 A=    0.0000 R=    0.0000 C=    0.0000
 XYZ=    9.2767   -6.1230  -13.5423 Q=    0.4773 A=    0.0000 R=    0.0000 C=    0.0000
 XYZ=   11.4715  -15.3553   -7.5180 Q=   -1.0197 A=    0.0000 R=    0.0000 C=    0.0000
 XYZ=   10.8644  -15.3558   -8.2581 Q=    0.4753 A=    0.0000 R=    0.0000 C=    0.0000
 XYZ=   11.9075  -14.5045   -7.5658 Q=    0.5146 A=    0.0000 R=    0.0000 C=    0.0000
 XYZ=   12.8138  -13.0185   -7.3663 Q=   -0.9959 A=    0.0000 R=    0.0000 C=    0.0000
 XYZ=   12.4819  -12.4171   -6.6996 Q=    0.4994 A=    0.0000 R=    0.0000 C=    0.0000
 XYZ=   12.6552  -12.5682   -8.1960 Q=    0.5110 A=    0.0000 R=    0.0000 C=    0.0000
 XYZ=   11.3245  -17.0116  -10.7628 Q=   -1.0019 A=    0.0000 R=    0.0000 C=    0.0000
 XYZ=   11.7165  -17.8633  -10.5702 Q=    0.4876 A=    0.0000 R=    0.0000 C=    0.0000
 XYZ=   10.4428  -17.0644  -10.3939 Q=    0.5095 A=    0.0000 R=    0.0000 C=    0.0000
 Pt Chg Charge=              0.0137 electrons
 Pt Chg Dipole moment (Debye):
    X=             11.8112    Y=             -5.5635    Z=             15.4031  Tot=             20.1919
 Pt Chg Quadrupole moment (Debye-Ang):
   XX=            189.3521   YY=            122.0169   ZZ=           -272.9662
   XY=           -151.5042   XZ=             13.2474   YZ=           -128.0315
 Pt Chg Traceless Quadrupole moment (Debye-Ang):
   XX=            176.5512   YY=            109.2160   ZZ=           -285.7671
   XY=           -151.5042   XZ=             13.2474   YZ=           -128.0315
 Pt Chg Octapole moment (Debye-Ang**2):
  XXX=           2650.1627  YYY=          -2502.1740  ZZZ=           3318.1141  XYY=           1963.1679
  XXY=          -2082.7481  XXZ=           -768.5360  XZZ=          -1065.0339  YZZ=           2661.4607
  YYZ=           1106.6609  XYZ=            157.1514
 Pt Chg Hexadecapole moment (Debye-Ang**3):
 XXXX=          37898.0620 YYYY=          52361.8631 ZZZZ=         -27143.4444 XXXY=         -27536.9218
 XXXZ=         -16508.4348 YYYX=         -28363.9436 YYYZ=          -7450.3905 ZZZX=          14841.2802
 ZZZY=         -33706.9873 XXYY=          23318.2639 XXZZ=           -671.4613 YYZZ=         -29830.6178
 XXYZ=          10813.4069 YYXZ=          -4158.3698 ZZXY=           7443.6087
 Leave Link  101 at Fri May 15 22:35:41 2020, MaxMem=   134217728 cpu:               0.6 elap:               0.2
 (Enter /home/soft/g16/l202.exe)
                          Input orientation:                          
 ---------------------------------------------------------------------
 Center     Atomic      Atomic             Coordinates (Angstroms)
 Number     Number       Type             X           Y           Z
 ---------------------------------------------------------------------
      1          8           0        8.392325  -11.812941  -11.200483
      2          8           0        7.250284   -9.859627  -13.103456
      3          8           0        6.966193   -9.247795  -10.274305
      4          8           0        4.641258   -8.138278  -12.671145
      5          1           0        8.175276  -12.537815  -10.614239
      6          1           0        9.252154  -11.514100  -10.904475
      7          1           0        7.120660  -10.221473  -13.980096
      8          1           0        7.341484  -10.626744  -12.538261
      9          1           0        6.975152   -9.845016  -11.022289
     10          1           0        7.684375   -8.638472  -10.445098
     11          1           0        4.597809   -7.272042  -12.266198
     12          1           0        5.576498   -8.338407  -12.709967
 ---------------------------------------------------------------------
                    Distance matrix (angstroms):
                    1          2          3          4          5
     1  O    0.000000
     2  O    2.956518   0.000000
     3  O    3.077602   2.908460   0.000000
     4  O    5.453118   3.155464   3.518692   0.000000
     5  H    0.957201   3.771538   3.521600   6.006336   0.000000
     6  H    0.957200   3.402981   3.280072   5.981443   1.513901
     7  H    3.446179   0.957200   3.834683   3.492920   4.219792
     8  H    2.073880   0.957200   2.677282   3.674417   2.837122
     9  H    2.431638   2.099325   0.957201   3.328474   2.976234
    10  H    3.339020   2.957452   0.957199   3.803425   3.933760
    11  H    6.012808   3.798976   3.671577   0.957201   6.576899
    12  H    4.720149   2.295758   2.947997   0.957200   5.364769
                    6          7          8          9         10
     6  H    0.000000
     7  H    3.958989   0.000000
     8  H    2.665955   1.513901   0.000000
     9  H    2.825679   2.985216   1.744554   0.000000
    10  H    3.307294   3.914062   2.907255   1.513901   0.000000
    11  H    6.443002   4.242802   4.342326   3.717427   3.835417
    12  H    5.182207   2.746562   2.895021   2.659767   3.108507
                   11         12
    11  H    0.000000
    12  H    1.513901   0.000000
 Symmetry turned off by external request.
 Stoichiometry    H8O4
 Framework group  C1[X(H8O4)]
 Deg. of freedom    30
 Full point group                 C1      NOp   1
 Rotational constants (GHZ):           5.7141969           1.7739060           1.4346996
 Leave Link  202 at Fri May 15 22:35:41 2020, MaxMem=   134217728 cpu:               0.0 elap:               0.0
 (Enter /home/soft/g16/l301.exe)
 Standard basis: 6-31G(d,p) (5D, 7F)
 Ernie: Thresh=  0.10000D-02 Tol=  0.10000D-05 Strict=F.
    96 basis functions,   168 primitive gaussians,   100 cartesian basis functions
    20 alpha electrons       20 beta electrons
       nuclear repulsion energy       131.7699091681 Hartrees.
 IExCor=    0 DFT=F Ex=HF Corr=None ExCW=0 ScaHFX=  1.000000
 ScaDFX=  1.000000  1.000000  1.000000  1.000000 ScalE2=  1.000000  1.000000
 IRadAn=      5 IRanWt=     -1 IRanGd=            0 ICorTp=0 IEmpDi=  4
 NAtoms=   12 NActive=   12 NUniq=   12 SFac= 1.00D+00 NAtFMM=   60 NAOKFM=F Big=F
 Integral buffers will be    131072 words long.
 Raffenetti 1 integral format.
 Two-electron integral symmetry is turned off.
 Background charge distribution read from rwf.
 PtFMM for NChg=        96 BoxLen=    40.00 Levels= 1 LMax=20 SMax=    22.2 ICnFMM=     1:
 Self energy of the charges =       -13.5420117562 a.u.
 MM   energy of the charges =         0.0000000000 a.u.
 Nuclei-charges interaction =        -1.0575097918 a.u.
 Nuclear repulsion after external point charges =      117.1703876201 Hartrees.
 Leave Link  301 at Fri May 15 22:35:41 2020, MaxMem=   134217728 cpu:               0.2 elap:               0.1
 (Enter /home/soft/g16/l302.exe)
 NPDir=0 NMtPBC=     1 NCelOv=     1 NCel=       1 NClECP=     1 NCelD=      1
         NCelK=      1 NCelE2=     1 NClLst=     1 CellRange=     0.0.
 One-electron integrals computed using PRISM.
 NBasis=    96 RedAO= T EigKep=  2.54D-02  NBF=    96
 NBsUse=    96 1.00D-06 EigRej= -1.00D+00 NBFU=    96
 Leave Link  302 at Fri May 15 22:35:41 2020, MaxMem=   134217728 cpu:               0.5 elap:               0.1
 (Enter /home/soft/g16/l303.exe)
 DipDrv:  MaxL=1.
 Leave Link  303 at Fri May 15 22:35:41 2020, MaxMem=   134217728 cpu:               0.1 elap:               0.0
 (Enter /home/soft/g16/l401.exe)
 ExpMin= 1.61D-01 ExpMax= 5.48D+03 ExpMxC= 8.25D+02 IAcc=3 IRadAn=         5 AccDes= 0.00D+00
 Harris functional with IExCor=  205 and IRadAn=       5 diagonalized for initial guess.
 HarFok:  IExCor=  205 AccDes= 0.00D+00 IRadAn=         5 IDoV= 1 UseB2=F ITyADJ=14
 ICtDFT=  3500011 ScaDFX=  1.000000  1.000000  1.000000  1.000000
 FoFCou: FMM=F IPFlag=           0 FMFlag=      100000 FMFlg1=           0
         NFxFlg=           0 DoJE=T BraDBF=F KetDBF=T FulRan=T
         wScrn=  0.000000 ICntrl=       500 IOpCl=  0 I1Cent=   200000004 NGrid=           0
         NMat0=    1 NMatS0=      1 NMatT0=    0 NMatD0=    1 NMtDS0=    0 NMtDT0=    0
 Symmetry not used in FoFCou.
 Harris En= -318.082229046765    
 JPrj=0 DoOrth=F DoCkMO=F.
 Leave Link  401 at Fri May 15 22:35:42 2020, MaxMem=   134217728 cpu:               1.7 elap:               0.5
 (Enter /home/soft/g16/l502.exe)
 Keep R1 ints in memory in canonical form, NReq=11712720.
 FoFCou: FMM=F IPFlag=           0 FMFlag=           0 FMFlg1=           0
         NFxFlg=           0 DoJE=F BraDBF=F KetDBF=F FulRan=T
         wScrn=  0.000000 ICntrl=       600 IOpCl=  0 I1Cent=           0 NGrid=           0
         NMat0=    1 NMatS0=   4656 NMatT0=    0 NMatD0=    1 NMtDS0=    0 NMtDT0=    0
 Symmetry not used in FoFCou.
 Two-electron integral symmetry not used.
 Closed shell SCF:
 Using DIIS extrapolation, IDIIS=  1040.
 NGot=   134217728 LenX=   123354636 LenY=   123344195
 Requested convergence on RMS density matrix=1.00D-08 within 128 cycles.
 Requested convergence on MAX density matrix=1.00D-06.
 Requested convergence on             energy=1.00D-06.
 No special actions if energy rises.

 Cycle   1  Pass 1  IDiag  1:
 E= -317.412978044141    
 DIIS: error= 5.15D-02 at cycle   1 NSaved=   1.
 NSaved= 1 IEnMin= 1 EnMin= -317.412978044141     IErMin= 1 ErrMin= 5.15D-02
 ErrMax= 5.15D-02  0.00D+00 EMaxC= 1.00D-01 BMatC= 4.65D-01 BMatP= 4.65D-01
 IDIUse=3 WtCom= 4.85D-01 WtEn= 5.15D-01
 Coeff-Com:  0.100D+01
 Coeff-En:   0.100D+01
 Coeff:      0.100D+01
 Gap=     0.563 Goal=   None    Shift=    0.000
 GapD=    0.563 DampG=2.000 DampE=0.500 DampFc=1.0000 IDamp=-1.
 RMSDP=5.72D-03 MaxDP=1.23D-01              OVMax= 1.21D-01

 Cycle   2  Pass 1  IDiag  1:
 E= -317.626941971092     Delta-E=       -0.213963926951 Rises=F Damp=F
 DIIS: error= 2.62D-02 at cycle   2 NSaved=   2.
 NSaved= 2 IEnMin= 2 EnMin= -317.626941971092     IErMin= 2 ErrMin= 2.62D-02
 ErrMax= 2.62D-02  0.00D+00 EMaxC= 1.00D-01 BMatC= 1.38D-01 BMatP= 4.65D-01
 IDIUse=3 WtCom= 7.38D-01 WtEn= 2.62D-01
 Coeff-Com:  0.340D+00 0.660D+00
 Coeff-En:   0.713D-01 0.929D+00
 Coeff:      0.270D+00 0.730D+00
 Gap=     0.665 Goal=   None    Shift=    0.000
 RMSDP=2.56D-03 MaxDP=5.01D-02 DE=-2.14D-01 OVMax= 4.47D-02

 Cycle   3  Pass 1  IDiag  1:
 E= -317.718836203748     Delta-E=       -0.091894232656 Rises=F Damp=F
 DIIS: error= 5.30D-03 at cycle   3 NSaved=   3.
 NSaved= 3 IEnMin= 3 EnMin= -317.718836203748     IErMin= 3 ErrMin= 5.30D-03
 ErrMax= 5.30D-03  0.00D+00 EMaxC= 1.00D-01 BMatC= 3.14D-03 BMatP= 1.38D-01
 IDIUse=3 WtCom= 9.47D-01 WtEn= 5.30D-02
 Coeff-Com: -0.318D-01 0.855D-01 0.946D+00
 Coeff-En:   0.000D+00 0.000D+00 0.100D+01
 Coeff:     -0.301D-01 0.810D-01 0.949D+00
 Gap=     0.651 Goal=   None    Shift=    0.000
 RMSDP=3.43D-04 MaxDP=7.54D-03 DE=-9.19D-02 OVMax= 8.29D-03

 Cycle   4  Pass 1  IDiag  1:
 E= -317.721286931539     Delta-E=       -0.002450727791 Rises=F Damp=F
 DIIS: error= 4.12D-04 at cycle   4 NSaved=   4.
 NSaved= 4 IEnMin= 4 EnMin= -317.721286931539     IErMin= 4 ErrMin= 4.12D-04
 ErrMax= 4.12D-04  0.00D+00 EMaxC= 1.00D-01 BMatC= 2.76D-05 BMatP= 3.14D-03
 IDIUse=3 WtCom= 9.96D-01 WtEn= 4.12D-03
 Coeff-Com:  0.676D-02-0.411D-01-0.301D+00 0.134D+01
 Coeff-En:   0.000D+00 0.000D+00 0.000D+00 0.100D+01
 Coeff:      0.674D-02-0.409D-01-0.300D+00 0.133D+01
 Gap=     0.654 Goal=   None    Shift=    0.000
 RMSDP=8.41D-05 MaxDP=1.11D-03 DE=-2.45D-03 OVMax= 2.32D-03

 Cycle   5  Pass 1  IDiag  1:
 E= -317.721338031268     Delta-E=       -0.000051099728 Rises=F Damp=F
 DIIS: error= 1.04D-04 at cycle   5 NSaved=   5.
 NSaved= 5 IEnMin= 5 EnMin= -317.721338031268     IErMin= 5 ErrMin= 1.04D-04
 ErrMax= 1.04D-04  0.00D+00 EMaxC= 1.00D-01 BMatC= 1.32D-06 BMatP= 2.76D-05
 IDIUse=3 WtCom= 9.99D-01 WtEn= 1.04D-03
 Coeff-Com:  0.202D-02-0.878D-02-0.715D-01 0.166D+00 0.912D+00
 Coeff-En:   0.000D+00 0.000D+00 0.000D+00 0.000D+00 0.100D+01
 Coeff:      0.201D-02-0.878D-02-0.714D-01 0.166D+00 0.913D+00
 Gap=     0.654 Goal=   None    Shift=    0.000
 RMSDP=1.56D-05 MaxDP=3.77D-04 DE=-5.11D-05 OVMax= 3.69D-04

 Cycle   6  Pass 1  IDiag  1:
 E= -317.721339935539     Delta-E=       -0.000001904271 Rises=F Damp=F
 DIIS: error= 3.05D-05 at cycle   6 NSaved=   6.
 NSaved= 6 IEnMin= 6 EnMin= -317.721339935539     IErMin= 6 ErrMin= 3.05D-05
 ErrMax= 3.05D-05  0.00D+00 EMaxC= 1.00D-01 BMatC= 1.67D-07 BMatP= 1.32D-06
 IDIUse=1 WtCom= 1.00D+00 WtEn= 0.00D+00
 Coeff-Com: -0.385D-03 0.299D-02 0.218D-01-0.129D+00 0.156D+00 0.948D+00
 Coeff:     -0.385D-03 0.299D-02 0.218D-01-0.129D+00 0.156D+00 0.948D+00
 Gap=     0.654 Goal=   None    Shift=    0.000
 RMSDP=6.12D-06 MaxDP=1.10D-04 DE=-1.90D-06 OVMax= 1.76D-04

 Cycle   7  Pass 1  IDiag  1:
 E= -317.721340175770     Delta-E=       -0.000000240231 Rises=F Damp=F
 DIIS: error= 5.53D-06 at cycle   7 NSaved=   7.
 NSaved= 7 IEnMin= 7 EnMin= -317.721340175770     IErMin= 7 ErrMin= 5.53D-06
 ErrMax= 5.53D-06  0.00D+00 EMaxC= 1.00D-01 BMatC= 4.40D-09 BMatP= 1.67D-07
 IDIUse=1 WtCom= 1.00D+00 WtEn= 0.00D+00
 Coeff-Com: -0.883D-04 0.337D-03 0.295D-02-0.341D-02-0.590D-01-0.443D-01
 Coeff-Com:  0.110D+01
 Coeff:     -0.883D-04 0.337D-03 0.295D-02-0.341D-02-0.590D-01-0.443D-01
 Coeff:      0.110D+01
 Gap=     0.654 Goal=   None    Shift=    0.000
 RMSDP=1.29D-06 MaxDP=2.55D-05 DE=-2.40D-07 OVMax= 3.04D-05

 Cycle   8  Pass 1  IDiag  1:
 E= -317.721340184872     Delta-E=       -0.000000009102 Rises=F Damp=F
 DIIS: error= 1.32D-06 at cycle   8 NSaved=   8.
 NSaved= 8 IEnMin= 8 EnMin= -317.721340184872     IErMin= 8 ErrMin= 1.32D-06
 ErrMax= 1.32D-06  0.00D+00 EMaxC= 1.00D-01 BMatC= 2.29D-10 BMatP= 4.40D-09
 IDIUse=1 WtCom= 1.00D+00 WtEn= 0.00D+00
 Coeff-Com:  0.363D-04-0.203D-03-0.163D-02 0.599D-02 0.106D-01-0.228D-01
 Coeff-Com: -0.291D+00 0.130D+01
 Coeff:      0.363D-04-0.203D-03-0.163D-02 0.599D-02 0.106D-01-0.228D-01
 Coeff:     -0.291D+00 0.130D+01
 Gap=     0.654 Goal=   None    Shift=    0.000
 RMSDP=2.65D-07 MaxDP=6.95D-06 DE=-9.10D-09 OVMax= 7.43D-06

 Cycle   9  Pass 1  IDiag  1:
 E= -317.721340185397     Delta-E=       -0.000000000525 Rises=F Damp=F
 DIIS: error= 3.90D-07 at cycle   9 NSaved=   9.
 NSaved= 9 IEnMin= 9 EnMin= -317.721340185397     IErMin= 9 ErrMin= 3.90D-07
 ErrMax= 3.90D-07  0.00D+00 EMaxC= 1.00D-01 BMatC= 1.57D-11 BMatP= 2.29D-10
 IDIUse=1 WtCom= 1.00D+00 WtEn= 0.00D+00
 Coeff-Com:  0.826D-05-0.384D-04-0.317D-03 0.718D-03 0.458D-02 0.606D-03
 Coeff-Com: -0.927D-01 0.136D+00 0.951D+00
 Coeff:      0.826D-05-0.384D-04-0.317D-03 0.718D-03 0.458D-02 0.606D-03
 Coeff:     -0.927D-01 0.136D+00 0.951D+00
 Gap=     0.654 Goal=   None    Shift=    0.000
 RMSDP=5.14D-08 MaxDP=8.65D-07 DE=-5.25D-10 OVMax= 1.56D-06

 Cycle  10  Pass 1  IDiag  1:
 E= -317.721340185425     Delta-E=       -0.000000000028 Rises=F Damp=F
 DIIS: error= 1.18D-07 at cycle  10 NSaved=  10.
 NSaved=10 IEnMin=10 EnMin= -317.721340185425     IErMin=10 ErrMin= 1.18D-07
 ErrMax= 1.18D-07  0.00D+00 EMaxC= 1.00D-01 BMatC= 1.75D-12 BMatP= 1.57D-11
 IDIUse=1 WtCom= 1.00D+00 WtEn= 0.00D+00
 Coeff-Com: -0.222D-05 0.141D-04 0.112D-03-0.514D-03-0.155D-03 0.263D-02
 Coeff-Com:  0.117D-01-0.104D+00 0.167D+00 0.923D+00
 Coeff:     -0.222D-05 0.141D-04 0.112D-03-0.514D-03-0.155D-03 0.263D-02
 Coeff:      0.117D-01-0.104D+00 0.167D+00 0.923D+00
 Gap=     0.654 Goal=   None    Shift=    0.000
 RMSDP=1.71D-08 MaxDP=3.15D-07 DE=-2.84D-11 OVMax= 5.50D-07

 Cycle  11  Pass 1  IDiag  1:
 E= -317.721340185426     Delta-E=       -0.000000000001 Rises=F Damp=F
 DIIS: error= 2.39D-08 at cycle  11 NSaved=  11.
 NSaved=11 IEnMin=11 EnMin= -317.721340185426     IErMin=11 ErrMin= 2.39D-08
 ErrMax= 2.39D-08  0.00D+00 EMaxC= 1.00D-01 BMatC= 8.02D-14 BMatP= 1.75D-12
 IDIUse=1 WtCom= 1.00D+00 WtEn= 0.00D+00
 Coeff-Com: -0.508D-06 0.229D-05 0.192D-04-0.386D-04-0.322D-03-0.149D-03
 Coeff-Com:  0.616D-02-0.446D-02-0.817D-01-0.531D-01 0.113D+01
 Coeff:     -0.508D-06 0.229D-05 0.192D-04-0.386D-04-0.322D-03-0.149D-03
 Coeff:      0.616D-02-0.446D-02-0.817D-01-0.531D-01 0.113D+01
 Gap=     0.654 Goal=   None    Shift=    0.000
 RMSDP=5.99D-09 MaxDP=8.42D-08 DE=-5.68D-13 OVMax= 1.82D-07

 SCF Done:  E(RHF) =  -317.721340185     A.U. after   11 cycles
            NFock= 11  Conv=0.60D-08     -V/T= 2.0465
 KE= 3.036129232335D+02 PE=-9.852728647811D+02 EE= 2.467682137422D+02
 Leave Link  502 at Fri May 15 22:35:42 2020, MaxMem=   134217728 cpu:               1.4 elap:               0.5
 (Enter /home/soft/g16/l601.exe)
 Copying SCF densities to generalized density rwf, IOpCl= 0 IROHF=0.

 **********************************************************************

            Population analysis using the SCF density.

 **********************************************************************

 Alpha  occ. eigenvalues --  -20.54645 -20.53982 -20.53020 -20.48128  -1.33241
 Alpha  occ. eigenvalues --   -1.32386  -1.31264  -1.26467  -0.70332  -0.68880
 Alpha  occ. eigenvalues --   -0.66802  -0.63070  -0.57211  -0.56421  -0.53727
 Alpha  occ. eigenvalues --   -0.49968  -0.49412  -0.47761  -0.47249  -0.42210
 Alpha virt. eigenvalues --    0.23185   0.28367   0.30806   0.31482   0.37369
 Alpha virt. eigenvalues --    0.39556   0.43134   0.46924   0.98984   1.03184
 Alpha virt. eigenvalues --    1.06405   1.07517   1.10442   1.11508   1.12454
 Alpha virt. eigenvalues --    1.14172   1.17232   1.18886   1.22442   1.25692
 Alpha virt. eigenvalues --    1.28100   1.28766   1.29892   1.33473   1.34894
 Alpha virt. eigenvalues --    1.37150   1.41165   1.46393   1.59955   1.67740
 Alpha virt. eigenvalues --    1.71224   1.78937   1.81738   1.83288   1.84394
 Alpha virt. eigenvalues --    1.85425   1.87883   1.90056   1.90904   1.94849
 Alpha virt. eigenvalues --    1.98618   2.00087   2.03559   2.05885   2.57728
 Alpha virt. eigenvalues --    2.59383   2.60737   2.61072   2.65594   2.66447
 Alpha virt. eigenvalues --    2.67544   2.70638   2.81517   2.83756   2.89026
 Alpha virt. eigenvalues --    2.90095   2.99637   2.99896   3.01879   3.02528
 Alpha virt. eigenvalues --    3.03337   3.05043   3.06137   3.07220   3.40811
 Alpha virt. eigenvalues --    3.41546   3.43090   3.46258   3.78545   3.80346
 Alpha virt. eigenvalues --    3.82763   3.85328   3.95135   4.01167   4.03199
 Alpha virt. eigenvalues --    4.04748
          Condensed to atoms (all electrons):
               1          2          3          4          5          6
     1  O    8.125100  -0.006447  -0.002665  -0.000000   0.314142   0.312125
     2  O   -0.006447   8.144118  -0.004702  -0.002725   0.000176   0.000425
     3  O   -0.002665  -0.004702   8.159545  -0.000386   0.000263   0.000754
     4  O   -0.000000  -0.002725  -0.000386   8.094973   0.000000   0.000000
     5  H    0.314142   0.000176   0.000263   0.000000   0.312629  -0.018932
     6  H    0.312125   0.000425   0.000754   0.000000  -0.018932   0.306049
     7  H    0.000156   0.313077   0.000224   0.000197  -0.000007  -0.000003
     8  H    0.015056   0.296708   0.000439   0.000108  -0.000491  -0.000969
     9  H    0.008800   0.009062   0.312802   0.000624  -0.000165  -0.000305
    10  H    0.000432   0.001092   0.321079   0.000060  -0.000012   0.000059
    11  H    0.000000   0.000080   0.000100   0.309279  -0.000000  -0.000000
    12  H   -0.000002   0.011758   0.002380   0.308676  -0.000000  -0.000000
               7          8          9         10         11         12
     1  O    0.000156   0.015056   0.008800   0.000432   0.000000  -0.000002
     2  O    0.313077   0.296708   0.009062   0.001092   0.000080   0.011758
     3  O    0.000224   0.000439   0.312802   0.321079   0.000100   0.002380
     4  O    0.000197   0.000108   0.000624   0.000060   0.309279   0.308676
     5  H   -0.000007  -0.000491  -0.000165  -0.000012  -0.000000  -0.000000
     6  H   -0.000003  -0.000969  -0.000305   0.000059  -0.000000  -0.000000
     7  H    0.317183  -0.016862  -0.000327  -0.000020  -0.000004  -0.000632
     8  H   -0.016862   0.327823  -0.000798   0.000116  -0.000000  -0.000706
     9  H   -0.000327  -0.000798   0.296566  -0.027008  -0.000009   0.000087
    10  H   -0.000020   0.000116  -0.027008   0.329632   0.000007   0.000054
    11  H   -0.000004  -0.000000  -0.000009   0.000007   0.386418  -0.025396
    12  H   -0.000632  -0.000706   0.000087   0.000054  -0.025396   0.338319
 Mulliken charges:
               1
     1  O   -0.766697
     2  O   -0.762621
     3  O   -0.789834
     4  O   -0.710806
     5  H    0.392397
     6  H    0.400796
     7  H    0.387019
     8  H    0.379577
     9  H    0.400670
    10  H    0.374511
    11  H    0.329525
    12  H    0.365462
 Sum of Mulliken charges =  -0.00000
 Mulliken charges with hydrogens summed into heavy atoms:
               1
     1  O    0.026497
     2  O    0.003975
     3  O   -0.014653
     4  O   -0.015819
 Electronic spatial extent (au):  <R**2>=          41039.1442
 Charge=             -0.0000 electrons
 Dipole moment (field-independent basis, Debye):
    X=              4.8597    Y=             -2.4341    Z=             -0.2361  Tot=              5.4403
 Quadrupole moment (field-independent basis, Debye-Ang):
   XX=             40.6972   YY=             35.1141   ZZ=            -20.1549
   XY=            -66.6978   XZ=            -55.9364   YZ=             29.2315
 Traceless Quadrupole moment (field-independent basis, Debye-Ang):
   XX=             22.1450   YY=             16.5620   ZZ=            -38.7070
   XY=            -66.6978   XZ=            -55.9364   YZ=             29.2315
 Octapole moment (field-independent basis, Debye-Ang**2):
  XXX=            190.1143  YYY=           -334.5689  ZZZ=            792.8060  XYY=            758.2936
  XXY=           -558.6289  XXZ=           -427.4830  XZZ=            479.9162  YZZ=           -115.8061
  YYZ=           -384.3264  XYZ=            750.0353
 Hexadecapole moment (field-independent basis, Debye-Ang**3):
 XXXX=           -296.5724 YYYY=           1857.9550 ZZZZ=         -19233.7003 XXXY=          -3132.4465
 XXXZ=          -1480.3077 YYYX=          -7601.8484 YYYZ=           3133.6285 ZZZX=          -1790.5121
 ZZZY=          -3886.2124 XXYY=           6439.4378 XXZZ=           3298.8547 YYZZ=           1974.9524
 XXYZ=           5849.0225 YYXZ=          -8233.7537 ZZXY=          -6885.1935
 N-N= 1.171703876201D+02 E-N=-9.852728648884D+02  KE= 3.036129232335D+02
 No NMR shielding tensors so no spin-rotation constants.
 Leave Link  601 at Fri May 15 22:35:42 2020, MaxMem=   134217728 cpu:               0.5 elap:               0.2
 (Enter /home/soft/g16/l607.exe)
 ******************************Gaussian NBO Version 3.1******************************
             N A T U R A L   A T O M I C   O R B I T A L   A N D
          N A T U R A L   B O N D   O R B I T A L   A N A L Y S I S
 ******************************Gaussian NBO Version 3.1******************************
       /RESON  / : Allow strongly delocalized NBO set

 Analyzing the SCF density

 Job title: Atom number=12                                                  

 Storage needed:     28188 in NPA ( 134216936 available)
 GSVD:  LWork=        4224 too small for GESVD, short by        5328 words or        5328 for optimal perf.


 NATURAL POPULATIONS:  Natural atomic orbital occupancies 
                                                          
   NAO  Atom  No  lang   Type(AO)    Occupancy      Energy
 ----------------------------------------------------------
     1    O    1  S      Cor( 1S)     1.99986     -20.38419
     2    O    1  S      Val( 2S)     1.75853      -1.15378
     3    O    1  S      Ryd( 3S)     0.00084       1.71886
     4    O    1  px     Val( 2p)     1.68530      -0.38484
     5    O    1  px     Ryd( 3p)     0.00153       1.31893
     6    O    1  py     Val( 2p)     1.74758      -0.40613
     7    O    1  py     Ryd( 3p)     0.00146       1.30553
     8    O    1  pz     Val( 2p)     1.84744      -0.44427
     9    O    1  pz     Ryd( 3p)     0.00051       1.28667
    10    O    1  dxy    Ryd( 3d)     0.00055       2.55635
    11    O    1  dxz    Ryd( 3d)     0.00128       2.52825
    12    O    1  dyz    Ryd( 3d)     0.00143       2.72576
    13    O    1  dx2y2  Ryd( 3d)     0.00084       2.68715
    14    O    1  dz2    Ryd( 3d)     0.00132       2.37291

    15    O    2  S      Cor( 1S)     1.99985     -20.36055
    16    O    2  S      Val( 2S)     1.75093      -1.13733
    17    O    2  S      Ryd( 3S)     0.00097       1.85377
    18    O    2  px     Val( 2p)     1.98251      -0.46749
    19    O    2  px     Ryd( 3p)     0.00077       1.22931
    20    O    2  py     Val( 2p)     1.74804      -0.39880
    21    O    2  py     Ryd( 3p)     0.00036       1.32208
    22    O    2  pz     Val( 2p)     1.54718      -0.32422
    23    O    2  pz     Ryd( 3p)     0.00164       1.41686
    24    O    2  dxy    Ryd( 3d)     0.00149       2.28692
    25    O    2  dxz    Ryd( 3d)     0.00012       2.34878
    26    O    2  dyz    Ryd( 3d)     0.00169       3.09020
    27    O    2  dx2y2  Ryd( 3d)     0.00188       2.52599
    28    O    2  dz2    Ryd( 3d)     0.00053       2.74968

    29    O    3  S      Cor( 1S)     1.99985     -20.36913
    30    O    3  S      Val( 2S)     1.74888      -1.14599
    31    O    3  S      Ryd( 3S)     0.00065       1.85913
    32    O    3  px     Val( 2p)     1.79631      -0.42071
    33    O    3  px     Ryd( 3p)     0.00089       1.24463
    34    O    3  py     Val( 2p)     1.69198      -0.37764
    35    O    3  py     Ryd( 3p)     0.00170       1.31620
    36    O    3  pz     Val( 2p)     1.79970      -0.42873
    37    O    3  pz     Ryd( 3p)     0.00065       1.21550
    38    O    3  dxy    Ryd( 3d)     0.00097       2.74754
    39    O    3  dxz    Ryd( 3d)     0.00118       2.37911
    40    O    3  dyz    Ryd( 3d)     0.00107       2.81127
    41    O    3  dx2y2  Ryd( 3d)     0.00054       2.40085
    42    O    3  dz2    Ryd( 3d)     0.00129       2.55981

    43    O    4  S      Cor( 1S)     1.99985     -20.31559
    44    O    4  S      Val( 2S)     1.75364      -1.07841
    45    O    4  S      Ryd( 3S)     0.00111       1.85191
    46    O    4  px     Val( 2p)     1.65417      -0.31201
    47    O    4  px     Ryd( 3p)     0.00100       1.33046
    48    O    4  py     Val( 2p)     1.64598      -0.30121
    49    O    4  py     Ryd( 3p)     0.00128       1.33176
    50    O    4  pz     Val( 2p)     1.92384      -0.39457
    51    O    4  pz     Ryd( 3p)     0.00081       1.26101
    52    O    4  dxy    Ryd( 3d)     0.00120       2.54688
    53    O    4  dxz    Ryd( 3d)     0.00113       2.36408
    54    O    4  dyz    Ryd( 3d)     0.00116       2.62738
    55    O    4  dx2y2  Ryd( 3d)     0.00183       3.12990
    56    O    4  dz2    Ryd( 3d)     0.00123       2.52715

    57    H    5  S      Val( 1S)     0.46780       0.40256
    58    H    5  S      Ryd( 2S)     0.00055       0.75097
    59    H    5  px     Ryd( 2p)     0.00055       2.74349
    60    H    5  py     Ryd( 2p)     0.00133       3.09551
    61    H    5  pz     Ryd( 2p)     0.00109       2.93525

    62    H    6  S      Val( 1S)     0.46260       0.41286
    63    H    6  S      Ryd( 2S)     0.00067       0.76629
    64    H    6  px     Ryd( 2p)     0.00160       3.28845
    65    H    6  py     Ryd( 2p)     0.00071       2.76870
    66    H    6  pz     Ryd( 2p)     0.00077       2.74236

    67    H    7  S      Val( 1S)     0.47037       0.41355
    68    H    7  S      Ryd( 2S)     0.00051       0.78695
    69    H    7  px     Ryd( 2p)     0.00075       2.65955
    70    H    7  py     Ryd( 2p)     0.00076       2.80994
    71    H    7  pz     Ryd( 2p)     0.00145       3.33565

    72    H    8  S      Val( 1S)     0.48403       0.38938
    73    H    8  S      Ryd( 2S)     0.00062       0.93608
    74    H    8  px     Ryd( 2p)     0.00086       2.66554
    75    H    8  py     Ryd( 2p)     0.00139       3.21278
    76    H    8  pz     Ryd( 2p)     0.00085       2.98851

    77    H    9  S      Val( 1S)     0.47202       0.40370
    78    H    9  S      Ryd( 2S)     0.00157       0.93116
    79    H    9  px     Ryd( 2p)     0.00058       2.66050
    80    H    9  py     Ryd( 2p)     0.00090       3.01162
    81    H    9  pz     Ryd( 2p)     0.00128       3.17173

    82    H   10  S      Val( 1S)     0.48226       0.38305
    83    H   10  S      Ryd( 2S)     0.00066       0.74623
    84    H   10  px     Ryd( 2p)     0.00129       3.07530
    85    H   10  py     Ryd( 2p)     0.00107       2.96687
    86    H   10  pz     Ryd( 2p)     0.00068       2.68749

    87    H   11  S      Val( 1S)     0.51996       0.38648
    88    H   11  S      Ryd( 2S)     0.00108       0.80147
    89    H   11  px     Ryd( 2p)     0.00063       2.72526
    90    H   11  py     Ryd( 2p)     0.00149       3.31974
    91    H   11  pz     Ryd( 2p)     0.00111       2.80186

    92    H   12  S      Val( 1S)     0.48947       0.43369
    93    H   12  S      Ryd( 2S)     0.00122       0.91035
    94    H   12  px     Ryd( 2p)     0.00161       3.50082
    95    H   12  py     Ryd( 2p)     0.00071       2.76870
    96    H   12  pz     Ryd( 2p)     0.00084       2.68756


 Summary of Natural Population Analysis:                  
                                                          
                                       Natural Population 
                Natural  -----------------------------------------------
    Atom  No    Charge         Core      Valence    Rydberg      Total
 -----------------------------------------------------------------------
      O    1   -1.04846      1.99986     7.03885    0.00975     9.04846
      O    2   -1.03796      1.99985     7.02866    0.00946     9.03796
      O    3   -1.04567      1.99985     7.03688    0.00894     9.04567
      O    4   -0.98823      1.99985     6.97763    0.01075     8.98823
      H    5    0.52867      0.00000     0.46780    0.00352     0.47133
      H    6    0.53366      0.00000     0.46260    0.00375     0.46634
      H    7    0.52616      0.00000     0.47037    0.00346     0.47384
      H    8    0.51226      0.00000     0.48403    0.00372     0.48774
      H    9    0.52366      0.00000     0.47202    0.00432     0.47634
      H   10    0.51404      0.00000     0.48226    0.00370     0.48596
      H   11    0.47573      0.00000     0.51996    0.00431     0.52427
      H   12    0.50616      0.00000     0.48947    0.00438     0.49384
 =======================================================================
   * Total *   -0.00000      7.99941    31.93053    0.07006    40.00000

                                 Natural Population      
 --------------------------------------------------------
   Core                       7.99941 ( 99.9927% of   8)
   Valence                   31.93053 ( 99.7829% of  32)
   Natural Minimal Basis     39.92994 ( 99.8249% of  40)
   Natural Rydberg Basis      0.07006 (  0.1751% of  40)
 --------------------------------------------------------

    Atom  No          Natural Electron Configuration
 ----------------------------------------------------------------------------
      O    1      [core]2S( 1.76)2p( 5.28)3d( 0.01)
      O    2      [core]2S( 1.75)2p( 5.28)3d( 0.01)
      O    3      [core]2S( 1.75)2p( 5.29)3d( 0.01)
      O    4      [core]2S( 1.75)2p( 5.22)3d( 0.01)
      H    5            1S( 0.47)
      H    6            1S( 0.46)
      H    7            1S( 0.47)
      H    8            1S( 0.48)
      H    9            1S( 0.47)
      H   10            1S( 0.48)
      H   11            1S( 0.52)
      H   12            1S( 0.49)


 NBO analysis skipped by request.
 Leave Link  607 at Fri May 15 22:35:43 2020, MaxMem=   134217728 cpu:               0.6 elap:               0.2
 (Enter /home/soft/g16/l9999.exe)

 Test job not archived.
 1\1\GINC-MASTER\SP\RHF\6-31G(d,p)\H8O4\LIWEI01\15-May-2020\0\\#p hf/6-
 31g** 5d 7f pop=npa charge nosymm\\Atom number=12\\0,1\O,0,8.392325,-1
 1.812941,-11.200483\O,0,7.250284,-9.859627,-13.103456\O,0,6.966193,-9.
 247795,-10.274305\O,0,4.641258,-8.138278,-12.671145\H,0,8.175276,-12.5
 37815,-10.614239\H,0,9.252154,-11.5141,-10.904475\H,0,7.12066,-10.2214
 73,-13.980096\H,0,7.341484,-10.626744,-12.538261\H,0,6.975152,-9.84501
 6,-11.022289\H,0,7.684375,-8.638472,-10.445098\H,0,4.597809,-7.272042,
 -12.266198\H,0,5.576498,-8.338407,-12.709967\\Version=ES64L-G16RevA.03
 \HF=-317.7213402\RMSD=5.992e-09\Dipole=1.9119531,-0.9576306,-0.0928713
 \Quadrupole=16.4642918,12.3134221,-28.7777138,-49.5881899,-41.5873322,
 21.73294\PG=C01 [X(H8O4)]\\@


 ONE OF THE BENEFITS OF A COLLEGE EDUCATION
 IS TO SHOW THE BOY ITS LITTLE AVAIL 
                                    EMERSON IN 'CULTURE'
 Job cpu time:       0 days  0 hours  0 minutes  6.0 seconds.
 Elapsed time:       0 days  0 hours  0 minutes  1.8 seconds.
 File lengths (MBytes):  RWF=     72 Int=      0 D2E=      0 Chk=      8 Scr=      8
 Normal termination of Gaussian 16 at Fri May 15 22:35:43 2020.
