#INFO: **** input file is /home/liwei01/wsr/dftpart/test_2body/w32/gfea_c8.py ****
from dftpart import gfea3
from pyscf import lib

par = 8
with lib.with_omp_threads(par):
    fr0 = gfea3.GFEA()
    fr0.inputstyle = 'frg'
    fr0.method = ['hf', '6-31gss','charge']
    fr0.gjfname = 'w32'
    fr0.output = 'w32'
    fr0.verbose = 9
    fr0.showinter = True
    #fr0.do_deriv = True
    fr0.kernel()

#INFO: ******************** input file end ********************


System: uname_result(system='Linux', node='master', release='3.10.0-693.el7.x86_64', version='#1 SMP Tue Aug 22 21:09:27 UTC 2017', machine='x86_64', processor='x86_64')  Threads 8
Python 3.7.6 (default, Jan  8 2020, 19:59:22) 
[GCC 7.3.0]
numpy 1.18.1  scipy 1.4.1
Date: Tue Jun 16 20:57:44 2020
PySCF version 1.6.1
PySCF path  /home/liwei01/zcheng/pyscf/pyscf
GIT HEAD      ref: refs/heads/master
GIT master branch  3adc7fd25839fe674469a52b764c3661e32d7318

[CONFIG] DEBUG = False
[CONFIG] MAX_MEMORY = 4000
[CONFIG] TMPDIR = .
[CONFIG] UNIT = angstrom
[CONFIG] VERBOSE = 3
[CONFIG] conf_file = None
[INPUT] verbose = 9
[INPUT] max_memory = 4000 
[INPUT] num. atoms = 12
[INPUT] num. electrons = 40
[INPUT] charge = 0
[INPUT] spin (= nelec alpha-beta = 2S) = 0
[INPUT] symmetry False subgroup None
[INPUT] Mole.unit = angstrom
[INPUT]  1 O      5.570392000000 -12.760041000000 -10.733807000000 AA   10.526515286468 -24.112982828221 -20.283955503939 Bohr
[INPUT]  2 O      5.584754000000 -15.592165000000 -11.469857000000 AA   10.553655533069 -29.464921539029 -21.674888417925 Bohr
[INPUT]  3 O      7.759345000000 -16.504968000000 -13.246021000000 AA   14.663036956013 -31.189869214710 -25.031351930237 Bohr
[INPUT]  4 O      5.591380000000 -15.533488000000  -8.700217000000 AA   10.566176858371 -29.354038079218 -16.441027354285 Bohr
[INPUT]  5 H      4.642708000000 -12.827827000000 -10.507888000000 AA    8.773446596327 -24.241079803301 -19.857030467604 Bohr
[INPUT]  6 H      5.983752000000 -12.405170000000  -9.946767000000 AA   11.307652477318 -23.442373828671 -18.796665454862 Bohr
[INPUT]  7 H      4.678503000000 -15.348320000000 -11.658221000000 AA    8.841089342956 -29.004121272184 -22.030844789653 Bohr
[INPUT]  8 H      6.003083000000 -14.773540000000 -11.203238000000 AA   11.344182773032 -27.917944490307 -21.171051528320 Bohr
[INPUT]  9 H      7.307919000000 -16.211137000000 -12.454749000000 AA   13.809965450505 -30.634609097803 -23.536064560201 Bohr
[INPUT] 10 H      8.537292000000 -15.949757000000 -13.298681000000 AA   16.133143725440 -30.140672483364 -25.130864907957 Bohr
[INPUT] 11 H      6.309279000000 -16.070726000000  -8.365208000000 AA   11.922809353470 -30.369270762927 -15.807952095021 Bohr
[INPUT] 12 H      5.476258000000 -15.823936000000  -9.604992000000 AA   10.348627807458 -29.902905252646 -18.150804308638 Bohr
[INPUT] ---------------- BASIS SET ---------------- 
[INPUT] l, kappa, [nprim/nctr], expnt,             c_1 c_2 ...
[INPUT] H
[INPUT] 0    0    [3    /1   ]  18.731137         0.0334946
                                2.8253937         0.23472695
                                0.6401217         0.81375733
[INPUT] 0    0    [1    /1   ]  0.1612778            1
[INPUT] 1    0    [1    /1   ]  1.1                  1
[INPUT] O
[INPUT] 0    0    [6    /1   ]  5484.6717         0.0018311
                                825.23495         0.0139501
                                188.04696         0.0684451
                                52.9645           0.2327143
                                16.89757          0.470193
                                5.7996353         0.3585209
[INPUT] 0    0    [3    /1   ]  15.539616         -0.1107775
                                3.5999336         -0.1480263
                                1.0137618         1.130767
[INPUT] 0    0    [1    /1   ]  0.2700058            1
[INPUT] 1    0    [3    /1   ]  15.539616         0.0708743
                                3.5999336         0.3397528
                                1.0137618         0.7271586
[INPUT] 1    0    [1    /1   ]  0.2700058            1
[INPUT] 2    0    [1    /1   ]  0.8                  1

nuclear repulsion = 129.038502876537
number of shells = 48
number of NR pGTOs = 164
number of NR cGTOs = 96
basis = 6-31gss
ecp = {}
bas 0, expnt(s) = [5484.6717     825.23495    188.04696     52.9645      16.89757
    5.7996353]
bas 1, expnt(s) = [15.539616   3.5999336  1.0137618]
bas 2, expnt(s) = [0.2700058]
bas 3, expnt(s) = [15.539616   3.5999336  1.0137618]
bas 4, expnt(s) = [0.2700058]
bas 5, expnt(s) = [0.8]
bas 6, expnt(s) = [5484.6717     825.23495    188.04696     52.9645      16.89757
    5.7996353]
bas 7, expnt(s) = [15.539616   3.5999336  1.0137618]
bas 8, expnt(s) = [0.2700058]
bas 9, expnt(s) = [15.539616   3.5999336  1.0137618]
bas 10, expnt(s) = [0.2700058]
bas 11, expnt(s) = [0.8]
bas 12, expnt(s) = [5484.6717     825.23495    188.04696     52.9645      16.89757
    5.7996353]
bas 13, expnt(s) = [15.539616   3.5999336  1.0137618]
bas 14, expnt(s) = [0.2700058]
bas 15, expnt(s) = [15.539616   3.5999336  1.0137618]
bas 16, expnt(s) = [0.2700058]
bas 17, expnt(s) = [0.8]
bas 18, expnt(s) = [5484.6717     825.23495    188.04696     52.9645      16.89757
    5.7996353]
bas 19, expnt(s) = [15.539616   3.5999336  1.0137618]
bas 20, expnt(s) = [0.2700058]
bas 21, expnt(s) = [15.539616   3.5999336  1.0137618]
bas 22, expnt(s) = [0.2700058]
bas 23, expnt(s) = [0.8]
bas 24, expnt(s) = [18.731137   2.8253937  0.6401217]
bas 25, expnt(s) = [0.1612778]
bas 26, expnt(s) = [1.1]
bas 27, expnt(s) = [18.731137   2.8253937  0.6401217]
bas 28, expnt(s) = [0.1612778]
bas 29, expnt(s) = [1.1]
bas 30, expnt(s) = [18.731137   2.8253937  0.6401217]
bas 31, expnt(s) = [0.1612778]
bas 32, expnt(s) = [1.1]
bas 33, expnt(s) = [18.731137   2.8253937  0.6401217]
bas 34, expnt(s) = [0.1612778]
bas 35, expnt(s) = [1.1]
bas 36, expnt(s) = [18.731137   2.8253937  0.6401217]
bas 37, expnt(s) = [0.1612778]
bas 38, expnt(s) = [1.1]
bas 39, expnt(s) = [18.731137   2.8253937  0.6401217]
bas 40, expnt(s) = [0.1612778]
bas 41, expnt(s) = [1.1]
bas 42, expnt(s) = [18.731137   2.8253937  0.6401217]
bas 43, expnt(s) = [0.1612778]
bas 44, expnt(s) = [1.1]
bas 45, expnt(s) = [18.731137   2.8253937  0.6401217]
bas 46, expnt(s) = [0.1612778]
bas 47, expnt(s) = [1.1]
CPU time:       698.46
arg.atm = [[ 8 20  1 23  0  0]
 [ 8 24  1 27  0  0]
 [ 8 28  1 31  0  0]
 [ 8 32  1 35  0  0]
 [ 1 36  1 39  0  0]
 [ 1 40  1 43  0  0]
 [ 1 44  1 47  0  0]
 [ 1 48  1 51  0  0]
 [ 1 52  1 55  0  0]
 [ 1 56  1 59  0  0]
 [ 1 60  1 63  0  0]
 [ 1 64  1 67  0  0]]
arg.bas = [[  0   0   6   1   0  78  84   0]
 [  0   0   3   1   0  90  93   0]
 [  0   0   1   1   0  96  97   0]
 [  0   1   3   1   0  98 101   0]
 [  0   1   1   1   0 104 105   0]
 [  0   2   1   1   0 106 107   0]
 [  1   0   6   1   0  78  84   0]
 [  1   0   3   1   0  90  93   0]
 [  1   0   1   1   0  96  97   0]
 [  1   1   3   1   0  98 101   0]
 [  1   1   1   1   0 104 105   0]
 [  1   2   1   1   0 106 107   0]
 [  2   0   6   1   0  78  84   0]
 [  2   0   3   1   0  90  93   0]
 [  2   0   1   1   0  96  97   0]
 [  2   1   3   1   0  98 101   0]
 [  2   1   1   1   0 104 105   0]
 [  2   2   1   1   0 106 107   0]
 [  3   0   6   1   0  78  84   0]
 [  3   0   3   1   0  90  93   0]
 [  3   0   1   1   0  96  97   0]
 [  3   1   3   1   0  98 101   0]
 [  3   1   1   1   0 104 105   0]
 [  3   2   1   1   0 106 107   0]
 [  4   0   3   1   0  68  71   0]
 [  4   0   1   1   0  74  75   0]
 [  4   1   1   1   0  76  77   0]
 [  5   0   3   1   0  68  71   0]
 [  5   0   1   1   0  74  75   0]
 [  5   1   1   1   0  76  77   0]
 [  6   0   3   1   0  68  71   0]
 [  6   0   1   1   0  74  75   0]
 [  6   1   1   1   0  76  77   0]
 [  7   0   3   1   0  68  71   0]
 [  7   0   1   1   0  74  75   0]
 [  7   1   1   1   0  76  77   0]
 [  8   0   3   1   0  68  71   0]
 [  8   0   1   1   0  74  75   0]
 [  8   1   1   1   0  76  77   0]
 [  9   0   3   1   0  68  71   0]
 [  9   0   1   1   0  74  75   0]
 [  9   1   1   1   0  76  77   0]
 [ 10   0   3   1   0  68  71   0]
 [ 10   0   1   1   0  74  75   0]
 [ 10   1   1   1   0  76  77   0]
 [ 11   0   3   1   0  68  71   0]
 [ 11   0   1   1   0  74  75   0]
 [ 11   1   1   1   0  76  77   0]]
arg.env = [ 1.37036000e+02  0.00000000e+00  0.00000000e+00  0.00000000e+00
  0.00000000e+00  0.00000000e+00  0.00000000e+00  0.00000000e+00
  0.00000000e+00  0.00000000e+00  0.00000000e+00  0.00000000e+00
  0.00000000e+00  0.00000000e+00  0.00000000e+00  0.00000000e+00
  0.00000000e+00  0.00000000e+00  0.00000000e+00  0.00000000e+00
  1.05265153e+01 -2.41129828e+01 -2.02839555e+01  0.00000000e+00
  1.05536555e+01 -2.94649215e+01 -2.16748884e+01  0.00000000e+00
  1.46630370e+01 -3.11898692e+01 -2.50313519e+01  0.00000000e+00
  1.05661769e+01 -2.93540381e+01 -1.64410274e+01  0.00000000e+00
  8.77344660e+00 -2.42410798e+01 -1.98570305e+01  0.00000000e+00
  1.13076525e+01 -2.34423738e+01 -1.87966655e+01  0.00000000e+00
  8.84108934e+00 -2.90041213e+01 -2.20308448e+01  0.00000000e+00
  1.13441828e+01 -2.79179445e+01 -2.11710515e+01  0.00000000e+00
  1.38099655e+01 -3.06346091e+01 -2.35360646e+01  0.00000000e+00
  1.61331437e+01 -3.01406725e+01 -2.51308649e+01  0.00000000e+00
  1.19228094e+01 -3.03692708e+01 -1.58079521e+01  0.00000000e+00
  1.03486278e+01 -2.99029053e+01 -1.81508043e+01  0.00000000e+00
  1.87311370e+01  2.82539370e+00  6.40121700e-01  7.61926220e-01
  1.29237100e+00  1.47131900e+00  1.61277800e-01  6.42977783e-01
  1.10000000e+00  3.28643653e+00  5.48467170e+03  8.25234950e+02
  1.88046960e+02  5.29645000e+01  1.68975700e+01  5.79963530e+00
  2.94842455e+00  5.42657124e+00  8.78126489e+00  1.15432129e+01
  9.90055015e+00  3.38516599e+00  1.55396160e+01  3.59993360e+00
  1.01376180e+00 -2.19051792e+00 -9.77405528e-01  2.88629094e+00
  2.70005800e-01  9.46334873e-01  1.55396160e+01  3.59993360e+00
  1.01376180e+00  6.37930734e+00  4.91490975e+00  2.15791055e+00
  2.70005800e-01  5.67807022e-01  8.00000000e-01  1.76578110e+00]
ecpbas  = []


******** <class 'pyscf.qmmm.itrf.mm_charge.<locals>.QMMM'> ********
method = QMMM-RHF
initial guess = minao
damping factor = 0
level shift factor = 0
DIIS = <class 'pyscf.scf.diis.CDIIS'>
DIIS start cycle = 1
DIIS space = 8
SCF tol = 1e-09
SCF gradient tol = None
max. SCF cycles = 50
direct_scf = True
direct_scf_tol = 1e-13
chkfile to save SCF result = /home/liwei01/wsr/dftpart/test_2body/w32/tmp73hqpcxg
max_memory 4000 MB (current use 328 MB)
** Add background charges for <class 'pyscf.scf.hf.RHF'> **
Charge      Location
-1.056075    [ 15.8591958  -22.32322322 -21.16584533]
0.523264    [ 15.44903263 -23.69303655 -20.05800473]
0.517699    [ 17.48403712 -21.75849557 -20.60647128]
-1.035697    [ 20.23144001 -20.50137794 -19.07019386]
0.520608    [ 21.7723038  -21.39222885 -18.74761761]
0.515624    [ 19.97024207 -19.49608333 -17.58928542]
-1.009926    [ 16.42785407 -26.58707085 -18.04142885]
0.499922    [ 15.53371882 -25.95112132 -16.60336995]
0.507893    [ 16.16245338 -28.37548309 -17.98600129]
-1.024266    [ 13.70105109 -18.63199472 -24.76194313]
0.515186    [ 13.45609723 -19.31578456 -26.41855264]
0.515422    [ 13.87339411 -20.08163576 -23.69387937]
-1.032359    [ 13.1641969  -17.47579981 -19.41562257]
0.514165    [ 13.18112696 -18.60438393 -20.82910748]
0.518479    [ 14.52136419 -16.32434621 -19.73837456]
-1.052762    [ 13.11969196 -22.35429031 -15.81898054]
0.521035    [ 14.16458201 -22.84877684 -14.42771692]
0.525545    [ 13.80909996 -20.77345693 -16.36451423]
-1.002885    [ 18.40539199 -27.51482622 -24.72543362]
0.521542    [ 17.83274639 -26.30664305 -23.50711585]
0.49877    [ 20.13069872 -27.06649815 -25.03241585]
-1.054902    [ 19.05772167 -18.14703431 -25.87868434]
0.517977    [ 18.59105569 -18.66655214 -27.54728983]
0.522623    [ 17.51229609 -18.19498233 -24.93991564]
-0.997115    [ 17.90283445 -15.11249509 -20.63210731]
0.530073    [ 18.89257472 -16.62132612 -20.50652934]
0.49195    [ 18.18557149 -14.25298717 -19.06582671]
-1.032188    [ 15.97118286 -20.09833149 -29.6421136 ]
0.47982    [ 15.3540909  -19.66610766 -31.28659296]
0.534069    [ 17.50300052 -21.00734455 -29.95701189]
-0.992133    [  7.63287216 -21.21078113 -24.19682809]
0.480184    [  8.55071592 -22.76668147 -24.10379498]
0.504586    [  8.37549106 -20.32880248 -25.59058803]
-0.985176    [ 16.63195772 -23.48150439 -12.27810621]
0.500614    [ 17.11266814 -22.20236011 -11.09293235]
0.508291    [ 16.89319913 -25.03868407 -11.39557387]
-0.979947    [ 19.94097588 -17.12125506 -14.67509908]
0.500341    [ 18.95312155 -17.86288753 -13.35371942]
0.493696    [ 19.00620207 -15.6543646  -15.17143564]
-0.982261    [ 16.04742575 -26.75780005 -29.6895325 ]
0.479882    [ 16.71262824 -28.42851069 -29.88488293]
0.495008    [ 16.8532352  -26.12000803 -28.20097066]
-0.983713    [ 20.17321188 -22.53529584 -29.89394228]
0.505479    [ 21.06170253 -23.16751127 -28.4507471 ]
0.512532    [ 20.35114661 -23.83370776 -31.14069287]
-0.999332    [ 25.43111026 -22.24828235 -18.47023794]
0.512801    [ 26.28398524 -20.77981964 -19.09325419]
0.507583    [ 26.7410892  -23.47726762 -18.25698991]
-0.976012    [ 10.09067452 -21.18806662 -29.24260093]
0.486289    [ 11.11173701 -19.76402949 -29.69146191]
0.496485    [ 10.37375928 -22.38512875 -30.56881072]
-0.977833    [ 24.5589393  -27.80514674 -21.18389789]
0.50587    [ 23.21796885 -28.65180829 -20.31390388]
0.463809    [ 25.76766104 -27.42438582 -19.8931866 ]
-0.989717    [  8.77070649 -15.37911655 -23.94499373]
0.487556    [  8.68859978 -13.74216775 -23.17975481]
0.496916    [ 10.53805395 -15.75730555 -24.01835668]
-0.992057    [ 16.93410036 -32.15697813 -17.52810554]
0.50918    [ 16.39069828 -32.53931319 -15.84570882]
0.510293    [ 15.6895513  -32.92540692 -18.59231236]
-0.998393    [ 24.35861321 -18.31258187 -25.98586582]
0.466984    [ 25.48944989 -18.60606579 -24.60492389]
0.51604    [ 22.70911474 -18.4111103  -25.25008395]
-1.010464    [  9.27281806 -14.9477601  -17.25327322]
0.476424    [  7.6789399  -15.16789619 -18.07972415]
0.517552    [ 10.24747455 -16.38576609 -17.75736144]
-0.991473    [  5.5836248  -24.00414405 -18.66237963]
0.501887    [  5.79022289 -25.52045085 -17.69798247]
0.510487    [  5.17491673 -22.73885336 -17.43603619]
-1.029267    [  7.95719829 -25.19119252 -14.2761212 ]
0.497876    [  9.38018663 -24.0850659  -14.1227926 ]
0.519667    [  8.66153702 -26.76190075 -14.83174226]
-1.001943    [ 16.13613705 -11.83176802 -24.46883904]
0.509813    [ 16.78082846 -12.94299123 -23.1954641 ]
0.477312    [ 17.5304658  -11.57071369 -25.59117007]
-1.019724    [ 21.67798379 -29.0173418  -14.20699124]
0.475311    [ 20.53074618 -29.01816194 -15.60548117]
0.514632    [ 22.50198564 -27.40961194 -14.29731259]
-0.9959    [ 24.21450458 -24.60133719 -13.9203349 ]
0.499354    [ 23.58737251 -23.46499007 -12.66043371]
0.511038    [ 23.91476757 -23.75039163 -15.48812918]
-1.001922    [ 21.40011279 -32.14724982 -20.33868764]
0.487648    [ 22.14106118 -33.75675602 -19.97480576]
0.509505    [ 19.73399418 -32.24696878 -19.64152988]
Set gradient conv threshold to 3.16228e-05
Nelec from initial guess = 39.952817252068705
cond(S) = 134.64982322665554
E1 = -670.719098582453  E_coul = 238.20152162537713
init E= -303.503637058054
    CPU time for initialize scf      1.22 sec, wall time      0.15 sec
  HOMO = -0.430432305766831  LUMO = 0.0547356696540077
  mo_energy =
[-20.87628677 -20.80764489 -20.79553728 -20.75240011  -1.70695134
  -1.63776487  -1.60449665  -1.56536703  -0.82890724  -0.77188868
  -0.74130209  -0.6972803   -0.67335895  -0.60918052  -0.57781632
  -0.5494114   -0.5384991   -0.49183162  -0.46625054  -0.43043231
   0.05473567   0.11649947   0.18860445   0.21913543   0.25294977
   0.27363425   0.31164351   0.34365102   0.87044196   0.89310119
   0.92888096   0.94983606   0.98442965   1.00135996   1.00748093
   1.01298541   1.0260286    1.05317721   1.09050388   1.100853
   1.13235842   1.16301752   1.17589187   1.18317025   1.2052305
   1.24149074   1.27168945   1.31986772   1.45374257   1.5648027
   1.59700086   1.61433422   1.67354209   1.68722563   1.71992479
   1.73441016   1.74176939   1.75059769   1.77901126   1.7870431
   1.81806603   1.83169417   1.87883468   1.93175883   2.44518387
   2.48669753   2.50137817   2.51291675   2.5490117    2.58339603
   2.6120451    2.63979058   2.67201242   2.72034666   2.75310897
   2.80013382   2.84876579   2.86232013   2.92430802   2.94630336
   2.96843168   2.97551583   3.02332737   3.0546575    3.25873152
   3.33636255   3.35943731   3.40601239   3.63635599   3.70806724
   3.73891354   3.77805106   3.81049505   3.87869796   3.91096355
   3.93328491]
E1 = -680.5615824524258  E_coul = 247.51174076095427
cycle= 1 E= -304.03590179245  delta_E= -0.532  |g|= 0.857  |ddm|= 2.37
    CPU time for cycle= 1      0.16 sec, wall time      0.02 sec
diis-norm(errvec)=1.53022
diis-c [-2.34157963  1.        ]
  HOMO = -0.365131824916398  LUMO = 0.167168911317476
  mo_energy =
[-20.40860887 -20.35721802 -20.31784833 -20.25618047  -1.33475704
  -1.31485445  -1.25899254  -1.21928262  -0.7132669   -0.69916772
  -0.63678248  -0.60793272  -0.56381959  -0.54482506  -0.48457466
  -0.47431179  -0.45996471  -0.43733741  -0.40634803  -0.36513182
   0.16716891   0.22135211   0.29614902   0.30531339   0.3674746
   0.38921518   0.40320682   0.44458923   0.95361104   0.99679473
   1.02945877   1.05865513   1.08120443   1.10387986   1.15172795
   1.15907107   1.18452995   1.19123238   1.24358785   1.27086725
   1.30089233   1.31710144   1.31889297   1.32917948   1.3625093
   1.38603877   1.4301457    1.45971715   1.59927138   1.69716702
   1.72297591   1.74605813   1.81529676   1.81910742   1.84410274
   1.85797614   1.87731095   1.87956368   1.9013413    1.92683932
   1.97392716   1.99664937   2.03294626   2.05198425   2.522332
   2.54987208   2.57812677   2.6138662    2.63170047   2.64475091
   2.66181727   2.72734689   2.80960452   2.82249899   2.87604442
   2.89372723   2.93426408   2.95240462   2.9728217    3.02297329
   3.04080749   3.05427085   3.07148047   3.13180632   3.34909902
   3.40083226   3.43823877   3.45688969   3.7412014    3.76958788
   3.81151723   3.84333076   3.95628889   3.9895526    4.0152467
   4.06752151]
E1 = -674.595020260524  E_coul = 241.43726201742606
cycle= 2 E= -304.143818344076  delta_E= -0.108  |g|= 0.414  |ddm|= 0.677
    CPU time for cycle= 2      0.16 sec, wall time      0.02 sec
diis-norm(errvec)=0.692515
diis-c [-0.11246496  0.2886712   0.7113288 ]
  HOMO = -0.459942487767627  LUMO = 0.160062722001041
  mo_energy =
[-20.63359707 -20.60904214 -20.56350312 -20.54100399  -1.40331832
  -1.38030268  -1.3276778   -1.30544068  -0.76798479  -0.74459778
  -0.68886235  -0.67310757  -0.64147523  -0.61117535  -0.55881491
  -0.55383392  -0.53734928  -0.52336905  -0.48189708  -0.45994249
   0.16006272   0.21404483   0.28781439   0.29437983   0.35294338
   0.37100718   0.39554803   0.42272176   0.9372205    0.9789491
   1.00871295   1.0350977    1.05589856   1.07586316   1.10883696
   1.12124469   1.12929214   1.156908     1.18157539   1.20923887
   1.2257139    1.2599565    1.26941638   1.27416941   1.30448743
   1.33463102   1.37697083   1.40324704   1.55466338   1.65273985
   1.68361811   1.70677135   1.77440222   1.77844622   1.80351126
   1.82489652   1.8358584    1.83728299   1.8577312    1.87209229
   1.92500585   1.94822316   1.97939758   2.00728262   2.51706861
   2.53901246   2.56493543   2.5975173    2.61748029   2.62391637
   2.62808348   2.68297219   2.7698202    2.79367678   2.84348899
   2.85127269   2.91787864   2.92940526   2.96160593   3.00367657
   3.03124348   3.03308992   3.04302218   3.11367893   3.32803098
   3.38520133   3.42184146   3.43113568   3.7109818    3.75268276
   3.7882598    3.81082284   3.90792336   3.95168452   3.97518533
   4.01527349]
E1 = -677.2383182149526  E_coul = 244.05081206972147
cycle= 3 E= -304.17356624621  delta_E= -0.0297  |g|= 0.0593  |ddm|= 0.267
    CPU time for cycle= 3      0.15 sec, wall time      0.02 sec
diis-norm(errvec)=0.109136
diis-c [-0.00562017 -0.02526182  0.06222669  0.96303513]
  HOMO = -0.449535389273956  LUMO = 0.165892197819965
  mo_energy =
[-20.6002684  -20.58468009 -20.5279337  -20.50617263  -1.39040661
  -1.36824649  -1.31185054  -1.29212069  -0.75637073  -0.73338434
  -0.67451776  -0.66179713  -0.63189477  -0.60213272  -0.5475571
  -0.54298373  -0.52811392  -0.51445332  -0.46936673  -0.44953539
   0.1658922    0.22040048   0.29392107   0.30027774   0.35955319
   0.37740573   0.40313873   0.42932454   0.94542094   0.98766736
   1.01749422   1.04461803   1.063251     1.08531282   1.11676513
   1.13055243   1.1395188    1.16788087   1.19021777   1.21804576
   1.23250157   1.26957371   1.27906817   1.28404155   1.31381079
   1.3447678    1.38636507   1.41339952   1.56483827   1.66350135
   1.69428202   1.71682524   1.78420831   1.78872475   1.81383692
   1.83810982   1.84595775   1.84842201   1.86884391   1.88157817
   1.93430798   1.95776372   1.98921985   2.01813268   2.52661654
   2.54934701   2.57585558   2.60812651   2.628457     2.63612882
   2.63875677   2.69302235   2.78058573   2.80447339   2.85737871
   2.86228658   2.92788781   2.93851657   2.97228365   3.01524441
   3.0413219    3.04487051   3.05164805   3.12221749   3.33707861
   3.395179     3.4324849    3.44069147   3.72411677   3.76615991
   3.80337265   3.82436458   3.91904094   3.96432422   3.98756165
   4.02620426]
E1 = -676.948921116884  E_coul = 243.76061535070508
cycle= 4 E= -304.174365867157  delta_E= -0.0008  |g|= 0.00978  |ddm|= 0.0376
    CPU time for cycle= 4      0.17 sec, wall time      0.02 sec
diis-norm(errvec)=0.0203517
diis-c [-1.17437662e-04 -8.85384587e-03 -3.87757334e-02 -1.64028584e-01
  1.21165816e+00]
  HOMO = -0.451028483733917  LUMO = 0.16587680627781
  mo_energy =
[-20.60176731 -20.58366937 -20.53127824 -20.50845603  -1.39117868
  -1.36798709  -1.31296382  -1.2931719   -0.75663273  -0.73252084
  -0.67484715  -0.66200958  -0.63239254  -0.60167541  -0.54852621
  -0.54405071  -0.52871483  -0.51505526  -0.47099562  -0.45102848
   0.16587681   0.22070729   0.2937412    0.30050287   0.35964989
   0.37737025   0.40342394   0.42962253   0.94537256   0.98778425
   1.01726807   1.04440089   1.06314232   1.08492648   1.11638317
   1.13006129   1.13918105   1.16741909   1.18967142   1.21765122
   1.23209307   1.26902505   1.27926899   1.28398998   1.31358668
   1.3447623    1.38619128   1.41304944   1.56465639   1.66298098
   1.69416328   1.71673994   1.78402206   1.78875829   1.81377959
   1.83774143   1.84582984   1.84815591   1.86850363   1.88125404
   1.9341078    1.95751878   1.98904102   2.01786957   2.52664154
   2.54966338   2.57621236   2.6079315    2.62853441   2.63597701
   2.63898089   2.69292948   2.78038743   2.80517211   2.85732211
   2.86225618   2.92803063   2.93865521   2.97308354   3.01539585
   3.04116724   3.04491676   3.05176562   3.12211978   3.33707509
   3.39567434   3.43267943   3.44097437   3.72396592   3.76680649
   3.80329138   3.82443196   3.91882353   3.96475347   3.98774719
   4.02650409]
E1 = -676.9605180710735  E_coul = 243.77216947204403
cycle= 5 E= -304.174408700008  delta_E= -4.28e-05  |g|= 0.0021  |ddm|= 0.0126
    CPU time for cycle= 5      0.16 sec, wall time      0.02 sec
diis-norm(errvec)=0.00379845
diis-c [-1.06008788e-05  1.10172334e-03  2.00123888e-03 -1.50614605e-02
 -6.05634643e-02  1.07252196e+00]
  HOMO = -0.45111997929409  LUMO = 0.165800373172491
  mo_energy =
[-20.60212585 -20.58528978 -20.52970516 -20.5080931   -1.39141414
  -1.36850913  -1.31245996  -1.29313986  -0.75670902  -0.73282477
  -0.67434287  -0.66195453  -0.63263394  -0.60211786  -0.54851363
  -0.54401302  -0.52898975  -0.51552992  -0.47065355  -0.45111998
   0.16580037   0.22062837   0.2937421    0.30047199   0.35958512
   0.37725103   0.40357086   0.42954698   0.94520474   0.98758802
   1.0171827    1.04429897   1.06306112   1.08478659   1.11614364
   1.12998904   1.13909473   1.16750709   1.18953144   1.21760109
   1.23204738   1.26901223   1.27909643   1.283917     1.31331969
   1.34487595   1.38616462   1.41300123   1.5644173    1.66303072
   1.69409116   1.71653503   1.78381688   1.78855543   1.81361628
   1.83797895   1.84561394   1.84819015   1.86859679   1.8811803
   1.9338782    1.95734135   1.98894616   2.01800965   2.52642614
   2.54945413   2.57610448   2.60775487   2.62851472   2.63614142
   2.63893326   2.6928353    2.78018482   2.80483059   2.8575643
   2.86217416   2.92789507   2.93847843   2.97283697   3.01556454
   3.04114124   3.04505233   3.0516406    3.12193319   3.3369079
   3.3955402    3.43272202   3.44090985   3.7238056    3.76656974
   3.80344934   3.8243766    3.91864776   3.96470501   3.98778455
   4.02637284]
E1 = -676.9590656923779  E_coul = 243.77071543093075
cycle= 6 E= -304.174410362426  delta_E= -1.66e-06  |g|= 0.000964  |ddm|= 0.00275
    CPU time for cycle= 6      0.16 sec, wall time      0.02 sec
diis-norm(errvec)=0.00174168
diis-c [-7.58338821e-07  1.29880676e-03  5.02885893e-03  1.15194910e-02
 -1.43697123e-01  2.90887912e-01  8.34962054e-01]
  HOMO = -0.451211136838558  LUMO = 0.165810350988394
  mo_energy =
[-20.60193534 -20.58450057 -20.53024589 -20.50818371  -1.39134896
  -1.36829456  -1.31264176  -1.29319017  -0.75663039  -0.73260396
  -0.67444434  -0.66194196  -0.63260366  -0.6019602   -0.54858991
  -0.54410346  -0.52897811  -0.51546308  -0.47087572  -0.45121114
   0.16581035   0.22065495   0.29371441   0.30049188   0.35960686
   0.37726932   0.40355338   0.42955461   0.94522192   0.98762718
   1.01716883   1.04429687   1.06303227   1.08478281   1.11616936
   1.12995799   1.13906366   1.1674386    1.18951544   1.21757008
   1.23198499   1.26898231   1.27916583   1.28393748   1.31336581
   1.34484908   1.38616369   1.41298347   1.56450055   1.66299654
   1.69409651   1.7165796    1.78385226   1.78859384   1.81364212
   1.83786841   1.84565545   1.84813945   1.86853275   1.88114803
   1.93392994   1.95736604   1.98893883   2.01793815   2.5264588
   2.54950275   2.57611905   2.60776855   2.62848141   2.63605001
   2.63891736   2.69281073   2.78020816   2.8049382    2.85745377
   2.86214604   2.92791283   2.93850445   2.9729113    3.01548124
   3.04109889   3.04499457   3.05162812   3.12196051   3.33692159
   3.39556683   3.43267151   3.44089212   3.72382611   3.76665695
   3.80337241   3.82436209   3.91866195   3.96470825   3.98774494
   4.02637383]
E1 = -676.9577972640864  E_coul = 243.7694467443184
cycle= 7 E= -304.174410620746  delta_E= -2.58e-07  |g|= 0.000165  |ddm|= 0.000932
    CPU time for cycle= 7      0.15 sec, wall time      0.02 sec
diis-norm(errvec)=0.000304608
diis-c [-2.01118497e-08 -2.27642697e-04 -6.49465575e-04 -1.49665411e-03
  2.28915592e-02 -1.10774397e-01 -1.21038608e-01  1.21129521e+00]
  HOMO = -0.451220462465139  LUMO = 0.165812152846605
  mo_energy =
[-20.60190382 -20.58454702 -20.53017464 -20.50815208  -1.39135187
  -1.36830926  -1.31261533  -1.29318797  -0.75662155  -0.73259852
  -0.67440945  -0.66193325  -0.6326124   -0.60197314  -0.54859097
  -0.54410197  -0.52899445  -0.51548821  -0.4708672   -0.45122046
   0.16581215   0.22065968   0.29371862   0.30049773   0.35960574
   0.37726538   0.40357049   0.42955874   0.94522391   0.98763072
   1.01717239   1.04429899   1.06303611   1.08478507   1.11616549
   1.12995945   1.1390621    1.16744947   1.1895149    1.21757588
   1.23198676   1.26898941   1.27917133   1.28394495   1.31336089
   1.34486674   1.38616839   1.41299046   1.56449906   1.66300408
   1.69410081   1.71657629   1.783849     1.78859248   1.81364159
   1.83788637   1.84565219   1.84814663   1.86854198   1.88114802
   1.93392385   1.95736099   1.9889408    2.01795019   2.52645482
   2.54950267   2.57612537   2.60777009   2.6284898    2.63606606
   2.63892547   2.69281197   2.78020624   2.80493451   2.85747695
   2.86214901   2.92791623   2.93850382   2.97291505   3.01550234
   3.04109291   3.04500921   3.0516328    3.1219541    3.33692053
   3.39557211   3.43268355   3.4408984    3.72382994   3.76666098
   3.80339163   3.82436759   3.91866024   3.9647179    3.98775628
   4.02637984]
E1 = -676.9575354858036  E_coul = 243.7691849534415
cycle= 8 E= -304.174410633341  delta_E= -1.26e-08  |g|= 2.45e-05  |ddm|= 0.00027
    CPU time for cycle= 8      0.16 sec, wall time      0.02 sec
diis-norm(errvec)=4.50089e-05
diis-c [-1.37726160e-09 -4.17360339e-05 -1.46392871e-04 -3.83999458e-04
  4.62164399e-03 -1.05617151e-02 -2.69073552e-02  3.15820110e-02
  1.00183754e+00]
  HOMO = -0.45121779960886  LUMO = 0.165811206620882
  mo_energy =
[-20.60191705 -20.58452982 -20.53016451 -20.50814612  -1.39135461
  -1.36830414  -1.31261066  -1.29318528  -0.75662272  -0.73259185
  -0.67440435  -0.66192974  -0.63261587  -0.60196783  -0.54859101
  -0.54410153  -0.52899221  -0.51548513  -0.47086279  -0.4512178
   0.16581121   0.22066065   0.29371974   0.30049949   0.35960794
   0.37726703   0.40357268   0.42956053   0.94522363   0.98763115
   1.01717354   1.04429909   1.0630373    1.08478455   1.1161638
   1.12996102   1.13906314   1.1674522    1.18951655   1.21757777
   1.23198818   1.26898997   1.27917394   1.28394783   1.31336335
   1.34487057   1.38617186   1.41299275   1.5645007    1.66300506
   1.69410276   1.71657846   1.78384923   1.78859358   1.81364358
   1.83788942   1.84565244   1.84814861   1.86854469   1.88114972
   1.93392553   1.95736272   1.98894307   2.01795373   2.52645563
   2.54950538   2.57612844   2.60776854   2.62849141   2.63606929
   2.63892738   2.69281409   2.78020516   2.80493917   2.85748042
   2.86215099   2.92791532   2.93850482   2.97291736   3.01550497
   3.04109507   3.04501203   3.05163338   3.12195653   3.3369204
   3.39557538   3.43268598   3.44090083   3.72382775   3.76666508
   3.80339438   3.82436987   3.91865885   3.9647222    3.98776002
   4.02638234]
E1 = -676.9575074440213  E_coul = 243.76915691141335
cycle= 9 E= -304.174410633586  delta_E= -2.46e-10  |g|= 9.49e-06  |ddm|= 3.45e-05
    CPU time for cycle= 9      0.16 sec, wall time      0.02 sec
  HOMO = -0.451217698945888  LUMO = 0.165811379128182
  mo_energy =
[-20.60190805 -20.5845353  -20.53016878 -20.50814773  -1.39135231
  -1.3683052   -1.3126116   -1.29318554  -0.75662082  -0.73259282
  -0.67440501  -0.66193017  -0.63261354  -0.60196895  -0.54859003
  -0.54410072  -0.52899287  -0.51548608  -0.47086358  -0.4512177
   0.16581138   0.2206605    0.2937197    0.30049924   0.35960786
   0.37726722   0.4035726    0.42956026   0.94522392   0.98763131
   1.01717379   1.04429961   1.06303709   1.08478525   1.11616512
   1.12996111   1.13906265   1.16745189   1.18951662   1.21757781
   1.23198785   1.26899054   1.27917357   1.28394746   1.31336278
   1.34486995   1.38617128   1.41299228   1.5645008    1.66300541
   1.69410277   1.71657828   1.78384996   1.78859374   1.81364362
   1.83788909   1.84565295   1.84814849   1.86854447   1.88114951
   1.93392573   1.95736279   1.98894265   2.01795323   2.52645571
   2.54950509   2.57612821   2.6077697    2.62849136   2.63606883
   2.63892727   2.69281379   2.7802064    2.80493843   2.85747998
   2.86215069   2.92791578   2.93850521   2.97291689   3.01550484
   3.04109468   3.04501199   3.05163334   3.12195686   3.33692106
   3.39557514   3.43268578   3.44090059   3.72382888   3.76666441
   3.803394     3.82436936   3.91866037   3.96472149   3.98775955
   4.02638189]
E1 = -676.9575195293064  E_coul = 243.7691689966642
Extra cycle  E= -304.174410633621  delta_E= -3.42e-11  |g|= 5.06e-06  |ddm|= 1.32e-05
    CPU time for scf_cycle      2.80 sec, wall time      0.35 sec
    CPU time for SCF      2.92 sec, wall time      0.37 sec
converged SCF energy = -304.174410633621
