Atom number=9                                                           
SP        RHF                                                         6-31G(d,p)          
Number of atoms                            I                9
Info1-9                                    I   N=           9
         107         106           0           0           0         111
           1           1           2
Full Title                                 C   N=           2
Atom number=9           
Route                                      C   N=           4
#p hf/6-31g** 5d 7f pop=npa charge nosymm       
Charge                                     I                0
Multiplicity                               I                1
Number of electrons                        I               30
Number of alpha electrons                  I               15
Number of beta electrons                   I               15
Number of basis functions                  I               72
Number of independent functions            I               72
Number of point charges in /Mol/           I                0
Number of translation vectors              I                0
Atomic numbers                             I   N=           9
           8           8           8           1           1           1
           1           1           1
Nuclear charges                            R   N=           9
  8.00000000E+00  8.00000000E+00  8.00000000E+00  1.00000000E+00  1.00000000E+00
  1.00000000E+00  1.00000000E+00  1.00000000E+00  1.00000000E+00
Current cartesian coordinates              R   N=          27
  1.64278541E+01 -2.65870709E+01 -1.80414289E+01  1.05661769E+01 -2.93540381E+01
 -1.64410274E+01  1.69341004E+01 -3.21569781E+01 -1.75281055E+01  1.55337188E+01
 -2.59511213E+01 -1.66033699E+01  1.61624534E+01 -2.83754831E+01 -1.79860013E+01
  1.19228094E+01 -3.03692708E+01 -1.58079521E+01  1.03486278E+01 -2.99029053E+01
 -1.81508043E+01  1.63906983E+01 -3.25393132E+01 -1.58457088E+01  1.56895513E+01
 -3.29254069E+01 -1.85923124E+01
Number of symbols in /Mol/                 I                0
Force Field                                I                0
Atom Types                                 C   N=           9
                                                            
                                                
Int Atom Types                             I   N=           9
           0           0           0           0           0           0
           0           0           0
MM charges                                 R   N=           9
  0.00000000E+00  0.00000000E+00  0.00000000E+00  0.00000000E+00  0.00000000E+00
  0.00000000E+00  0.00000000E+00  0.00000000E+00  0.00000000E+00
Integer atomic weights                     I   N=           9
          16          16          16           1           1           1
           1           1           1
Real atomic weights                        R   N=           9
  1.59949146E+01  1.59949146E+01  1.59949146E+01  1.00782504E+00  1.00782504E+00
  1.00782504E+00  1.00782504E+00  1.00782504E+00  1.00782504E+00
Atom fragment info                         I   N=           9
           0           0           0           0           0           0
           0           0           0
Atom residue num                           I   N=           9
           0           0           0           0           0           0
           0           0           0
Nuclear spins                              I   N=           9
           0           0           0           1           1           1
           1           1           1
Nuclear ZEff                               R   N=           9
 -5.60000000E+00 -5.60000000E+00 -5.60000000E+00 -1.00000000E+00 -1.00000000E+00
 -1.00000000E+00 -1.00000000E+00 -1.00000000E+00 -1.00000000E+00
Nuclear ZNuc                               R   N=           9
  8.00000000E+00  8.00000000E+00  8.00000000E+00  1.00000000E+00  1.00000000E+00
  1.00000000E+00  1.00000000E+00  1.00000000E+00  1.00000000E+00
Nuclear QMom                               R   N=           9
  0.00000000E+00  0.00000000E+00  0.00000000E+00  0.00000000E+00  0.00000000E+00
  0.00000000E+00  0.00000000E+00  0.00000000E+00  0.00000000E+00
Nuclear GFac                               R   N=           9
  0.00000000E+00  0.00000000E+00  0.00000000E+00  2.79284600E+00  2.79284600E+00
  2.79284600E+00  2.79284600E+00  2.79284600E+00  2.79284600E+00
MicOpt                                     I   N=           9
          -1          -1          -1          -1          -1          -1
          -1          -1          -1
Number of residues                         I                0
Number of secondary structures             I                0
Number of contracted shells                I               30
Number of primitive shells                 I               63
Pure/Cartesian d shells                    I                0
Pure/Cartesian f shells                    I                0
Highest angular momentum                   I                2
Largest degree of contraction              I                6
Shell types                                I   N=          30
           0          -1          -1          -2           0          -1
          -1          -2           0          -1          -1          -2
           0           0           1           0           0           1
           0           0           1           0           0           1
           0           0           1           0           0           1
Number of primitives per shell             I   N=          30
           6           3           1           1           6           3
           1           1           6           3           1           1
           3           1           1           3           1           1
           3           1           1           3           1           1
           3           1           1           3           1           1
Shell to atom map                          I   N=          30
           1           1           1           1           2           2
           2           2           3           3           3           3
           4           4           4           5           5           5
           6           6           6           7           7           7
           8           8           8           9           9           9
Primitive exponents                        R   N=          63
  5.48467166E+03  8.25234946E+02  1.88046958E+02  5.29645000E+01  1.68975704E+01
  5.79963534E+00  1.55396162E+01  3.59993359E+00  1.01376175E+00  2.70005823E-01
  8.00000000E-01  5.48467166E+03  8.25234946E+02  1.88046958E+02  5.29645000E+01
  1.68975704E+01  5.79963534E+00  1.55396162E+01  3.59993359E+00  1.01376175E+00
  2.70005823E-01  8.00000000E-01  5.48467166E+03  8.25234946E+02  1.88046958E+02
  5.29645000E+01  1.68975704E+01  5.79963534E+00  1.55396162E+01  3.59993359E+00
  1.01376175E+00  2.70005823E-01  8.00000000E-01  1.87311370E+01  2.82539436E+00
  6.40121692E-01  1.61277759E-01  1.10000000E+00  1.87311370E+01  2.82539436E+00
  6.40121692E-01  1.61277759E-01  1.10000000E+00  1.87311370E+01  2.82539436E+00
  6.40121692E-01  1.61277759E-01  1.10000000E+00  1.87311370E+01  2.82539436E+00
  6.40121692E-01  1.61277759E-01  1.10000000E+00  1.87311370E+01  2.82539436E+00
  6.40121692E-01  1.61277759E-01  1.10000000E+00  1.87311370E+01  2.82539436E+00
  6.40121692E-01  1.61277759E-01  1.10000000E+00
Contraction coefficients                   R   N=          63
  1.83107443E-03  1.39501722E-02  6.84450781E-02  2.32714336E-01  4.70192898E-01
  3.58520853E-01 -1.10777550E-01 -1.48026263E-01  1.13076702E+00  1.00000000E+00
  1.00000000E+00  1.83107443E-03  1.39501722E-02  6.84450781E-02  2.32714336E-01
  4.70192898E-01  3.58520853E-01 -1.10777550E-01 -1.48026263E-01  1.13076702E+00
  1.00000000E+00  1.00000000E+00  1.83107443E-03  1.39501722E-02  6.84450781E-02
  2.32714336E-01  4.70192898E-01  3.58520853E-01 -1.10777550E-01 -1.48026263E-01
  1.13076702E+00  1.00000000E+00  1.00000000E+00  3.34946043E-02  2.34726953E-01
  8.13757326E-01  1.00000000E+00  1.00000000E+00  3.34946043E-02  2.34726953E-01
  8.13757326E-01  1.00000000E+00  1.00000000E+00  3.34946043E-02  2.34726953E-01
  8.13757326E-01  1.00000000E+00  1.00000000E+00  3.34946043E-02  2.34726953E-01
  8.13757326E-01  1.00000000E+00  1.00000000E+00  3.34946043E-02  2.34726953E-01
  8.13757326E-01  1.00000000E+00  1.00000000E+00  3.34946043E-02  2.34726953E-01
  8.13757326E-01  1.00000000E+00  1.00000000E+00
P(S=P) Contraction coefficients            R   N=          63
  0.00000000E+00  0.00000000E+00  0.00000000E+00  0.00000000E+00  0.00000000E+00
  0.00000000E+00  7.08742682E-02  3.39752839E-01  7.27158577E-01  1.00000000E+00
  0.00000000E+00  0.00000000E+00  0.00000000E+00  0.00000000E+00  0.00000000E+00
  0.00000000E+00  0.00000000E+00  7.08742682E-02  3.39752839E-01  7.27158577E-01
  1.00000000E+00  0.00000000E+00  0.00000000E+00  0.00000000E+00  0.00000000E+00
  0.00000000E+00  0.00000000E+00  0.00000000E+00  7.08742682E-02  3.39752839E-01
  7.27158577E-01  1.00000000E+00  0.00000000E+00  0.00000000E+00  0.00000000E+00
  0.00000000E+00  0.00000000E+00  0.00000000E+00  0.00000000E+00  0.00000000E+00
  0.00000000E+00  0.00000000E+00  0.00000000E+00  0.00000000E+00  0.00000000E+00
  0.00000000E+00  0.00000000E+00  0.00000000E+00  0.00000000E+00  0.00000000E+00
  0.00000000E+00  0.00000000E+00  0.00000000E+00  0.00000000E+00  0.00000000E+00
  0.00000000E+00  0.00000000E+00  0.00000000E+00  0.00000000E+00  0.00000000E+00
  0.00000000E+00  0.00000000E+00  0.00000000E+00
Coordinates of each shell                  R   N=          90
  1.64278541E+01 -2.65870709E+01 -1.80414289E+01  1.64278541E+01 -2.65870709E+01
 -1.80414289E+01  1.64278541E+01 -2.65870709E+01 -1.80414289E+01  1.64278541E+01
 -2.65870709E+01 -1.80414289E+01  1.05661769E+01 -2.93540381E+01 -1.64410274E+01
  1.05661769E+01 -2.93540381E+01 -1.64410274E+01  1.05661769E+01 -2.93540381E+01
 -1.64410274E+01  1.05661769E+01 -2.93540381E+01 -1.64410274E+01  1.69341004E+01
 -3.21569781E+01 -1.75281055E+01  1.69341004E+01 -3.21569781E+01 -1.75281055E+01
  1.69341004E+01 -3.21569781E+01 -1.75281055E+01  1.69341004E+01 -3.21569781E+01
 -1.75281055E+01  1.55337188E+01 -2.59511213E+01 -1.66033699E+01  1.55337188E+01
 -2.59511213E+01 -1.66033699E+01  1.55337188E+01 -2.59511213E+01 -1.66033699E+01
  1.61624534E+01 -2.83754831E+01 -1.79860013E+01  1.61624534E+01 -2.83754831E+01
 -1.79860013E+01  1.61624534E+01 -2.83754831E+01 -1.79860013E+01  1.19228094E+01
 -3.03692708E+01 -1.58079521E+01  1.19228094E+01 -3.03692708E+01 -1.58079521E+01
  1.19228094E+01 -3.03692708E+01 -1.58079521E+01  1.03486278E+01 -2.99029053E+01
 -1.81508043E+01  1.03486278E+01 -2.99029053E+01 -1.81508043E+01  1.03486278E+01
 -2.99029053E+01 -1.81508043E+01  1.63906983E+01 -3.25393132E+01 -1.58457088E+01
  1.63906983E+01 -3.25393132E+01 -1.58457088E+01  1.63906983E+01 -3.25393132E+01
 -1.58457088E+01  1.56895513E+01 -3.29254069E+01 -1.85923124E+01  1.56895513E+01
 -3.29254069E+01 -1.85923124E+01  1.56895513E+01 -3.29254069E+01 -1.85923124E+01
Num ILSW                                   I              100
ILSW                                       I   N=         100
           0           0           0           0           2           0
           0           0           0           0           0          -1
           5           0           0           0           0           0
           0           0           0           0           0           0
           1           1           0           0           0           0
           0           0      100000           0          -1           0
           0           0           0           0           0           0
           0           0           0           1           0           0
           0 -2000000000           1           0           0           0
           0           0           4          52           0           0
           0           1           0           0           0           0
           0           0           0           9           0           1
           0           0           0           0           0           0
           0           0           0           0           0           0
           0           0           0           0           0           0
           0           0           0           0           0           0
           0           0           0           0
Num RLSW                                   I               52
RLSW                                       R   N=          52
  1.00000000E+00  1.00000000E+00  1.00000000E+00  1.00000000E+00  1.00000000E+00
  0.00000000E+00  0.00000000E+00  1.00000000E+00  0.00000000E+00  0.00000000E+00
  0.00000000E+00  0.00000000E+00  1.00000000E+00  0.00000000E+00  0.00000000E+00
  0.00000000E+00  0.00000000E+00  1.00000000E+00  0.00000000E+00  0.00000000E+00
  0.00000000E+00  0.00000000E+00  1.00000000E+00  0.00000000E+00  0.00000000E+00
  0.00000000E+00  0.00000000E+00  1.00000000E+00  0.00000000E+00  0.00000000E+00
  0.00000000E+00  0.00000000E+00  1.00000000E+00  0.00000000E+00  0.00000000E+00
  0.00000000E+00  0.00000000E+00  0.00000000E+00  1.00000000E+00  1.00000000E+00
  0.00000000E+00  1.00000000E+00  0.00000000E+00  0.00000000E+00  0.00000000E+00
  0.00000000E+00  0.00000000E+00  0.00000000E+00  0.00000000E+00  0.00000000E+00
  0.00000000E+00  0.00000000E+00
MxBond                                     I                2
NBond                                      I   N=           9
           2           2           2           1           1           1
           1           1           1
IBond                                      I   N=          18
           4           5           6           7           8           9
           1           0           1           0           2           0
           2           0           3           0           3           0
RBond                                      R   N=          18
  1.00000000E+00  1.00000000E+00  1.00000000E+00  1.00000000E+00  1.00000000E+00
  1.00000000E+00  1.00000000E+00  0.00000000E+00  1.00000000E+00  0.00000000E+00
  1.00000000E+00  0.00000000E+00  1.00000000E+00  0.00000000E+00  1.00000000E+00
  0.00000000E+00  1.00000000E+00  0.00000000E+00
Virial Ratio                               R      2.063906478904457E+00
SCF Energy                                 R     -2.422446621662679E+02
Total Energy                               R     -2.422446621662679E+02
RMS Density                                R      2.088538438401217E-09
Job Status                                 I                1
Nuclear derivative order                   I                0
External E-field                           R   N=          35
  0.00000000E+00  0.00000000E+00  0.00000000E+00  0.00000000E+00  0.00000000E+00
  0.00000000E+00  0.00000000E+00  0.00000000E+00  0.00000000E+00  0.00000000E+00
  0.00000000E+00  0.00000000E+00  0.00000000E+00  0.00000000E+00  0.00000000E+00
  0.00000000E+00  0.00000000E+00  0.00000000E+00  0.00000000E+00  0.00000000E+00
  0.00000000E+00  0.00000000E+00  0.00000000E+00  0.00000000E+00  0.00000000E+00
  0.00000000E+00  0.00000000E+00  0.00000000E+00  0.00000000E+00  0.00000000E+00
  0.00000000E+00  0.00000000E+00  0.00000000E+00  0.00000000E+00  0.00000000E+00
IOpCl                                      I                0
IROHF                                      I                0
Alpha Orbital Energies                     R   N=          72
 -2.06535079E+01 -2.06096837E+01 -2.05936862E+01 -1.43533355E+00 -1.39142801E+00
 -1.37818065E+00 -7.95013626E-01 -7.53207761E-01 -7.45404235E-01 -6.69687052E-01
 -6.31643897E-01 -6.20082264E-01 -5.84931643E-01 -5.49583077E-01 -5.36432849E-01
  1.06602476E-01  2.15293685E-01  2.28469757E-01  2.41553969E-01  3.16569182E-01
  3.47607334E-01  9.12158379E-01  9.53497177E-01  9.74179032E-01  1.00541448E+00
  1.03341682E+00  1.04700845E+00  1.08564688E+00  1.11358217E+00  1.11843123E+00
  1.14536114E+00  1.19899668E+00  1.21189094E+00  1.22492992E+00  1.29613496E+00
  1.29906563E+00  1.50598392E+00  1.57035964E+00  1.66960800E+00  1.71369711E+00
  1.74908126E+00  1.75967935E+00  1.76793973E+00  1.78475156E+00  1.81057754E+00
  1.86876864E+00  1.88006137E+00  1.96591177E+00  2.48991813E+00  2.50008077E+00
  2.53393057E+00  2.54584139E+00  2.55133667E+00  2.59868787E+00  2.72392411E+00
  2.76186610E+00  2.77451741E+00  2.88883941E+00  2.92710674E+00  2.93161774E+00
  2.94979891E+00  2.95455722E+00  2.98267846E+00  3.29418625E+00  3.33002656E+00
  3.34789993E+00  3.66656520E+00  3.71758435E+00  3.74547403E+00  3.83922485E+00
  3.89744926E+00  3.93570658E+00
Alpha MO coefficients                      R   N=        5184
  1.08956442E-04  2.97853656E-04 -9.34084368E-06 -4.52248798E-05 -2.48519424E-05
 -1.08115743E-03  5.68455658E-05  7.00116711E-04  8.02197605E-05  7.41604857E-05
  3.51208263E-06  2.00282415E-05  1.27662229E-04 -2.29572250E-05 -2.23178123E-05
 -3.16611883E-05  1.97170056E-05  6.77044823E-06 -1.52719068E-05  1.82433428E-04
 -2.48250250E-05 -4.75282892E-05  3.27901133E-05  3.86192718E-07  9.81913121E-06
  5.06794856E-07 -8.29077922E-06  7.85005934E-07  9.95707158E-01  2.21291187E-02
 -1.66479159E-03 -9.10555147E-04  5.44380239E-04 -6.17200843E-03  8.01310350E-04
  6.67543763E-05 -2.01807502E-04  3.65142971E-04  9.06333208E-05  5.08676406E-05
  1.47682098E-04  2.58754380E-04  5.88652207E-05 -2.87483958E-04 -2.11194581E-05
 -1.38384940E-05  1.74014692E-05  1.20156718E-04  1.46257428E-03  8.23715693E-05
  9.64450086E-05  1.37586894E-05  3.35804529E-05 -2.32000282E-04 -4.23249466E-07
 -6.21351810E-06  1.01776378E-05  3.42994552E-05 -9.73204042E-05  6.83584030E-06
 -1.82122817E-06 -1.82324516E-05 -4.99211150E-04  1.18494856E-03 -4.13157765E-04
 -2.30033325E-04  1.06590419E-03 -4.70299208E-04  1.12943352E-03 -8.48902321E-04
 -4.71634420E-04 -6.48441794E-04  3.74204377E-05  3.85217329E-05 -2.70111477E-06
 -1.21615509E-06  2.44768198E-07 -1.37030455E-04  3.88265130E-05  9.80894095E-06
 -4.45757052E-05 -2.05826501E-06  1.32708221E-05 -7.67814699E-06  3.71120047E-06
  2.93854476E-06  9.95706988E-01  2.20175652E-02  1.07819837E-03 -1.41877969E-03
 -9.30541399E-04 -6.09483759E-03 -5.71994139E-04  7.14690926E-04  3.99397602E-04
  2.23977907E-04  2.61150023E-04  4.91672689E-05  5.89087372E-05 -2.19557931E-04
  1.58332660E-05 -4.01191732E-05 -3.63361242E-05  2.41798359E-05  4.31413541E-06
  2.76985984E-04  4.85608634E-05 -1.03288786E-04  6.72111725E-05  2.12539220E-05
 -2.52679090E-06 -8.97539112E-06 -1.49163601E-05  1.23903461E-05  1.26769745E-05
  8.18951399E-05  1.46160764E-05 -6.05391856E-06 -2.14543764E-05  8.13681518E-06
  3.66500015E-05  1.56709137E-05  6.78736994E-06 -2.01597155E-06 -5.03843487E-04
  1.45973180E-03  8.51746959E-04 -6.62625558E-04  3.33643561E-04 -5.02263715E-04
  1.22780138E-03 -8.44507276E-05 -3.90443831E-04 -1.06298401E-03  5.22450379E-05
 -3.35220264E-04 -1.67252447E-05 -8.90570638E-06  4.99979434E-05  5.23802823E-05
 -1.52148853E-04 -2.01011069E-05 -1.01125868E-06 -1.29433596E-05  9.95718748E-01
  2.22121746E-02 -1.08963241E-03 -1.04181679E-03  1.35107136E-03 -6.83493182E-03
  5.51149836E-04  1.06138245E-03 -5.79628735E-04  3.87840350E-05 -2.51566023E-04
  2.07625187E-04 -1.74102970E-04 -7.07444287E-05 -3.52860711E-05  1.53799166E-05
  3.63406696E-05  2.48573749E-05 -1.38283284E-05  7.30888794E-05 -8.34381402E-05
 -8.69479982E-05  4.83115663E-05  5.60626133E-06  1.10868981E-05  4.12535252E-06
 -1.77340979E-05 -3.25166243E-06 -8.16638588E-05  2.37523362E-04 -2.63554384E-05
  1.44156339E-04 -2.09972742E-05 -4.34314781E-04  1.19993902E-04 -5.96362950E-04
  1.15155258E-04  4.11087702E-05 -2.76253511E-05  1.16362446E-06  5.64168821E-05
  4.83372310E-05 -4.83416508E-04  1.06659038E-03 -6.05734628E-04  3.29481707E-04
  9.52205782E-04 -4.21677779E-04  2.43890047E-03 -1.51644831E-04 -9.59457189E-04
  8.94783480E-05  7.44182864E-05 -2.28907901E-04  1.27307171E-05 -1.37856171E-05
  7.08140388E-06  2.82264082E-05 -4.31867415E-05  1.82934453E-05  5.97373187E-06
 -1.29617961E-05  3.95386090E-05 -1.31922749E-04 -3.18798069E-05  5.95741116E-05
  2.40838271E-05  1.14080344E-04 -1.70821146E-04 -2.76861060E-05  6.22815977E-05
 -2.10474163E-05 -1.41690022E-02  3.03740548E-02 -2.67234023E-03 -5.24243195E-03
  3.43650628E-03  3.00486747E-02 -7.40816038E-04 -3.44767224E-03  1.22976981E-03
 -2.22847128E-04 -1.37526602E-04 -2.72041731E-04 -5.75352858E-04  3.39646000E-05
 -3.43726492E-03  8.58409581E-03  1.13507168E-03 -1.16739653E-03 -4.22908969E-04
  2.66474400E-03 -9.11794052E-04  9.05393031E-04 -1.46040195E-03  1.31845204E-04
 -1.80045512E-04  1.53906045E-04 -4.90940330E-05  1.67694260E-04 -2.12337584E-01
  4.69405855E-01 -6.59908167E-02 -4.02022592E-02  2.18743243E-02  4.46728585E-01
 -2.59612023E-02 -1.13048727E-02  5.46028643E-03  4.49437516E-04 -1.63239344E-03
 -8.98463244E-05  1.73172607E-03  2.47741028E-03  8.65760052E-03  1.05681446E-03
  8.18009212E-04 -7.59786845E-04 -1.32045104E-03  1.42107043E-02  2.79050323E-04
  6.76231453E-05  1.56460758E-03  9.97803218E-05  3.02769146E-03  6.97853201E-03
 -6.02926589E-04  5.41171352E-04 -5.29020418E-04  2.12786689E-03  6.14635183E-05
  1.07798932E-04  5.53449604E-05  4.77885482E-04  1.42772993E-01  8.07232595E-03
  5.77041039E-03  4.42630371E-03 -2.51758408E-02  1.41344231E-01  5.78634361E-03
  1.68045472E-02  1.03494125E-02  1.76234742E-02 -1.26208411E-02  2.81246392E-02
 -2.82606619E-03 -2.69443385E-03  3.32763307E-03  2.44036632E-02 -1.72383234E-03
 -3.45443993E-04  1.17580564E-03  3.23414779E-05 -2.34047295E-04 -7.70809937E-05
  2.22647548E-05  8.14598830E-05 -2.12367715E-01  4.69544331E-01  4.24493580E-02
 -5.64388999E-02 -3.79097839E-02  4.45399008E-01  1.53889555E-02 -1.85147595E-02
 -1.32180533E-02  4.29746815E-04  1.04326988E-04  2.42186771E-03 -1.13388191E-04
 -4.05920739E-03  5.09921295E-03 -1.08101670E-02  1.25889702E-03  1.45841697E-03
 -4.98646273E-04 -1.34831409E-02  1.59062961E-04  1.04191819E-03  5.79707839E-05
 -9.00323096E-05 -3.86171887E-05  1.41135819E-06  5.18111391E-05 -1.41517724E-04
  8.44055481E-03  1.66200347E-03  7.16728863E-04 -7.92162677E-04 -1.21277206E-03
  8.46718833E-03  3.23464821E-03  4.91234212E-05  1.82559605E-03  1.00008501E-04
  1.46011291E-01  1.18421931E-02 -1.90949742E-02  1.35442765E-02 -1.12212339E-02
  1.39684991E-01  4.41947923E-03  4.77375699E-03  6.43461396E-03  2.55043703E-02
 -3.68511911E-03  1.76978806E-03 -6.65084098E-05 -6.01026228E-05  4.37678863E-04
 -3.66639191E-03  2.17014674E-03 -2.29016332E-04 -1.47349413E-04 -3.13948988E-04
 -2.11846933E-01  4.66726499E-01 -4.28687665E-02 -4.18325710E-02  5.44895787E-02
  4.48598948E-01 -1.68360380E-02 -1.57258924E-02  1.99910255E-02  3.00626424E-04
 -2.75098030E-03 -1.43415808E-03 -2.45344538E-03  7.27920071E-04  1.35049226E-02
 -2.98781659E-02 -2.33386993E-03  3.75780632E-03  2.44021609E-03 -2.97206747E-02
 -3.33853398E-05  2.50603668E-03  2.85037642E-04 -6.50576266E-05 -1.18727252E-04
 -1.79607219E-04  1.37440725E-04  3.38622238E-04  1.54894208E-02 -3.56211219E-02
  4.89867462E-03  7.22891374E-03 -2.17700991E-03 -3.12676744E-02  1.71203478E-03
  6.75811763E-03 -1.17211606E-03 -4.73501937E-04  1.72052639E-04 -6.04930760E-05
 -8.12876352E-04 -6.72010501E-04  1.42310496E-01  9.29832336E-03  1.25447565E-02
 -1.16396607E-02 -1.98912170E-02  1.41729015E-01  3.09159053E-03  2.04608282E-03
  2.57652712E-02  1.17341600E-03 -9.65918340E-03  2.07716971E-03  1.02598495E-03
 -7.52524444E-04  6.59469601E-04 -9.16644981E-03  3.04076732E-04 -3.94541520E-04
 -4.57289764E-04 -1.53160603E-03 -1.15937695E-02  2.91304984E-04 -3.80854546E-04
 -4.41876600E-04  1.82175074E-03 -1.15369752E-02  4.37162654E-04 -1.19199341E-03
 -8.72448272E-04 -1.26046350E-03  2.92843860E-04 -9.41943955E-04 -6.37666367E-04
  6.12440710E-03  7.24565054E-03 -3.13294895E-04  2.13887583E-04  2.49057780E-03
  5.62569791E-03  4.64552823E-04 -2.75494820E-04 -2.57886555E-04  1.83358375E-04
 -2.51463853E-04  2.42365483E-04 -1.36338127E-04  6.90661441E-03 -2.02977488E-03
  1.04368410E-02 -2.49820254E-03  2.58572205E-03 -3.04335075E-04  4.91806890E-03
 -4.41517894E-04  1.24293734E-04 -3.43028416E-04  1.00652389E-04 -1.99463253E-04
  1.14443343E-03 -1.44715954E-03  1.15606232E-01  6.60666946E-02  4.91096699E-01
 -8.33780897E-03  6.17921503E-02  3.88167641E-02  2.81659030E-01  1.44604664E-02
 -2.34913272E-02 -1.42526556E-02 -4.37613386E-03 -7.12020550E-03  4.17454852E-03
  3.36397668E-03  2.65960831E-04 -9.57060615E-05 -3.39308283E-04 -4.30548355E-03
 -3.52571566E-03  1.46906727E-05 -3.37752545E-04  7.25162527E-04  6.70659112E-03
  7.17294611E-03 -4.67528238E-04  5.64561561E-04 -1.20115163E-05 -5.79685596E-03
 -4.43625456E-03  3.19891230E-05 -3.25593830E-04 -6.18242791E-04  2.40145695E-01
  1.14954917E-01  1.17660368E-02  8.98244873E-03 -1.67644566E-02 -2.32247290E-01
 -1.09486703E-01 -1.77711124E-02 -1.17147620E-02 -5.99460782E-03  1.77482260E-03
 -3.93163227E-03  5.27488313E-04 -2.24941899E-02 -5.89131741E-03 -7.40453789E-03
 -7.59476145E-05 -1.41735546E-02 -2.81595236E-03 -8.07672003E-04  2.58352721E-04
 -7.08952948E-04 -8.34398823E-04  8.01571736E-04  4.55139664E-03 -8.71104287E-03
  2.80316372E-01 -8.35235139E-02  4.11872419E-01 -2.92572524E-02  1.59919098E-01
 -4.49845003E-02  2.36833585E-01 -2.16619195E-02  5.55115192E-03 -1.56196203E-02
  5.73745274E-03 -1.49260340E-02  2.65989550E-03 -6.30687369E-03 -1.82456363E-02
  5.72488808E-03 -1.15964925E-02 -9.87911959E-03 -1.32587850E-02  5.02944060E-03
 -7.34541706E-03 -7.94306652E-04  4.74155699E-04  5.28869694E-04  7.86802599E-04
  1.34567323E-04 -8.54471636E-03 -1.67707543E-03 -6.84718404E-04 -3.64634539E-04
  6.91034112E-04  1.24523876E-02  6.14024950E-03 -2.69251787E-05  8.62922576E-04
 -4.83850098E-05  2.42246127E-01  1.32885690E-01 -1.53062658E-02  1.53960344E-02
  8.70627703E-05 -2.29594944E-01 -1.00012295E-01  3.33874806E-03 -1.15815657E-02
 -1.99997378E-02 -5.22919197E-03  1.35047260E-03 -8.43433855E-04  1.36629395E-04
  2.18843746E-04  8.17014146E-03  3.41361365E-03  7.92340712E-05  5.76496541E-04
  3.38436431E-04 -3.26083952E-03  6.20017110E-03 -1.01476729E-01  4.25236101E-01
  2.20210582E-01  1.54782813E-02 -5.79817170E-02  2.45577833E-01  1.22177295E-01
  1.70977362E-02 -1.22221860E-02  1.05495387E-02  1.69500885E-02 -1.12708536E-02
 -9.11364946E-04  1.88819447E-03  8.83881851E-03 -4.38085244E-04  2.17759392E-02
  4.41561360E-03  4.63043519E-03 -3.78325041E-05  1.34425738E-02 -9.82139167E-04
  4.81319247E-04 -8.39740578E-04  1.52802510E-04 -4.74702203E-04  5.19857524E-03
 -1.09981134E-02 -3.55155144E-02 -1.14944894E-01  1.25020939E-02 -2.80136313E-02
 -2.29543379E-02 -8.21360925E-02  1.03423240E-02 -2.25851730E-05 -2.94630996E-04
 -5.20608658E-04  1.17216025E-03  5.61240265E-03  2.24564317E-01  1.12909769E-01
  1.23503245E-02  2.20185188E-04 -1.69895297E-02 -2.34522425E-01 -1.20607314E-01
 -6.77198323E-03 -1.95297679E-02  6.43128509E-03  9.30098401E-03  2.84195441E-03
 -6.70123272E-04  5.76010440E-04  2.89989079E-04 -1.15272613E-02 -5.71999921E-03
 -2.00422272E-05 -5.09541506E-04 -1.03065374E-03  2.13590513E-02  7.97670174E-03
 -1.12407016E-04 -2.56308863E-03 -2.62555397E-03  3.28990265E-02  1.22668121E-02
  2.17621251E-03 -1.26085442E-03  3.07932934E-03  1.02012756E-02 -2.05636106E-02
 -3.07827879E-02  5.70119213E-02  8.33952702E-02 -5.71112821E-02 -1.36288970E-02
  3.90610768E-02  5.49330915E-02  4.06576219E-03 -3.50511835E-03  6.60808465E-04
  2.89084362E-03 -2.19735025E-03 -6.18838630E-03  1.21817546E-02 -1.13415301E-02
  2.58510736E-02  3.34330140E-02  3.54102897E-02 -6.09003886E-03  1.62771785E-02
  2.66606429E-02 -9.02886730E-04  1.06370247E-03 -1.77756128E-03  5.06012943E-04
  4.39095471E-04 -6.51610542E-02  1.54207672E-01  4.53415069E-01  2.63377983E-01
 -1.42807500E-01  2.78133341E-01  3.31715477E-01  1.80821603E-01 -1.10360672E-01
  5.95783914E-03  6.71639259E-03  5.20914043E-03 -1.08496251E-02 -1.97498128E-02
  5.48786818E-02  2.70171823E-02  2.63504772E-03 -1.11504607E-03 -3.44246950E-03
 -2.61285000E-02  2.49397452E-02  1.49786731E-04 -3.40603506E-03  2.44096849E-03
 -4.08167918E-03 -2.14657505E-02  2.59656541E-04  2.53593317E-04  1.79206086E-03
 -1.67102983E-02 -7.93633109E-03 -6.79141521E-04  1.30198443E-04 -1.51229943E-03
 -1.34349210E-01 -6.68337274E-02  8.10724360E-03  3.71955541E-03  1.38244689E-02
 -1.43972373E-01 -7.44955383E-02 -1.29831475E-03 -9.61697743E-04 -1.62287534E-02
 -1.55997825E-02  3.71885230E-02  6.28660619E-02  3.05300081E-02 -9.20652382E-02
  6.39495034E-02  4.52182984E-02  2.17238903E-02 -6.90691200E-02 -2.41377264E-03
  5.16013075E-03  1.57751304E-03 -8.32024100E-04 -1.41774427E-03 -6.38431660E-02
  1.48820893E-01 -2.67533976E-01  3.68264275E-01  2.74084326E-01  2.75701989E-01
 -1.96694572E-01  2.72689431E-01  2.09189416E-01  2.49131205E-04  7.09482355E-03
 -1.35382774E-02  3.15790147E-03  1.62365547E-02  1.64739938E-03 -4.76090625E-03
  2.02409162E-02 -9.54573190E-02  9.27337633E-03 -2.38955762E-03  1.84837242E-02
 -7.49326193E-02  3.18923278E-03  1.08316285E-04  4.84302978E-04 -9.90130783E-04
 -2.36303186E-03  3.56609559E-03 -4.31744964E-02 -1.13164314E-02 -5.99538652E-04
  2.69330472E-03  1.05242432E-03 -1.69351738E-02 -2.11381175E-02  1.95711642E-03
 -1.00994077E-03 -2.68135645E-03 -1.34157951E-01 -8.31288377E-02  5.46911533E-03
  3.31069062E-04  1.47047822E-02 -1.37586205E-01 -5.24157659E-02 -9.61405486E-03
  4.21670495E-03 -1.15824495E-02  1.19456326E-02 -5.66641216E-04  1.16175994E-03
 -2.60570730E-03 -1.12881272E-03  1.04681699E-02 -8.28955794E-03  1.13590657E-03
 -2.68382066E-03  6.90870721E-04  6.02317674E-02 -1.40672868E-01 -2.39789700E-01
 -2.10570774E-01  3.50700064E-01 -2.59827877E-01 -1.69018075E-01 -1.65488631E-01
  2.54366203E-01  5.50881508E-03 -1.73535405E-02 -9.89784504E-03 -1.27687073E-03
  9.27084686E-03 -1.44185814E-02  3.63459726E-02 -5.40112142E-02  1.32063700E-01
  4.64984074E-02  4.95060944E-02 -4.14180571E-02  1.06185218E-01  3.15055050E-02