Atom number=12                                                          
SP        RHF                                                         6-31G(d,p)          
Number of atoms                            I               12
Info1-9                                    I   N=           9
         107         106           0           0           0         111
           1           1           2
Full Title                                 C   N=           2
Atom number=12          
Route                                      C   N=           4
#p hf/6-31g** 5d 7f pop=npa charge nosymm       
Charge                                     I                0
Multiplicity                               I                1
Number of electrons                        I               40
Number of alpha electrons                  I               20
Number of beta electrons                   I               20
Number of basis functions                  I               96
Number of independent functions            I               96
Number of point charges in /Mol/           I                0
Number of translation vectors              I                0
Atomic numbers                             I   N=          12
           8           8           8           8           1           1
           1           1           1           1           1           1
Nuclear charges                            R   N=          12
  8.00000000E+00  8.00000000E+00  8.00000000E+00  8.00000000E+00  1.00000000E+00
  1.00000000E+00  1.00000000E+00  1.00000000E+00  1.00000000E+00  1.00000000E+00
  1.00000000E+00  1.00000000E+00
Current cartesian coordinates              R   N=          36
  2.02314400E+01 -2.05013779E+01 -1.90701939E+01  2.54311103E+01 -2.22482823E+01
 -1.84702379E+01  2.16779838E+01 -2.90173418E+01 -1.42069912E+01  2.42145046E+01
 -2.46013372E+01 -1.39203349E+01  2.17723038E+01 -2.13922289E+01 -1.87476176E+01
  1.99702421E+01 -1.94960833E+01 -1.75892854E+01  2.62839852E+01 -2.07798196E+01
 -1.90932542E+01  2.67410892E+01 -2.34772676E+01 -1.82569899E+01  2.05307462E+01
 -2.90181619E+01 -1.56054812E+01  2.25019856E+01 -2.74096119E+01 -1.42973126E+01
  2.35873725E+01 -2.34649901E+01 -1.26604337E+01  2.39147676E+01 -2.37503916E+01
 -1.54881292E+01
Number of symbols in /Mol/                 I                0
Force Field                                I                0
Atom Types                                 C   N=          12
                                                            
                                                            
                        
Int Atom Types                             I   N=          12
           0           0           0           0           0           0
           0           0           0           0           0           0
MM charges                                 R   N=          12
  0.00000000E+00  0.00000000E+00  0.00000000E+00  0.00000000E+00  0.00000000E+00
  0.00000000E+00  0.00000000E+00  0.00000000E+00  0.00000000E+00  0.00000000E+00
  0.00000000E+00  0.00000000E+00
Integer atomic weights                     I   N=          12
          16          16          16          16           1           1
           1           1           1           1           1           1
Real atomic weights                        R   N=          12
  1.59949146E+01  1.59949146E+01  1.59949146E+01  1.59949146E+01  1.00782504E+00
  1.00782504E+00  1.00782504E+00  1.00782504E+00  1.00782504E+00  1.00782504E+00
  1.00782504E+00  1.00782504E+00
Atom fragment info                         I   N=          12
           0           0           0           0           0           0
           0           0           0           0           0           0
Atom residue num                           I   N=          12
           0           0           0           0           0           0
           0           0           0           0           0           0
Nuclear spins                              I   N=          12
           0           0           0           0           1           1
           1           1           1           1           1           1
Nuclear ZEff                               R   N=          12
 -5.60000000E+00 -5.60000000E+00 -5.60000000E+00 -5.60000000E+00 -1.00000000E+00
 -1.00000000E+00 -1.00000000E+00 -1.00000000E+00 -1.00000000E+00 -1.00000000E+00
 -1.00000000E+00 -1.00000000E+00
Nuclear ZNuc                               R   N=          12
  8.00000000E+00  8.00000000E+00  8.00000000E+00  8.00000000E+00  1.00000000E+00
  1.00000000E+00  1.00000000E+00  1.00000000E+00  1.00000000E+00  1.00000000E+00
  1.00000000E+00  1.00000000E+00
Nuclear QMom                               R   N=          12
  0.00000000E+00  0.00000000E+00  0.00000000E+00  0.00000000E+00  0.00000000E+00
  0.00000000E+00  0.00000000E+00  0.00000000E+00  0.00000000E+00  0.00000000E+00
  0.00000000E+00  0.00000000E+00
Nuclear GFac                               R   N=          12
  0.00000000E+00  0.00000000E+00  0.00000000E+00  0.00000000E+00  2.79284600E+00
  2.79284600E+00  2.79284600E+00  2.79284600E+00  2.79284600E+00  2.79284600E+00
  2.79284600E+00  2.79284600E+00
MicOpt                                     I   N=          12
          -1          -1          -1          -1          -1          -1
          -1          -1          -1          -1          -1          -1
Number of residues                         I                0
Number of secondary structures             I                0
Number of contracted shells                I               40
Number of primitive shells                 I               84
Pure/Cartesian d shells                    I                0
Pure/Cartesian f shells                    I                0
Highest angular momentum                   I                2
Largest degree of contraction              I                6
Shell types                                I   N=          40
           0          -1          -1          -2           0          -1
          -1          -2           0          -1          -1          -2
           0          -1          -1          -2           0           0
           1           0           0           1           0           0
           1           0           0           1           0           0
           1           0           0           1           0           0
           1           0           0           1
Number of primitives per shell             I   N=          40
           6           3           1           1           6           3
           1           1           6           3           1           1
           6           3           1           1           3           1
           1           3           1           1           3           1
           1           3           1           1           3           1
           1           3           1           1           3           1
           1           3           1           1
Shell to atom map                          I   N=          40
           1           1           1           1           2           2
           2           2           3           3           3           3
           4           4           4           4           5           5
           5           6           6           6           7           7
           7           8           8           8           9           9
           9          10          10          10          11          11
          11          12          12          12
Primitive exponents                        R   N=          84
  5.48467166E+03  8.25234946E+02  1.88046958E+02  5.29645000E+01  1.68975704E+01
  5.79963534E+00  1.55396162E+01  3.59993359E+00  1.01376175E+00  2.70005823E-01
  8.00000000E-01  5.48467166E+03  8.25234946E+02  1.88046958E+02  5.29645000E+01
  1.68975704E+01  5.79963534E+00  1.55396162E+01  3.59993359E+00  1.01376175E+00
  2.70005823E-01  8.00000000E-01  5.48467166E+03  8.25234946E+02  1.88046958E+02
  5.29645000E+01  1.68975704E+01  5.79963534E+00  1.55396162E+01  3.59993359E+00
  1.01376175E+00  2.70005823E-01  8.00000000E-01  5.48467166E+03  8.25234946E+02
  1.88046958E+02  5.29645000E+01  1.68975704E+01  5.79963534E+00  1.55396162E+01
  3.59993359E+00  1.01376175E+00  2.70005823E-01  8.00000000E-01  1.87311370E+01
  2.82539436E+00  6.40121692E-01  1.61277759E-01  1.10000000E+00  1.87311370E+01
  2.82539436E+00  6.40121692E-01  1.61277759E-01  1.10000000E+00  1.87311370E+01
  2.82539436E+00  6.40121692E-01  1.61277759E-01  1.10000000E+00  1.87311370E+01
  2.82539436E+00  6.40121692E-01  1.61277759E-01  1.10000000E+00  1.87311370E+01
  2.82539436E+00  6.40121692E-01  1.61277759E-01  1.10000000E+00  1.87311370E+01
  2.82539436E+00  6.40121692E-01  1.61277759E-01  1.10000000E+00  1.87311370E+01
  2.82539436E+00  6.40121692E-01  1.61277759E-01  1.10000000E+00  1.87311370E+01
  2.82539436E+00  6.40121692E-01  1.61277759E-01  1.10000000E+00
Contraction coefficients                   R   N=          84
  1.83107443E-03  1.39501722E-02  6.84450781E-02  2.32714336E-01  4.70192898E-01
  3.58520853E-01 -1.10777550E-01 -1.48026263E-01  1.13076702E+00  1.00000000E+00
  1.00000000E+00  1.83107443E-03  1.39501722E-02  6.84450781E-02  2.32714336E-01
  4.70192898E-01  3.58520853E-01 -1.10777550E-01 -1.48026263E-01  1.13076702E+00
  1.00000000E+00  1.00000000E+00  1.83107443E-03  1.39501722E-02  6.84450781E-02
  2.32714336E-01  4.70192898E-01  3.58520853E-01 -1.10777550E-01 -1.48026263E-01
  1.13076702E+00  1.00000000E+00  1.00000000E+00  1.83107443E-03  1.39501722E-02
  6.84450781E-02  2.32714336E-01  4.70192898E-01  3.58520853E-01 -1.10777550E-01
 -1.48026263E-01  1.13076702E+00  1.00000000E+00  1.00000000E+00  3.34946043E-02
  2.34726953E-01  8.13757326E-01  1.00000000E+00  1.00000000E+00  3.34946043E-02
  2.34726953E-01  8.13757326E-01  1.00000000E+00  1.00000000E+00  3.34946043E-02
  2.34726953E-01  8.13757326E-01  1.00000000E+00  1.00000000E+00  3.34946043E-02
  2.34726953E-01  8.13757326E-01  1.00000000E+00  1.00000000E+00  3.34946043E-02
  2.34726953E-01  8.13757326E-01  1.00000000E+00  1.00000000E+00  3.34946043E-02
  2.34726953E-01  8.13757326E-01  1.00000000E+00  1.00000000E+00  3.34946043E-02
  2.34726953E-01  8.13757326E-01  1.00000000E+00  1.00000000E+00  3.34946043E-02
  2.34726953E-01  8.13757326E-01  1.00000000E+00  1.00000000E+00
P(S=P) Contraction coefficients            R   N=          84
  0.00000000E+00  0.00000000E+00  0.00000000E+00  0.00000000E+00  0.00000000E+00
  0.00000000E+00  7.08742682E-02  3.39752839E-01  7.27158577E-01  1.00000000E+00
  0.00000000E+00  0.00000000E+00  0.00000000E+00  0.00000000E+00  0.00000000E+00
  0.00000000E+00  0.00000000E+00  7.08742682E-02  3.39752839E-01  7.27158577E-01
  1.00000000E+00  0.00000000E+00  0.00000000E+00  0.00000000E+00  0.00000000E+00
  0.00000000E+00  0.00000000E+00  0.00000000E+00  7.08742682E-02  3.39752839E-01
  7.27158577E-01  1.00000000E+00  0.00000000E+00  0.00000000E+00  0.00000000E+00
  0.00000000E+00  0.00000000E+00  0.00000000E+00  0.00000000E+00  7.08742682E-02
  3.39752839E-01  7.27158577E-01  1.00000000E+00  0.00000000E+00  0.00000000E+00
  0.00000000E+00  0.00000000E+00  0.00000000E+00  0.00000000E+00  0.00000000E+00
  0.00000000E+00  0.00000000E+00  0.00000000E+00  0.00000000E+00  0.00000000E+00
  0.00000000E+00  0.00000000E+00  0.00000000E+00  0.00000000E+00  0.00000000E+00
  0.00000000E+00  0.00000000E+00  0.00000000E+00  0.00000000E+00  0.00000000E+00
  0.00000000E+00  0.00000000E+00  0.00000000E+00  0.00000000E+00  0.00000000E+00
  0.00000000E+00  0.00000000E+00  0.00000000E+00  0.00000000E+00  0.00000000E+00
  0.00000000E+00  0.00000000E+00  0.00000000E+00  0.00000000E+00  0.00000000E+00
  0.00000000E+00  0.00000000E+00  0.00000000E+00  0.00000000E+00
Coordinates of each shell                  R   N=         120
  2.02314400E+01 -2.05013779E+01 -1.90701939E+01  2.02314400E+01 -2.05013779E+01
 -1.90701939E+01  2.02314400E+01 -2.05013779E+01 -1.90701939E+01  2.02314400E+01
 -2.05013779E+01 -1.90701939E+01  2.54311103E+01 -2.22482823E+01 -1.84702379E+01
  2.54311103E+01 -2.22482823E+01 -1.84702379E+01  2.54311103E+01 -2.22482823E+01
 -1.84702379E+01  2.54311103E+01 -2.22482823E+01 -1.84702379E+01  2.16779838E+01
 -2.90173418E+01 -1.42069912E+01  2.16779838E+01 -2.90173418E+01 -1.42069912E+01
  2.16779838E+01 -2.90173418E+01 -1.42069912E+01  2.16779838E+01 -2.90173418E+01
 -1.42069912E+01  2.42145046E+01 -2.46013372E+01 -1.39203349E+01  2.42145046E+01
 -2.46013372E+01 -1.39203349E+01  2.42145046E+01 -2.46013372E+01 -1.39203349E+01
  2.42145046E+01 -2.46013372E+01 -1.39203349E+01  2.17723038E+01 -2.13922289E+01
 -1.87476176E+01  2.17723038E+01 -2.13922289E+01 -1.87476176E+01  2.17723038E+01
 -2.13922289E+01 -1.87476176E+01  1.99702421E+01 -1.94960833E+01 -1.75892854E+01
  1.99702421E+01 -1.94960833E+01 -1.75892854E+01  1.99702421E+01 -1.94960833E+01
 -1.75892854E+01  2.62839852E+01 -2.07798196E+01 -1.90932542E+01  2.62839852E+01
 -2.07798196E+01 -1.90932542E+01  2.62839852E+01 -2.07798196E+01 -1.90932542E+01
  2.67410892E+01 -2.34772676E+01 -1.82569899E+01  2.67410892E+01 -2.34772676E+01
 -1.82569899E+01  2.67410892E+01 -2.34772676E+01 -1.82569899E+01  2.05307462E+01
 -2.90181619E+01 -1.56054812E+01  2.05307462E+01 -2.90181619E+01 -1.56054812E+01
  2.05307462E+01 -2.90181619E+01 -1.56054812E+01  2.25019856E+01 -2.74096119E+01
 -1.42973126E+01  2.25019856E+01 -2.74096119E+01 -1.42973126E+01  2.25019856E+01
 -2.74096119E+01 -1.42973126E+01  2.35873725E+01 -2.34649901E+01 -1.26604337E+01
  2.35873725E+01 -2.34649901E+01 -1.26604337E+01  2.35873725E+01 -2.34649901E+01
 -1.26604337E+01  2.39147676E+01 -2.37503916E+01 -1.54881292E+01  2.39147676E+01
 -2.37503916E+01 -1.54881292E+01  2.39147676E+01 -2.37503916E+01 -1.54881292E+01
Num ILSW                                   I              100
ILSW                                       I   N=         100
           0           0           0           0           2           0
           0           0           0           0           0          -1
           5           0           0           0           0           0
           0           0           0           0           0           0
           1           1           0           0           0           0
           0           0      100000           0          -1           0
           0           0           0           0           0           0
           0           0           0           1           0           0
           0 -2000000000           1           0           0           0
           0           0           4          52           0           0
           0           1           0           0           0           0
           0           0           0          12           0           1
           0           0           0           0           0           0
           0           0           0           0           0           0
           0           0           0           0           0           0
           0           0           0           0           0           0
           0           0           0           0
Num RLSW                                   I               52
RLSW                                       R   N=          52
  1.00000000E+00  1.00000000E+00  1.00000000E+00  1.00000000E+00  1.00000000E+00
  0.00000000E+00  0.00000000E+00  1.00000000E+00  0.00000000E+00  0.00000000E+00
  0.00000000E+00  0.00000000E+00  1.00000000E+00  0.00000000E+00  0.00000000E+00
  0.00000000E+00  0.00000000E+00  1.00000000E+00  0.00000000E+00  0.00000000E+00
  0.00000000E+00  0.00000000E+00  1.00000000E+00  0.00000000E+00  0.00000000E+00
  0.00000000E+00  0.00000000E+00  1.00000000E+00  0.00000000E+00  0.00000000E+00
  0.00000000E+00  0.00000000E+00  1.00000000E+00  0.00000000E+00  0.00000000E+00
  0.00000000E+00  0.00000000E+00  0.00000000E+00  1.00000000E+00  1.00000000E+00
  0.00000000E+00  1.00000000E+00  0.00000000E+00  0.00000000E+00  0.00000000E+00
  0.00000000E+00  0.00000000E+00  0.00000000E+00  0.00000000E+00  0.00000000E+00
  0.00000000E+00  0.00000000E+00
MxBond                                     I                2
NBond                                      I   N=          12
           2           2           2           2           1           1
           1           1           1           1           1           1
IBond                                      I   N=          24
           5           6           7           8           9          10
          11          12           1           0           1           0
           2           0           2           0           3           0
           3           0           4           0           4           0
RBond                                      R   N=          24
  1.00000000E+00  1.00000000E+00  1.00000000E+00  1.00000000E+00  1.00000000E+00
  1.00000000E+00  1.00000000E+00  1.00000000E+00  1.00000000E+00  0.00000000E+00
  1.00000000E+00  0.00000000E+00  1.00000000E+00  0.00000000E+00  1.00000000E+00
  0.00000000E+00  1.00000000E+00  0.00000000E+00  1.00000000E+00  0.00000000E+00
  1.00000000E+00  0.00000000E+00  1.00000000E+00  0.00000000E+00
Virial Ratio                               R      2.046291149426141E+00
SCF Energy                                 R     -3.177552481857134E+02
Total Energy                               R     -3.177552481857134E+02
RMS Density                                R      5.328437392083461E-09
Job Status                                 I                1
Nuclear derivative order                   I                0
External E-field                           R   N=          35
  0.00000000E+00  0.00000000E+00  0.00000000E+00  0.00000000E+00  0.00000000E+00
  0.00000000E+00  0.00000000E+00  0.00000000E+00  0.00000000E+00  0.00000000E+00
  0.00000000E+00  0.00000000E+00  0.00000000E+00  0.00000000E+00  0.00000000E+00
  0.00000000E+00  0.00000000E+00  0.00000000E+00  0.00000000E+00  0.00000000E+00
  0.00000000E+00  0.00000000E+00  0.00000000E+00  0.00000000E+00  0.00000000E+00
  0.00000000E+00  0.00000000E+00  0.00000000E+00  0.00000000E+00  0.00000000E+00
  0.00000000E+00  0.00000000E+00  0.00000000E+00  0.00000000E+00  0.00000000E+00
IOpCl                                      I                0
IROHF                                      I                0
Alpha Orbital Energies                     R   N=          96
 -2.06471400E+01 -2.06170771E+01 -2.06049891E+01 -2.05463285E+01 -1.43269020E+00
 -1.40471706E+00 -1.38902318E+00 -1.33442871E+00 -8.01662964E-01 -7.68756514E-01
 -7.51841174E-01 -7.15874210E-01 -6.69667173E-01 -6.28176101E-01 -6.21415603E-01
 -5.87589153E-01 -5.78694494E-01 -5.49704029E-01 -5.38293379E-01 -4.92787586E-01
  1.28838094E-01  1.88332351E-01  2.21271802E-01  2.39879065E-01  2.45279863E-01
  3.07474003E-01  3.91349522E-01  4.46836027E-01  9.17934643E-01  9.58516796E-01
  9.74955691E-01  1.00533427E+00  1.01573658E+00  1.02735464E+00  1.05197613E+00
  1.07539928E+00  1.09839424E+00  1.11395798E+00  1.13166652E+00  1.14423353E+00
  1.18824267E+00  1.20673645E+00  1.24899545E+00  1.28618881E+00  1.29244441E+00
  1.30514751E+00  1.34367900E+00  1.34635378E+00  1.50406953E+00  1.64559446E+00
  1.66987901E+00  1.71561758E+00  1.73813368E+00  1.74616206E+00  1.76744927E+00
  1.77311412E+00  1.78684461E+00  1.82179720E+00  1.84197684E+00  1.86554340E+00
  1.89462727E+00  1.93056483E+00  1.96295154E+00  2.00330495E+00  2.46928193E+00
  2.49192478E+00  2.53012238E+00  2.54130567E+00  2.56528573E+00  2.60146923E+00
  2.61882944E+00  2.71614206E+00  2.72536600E+00  2.77562658E+00  2.79362060E+00
  2.86694457E+00  2.89339609E+00  2.91206608E+00  2.94174504E+00  2.96134275E+00
  2.97787401E+00  2.98722756E+00  3.03888055E+00  3.05522946E+00  3.30593676E+00
  3.33742307E+00  3.35749239E+00  3.40057901E+00  3.68504539E+00  3.72683581E+00
  3.74709550E+00  3.79657834E+00  3.87463866E+00  3.91779147E+00  3.98276721E+00
  4.00074268E+00
Alpha MO coefficients                      R   N=        9216
  9.60734368E-05  2.02879134E-04  2.93233329E-05 -4.03394774E-05  3.90603675E-06
 -6.69920671E-04 -3.77666263E-04  2.76720303E-04 -2.10265928E-05  3.90025148E-05
 -2.29070829E-05  1.29993858E-05 -5.43767676E-05  5.59236450E-05  9.95696038E-01
  2.21612175E-02  1.80428567E-03  2.10566055E-04 -2.70924891E-04 -6.05454256E-03
 -3.28229727E-04 -1.27458336E-05 -8.18171912E-05 -3.31185650E-04 -3.56454558E-05
 -2.40733127E-04 -1.83313793E-04 -6.23154461E-05 -1.69830974E-05 -5.41047841E-05
 -2.10190582E-06  8.82835170E-07 -5.34270697E-06  2.30953733E-04  6.40252683E-05
  1.09314267E-04  9.36893759E-06 -1.59212925E-05 -1.65597623E-06 -2.33732254E-06
 -1.60863915E-05  2.10998968E-05  2.06747804E-05  1.38760791E-04 -2.13194345E-05
  6.05051689E-06 -3.37121771E-05 -5.29223558E-04  1.17579540E-05 -1.63380355E-04
  3.39044068E-04 -4.83359884E-05  2.47610949E-05  4.06622445E-05  9.66738642E-06
  3.63870492E-06  1.05838935E-04  9.28870583E-04  1.92692017E-05  5.06432717E-05
 -3.21070480E-05  4.76257008E-05 -2.30480818E-04  7.75501356E-06  9.98616370E-07
  2.55557530E-05 -6.00201865E-04  1.04977243E-03  5.72870798E-04  9.68268989E-04
 -3.99726788E-04 -5.48676181E-04  1.03671173E-03  8.59555371E-04 -7.91889778E-04
  1.44128997E-04 -1.41040421E-06  2.16655196E-05 -1.60681286E-06 -3.94524353E-06
 -4.09746412E-07 -1.41571622E-05 -2.95557453E-04  2.21887049E-05  4.27364743E-05
 -2.52696551E-06  3.90749494E-05 -1.65819407E-04 -6.12473753E-06  2.90725895E-06
  3.28971726E-06  5.83860644E-05  8.88004927E-04  1.33474492E-04  2.32857658E-05
 -3.83895098E-05 -2.87264750E-04 -1.47133145E-04 -4.63639144E-06 -3.53809063E-06
  2.57920466E-05  6.13142453E-04  2.96735112E-04 -1.67318176E-04 -1.85260515E-05
 -4.45354110E-05  2.68268777E-05 -1.70603100E-05  3.56962611E-05 -5.44064990E-05
 -6.54483841E-06  1.16299567E-04 -3.63485797E-05 -4.16071779E-05  7.14763870E-05
 -2.67840642E-04  1.09401472E-04  3.88189103E-04 -4.44039640E-04 -5.48145558E-05
  4.27326110E-05  2.05209310E-05  3.35809336E-06  2.78780198E-05  9.14703661E-05
  3.46926089E-04  6.00092202E-05  8.56008301E-05  1.12050673E-06 -1.11756676E-03
 -3.71875013E-04 -5.84215379E-04 -4.01046491E-05  3.66261673E-05 -1.34106690E-05
 -4.80614345E-06  4.01925917E-05 -5.93005289E-05  9.95716258E-01  2.24388575E-02
 -1.02496212E-03  1.63955446E-03 -2.97514046E-04 -7.12011935E-03  7.80371903E-04
 -3.73745887E-04  7.26808495E-04  3.22383880E-04 -1.26482697E-04  1.14415123E-04
 -1.13501401E-04 -2.59906570E-04 -1.65562333E-05 -8.00681480E-04  1.16930095E-04
 -5.87472121E-05  2.79221073E-06  1.99108495E-05  4.60484620E-05 -1.17148338E-05
 -1.82309460E-06 -1.88467466E-06 -1.33256449E-04 -1.35285698E-04  2.05282113E-05
  2.98115305E-05  1.14464361E-05  8.33939709E-05  5.17966741E-05 -4.25253876E-05
  5.02088514E-06  1.77211656E-05  1.11426291E-04 -3.76061287E-04 -6.12152233E-06
  7.43053921E-06 -1.71824470E-05  2.06190391E-04  1.65678254E-03  8.81348281E-05
  1.39554627E-04  6.89625211E-05 -5.11466184E-04  8.43011778E-04 -4.95453650E-04
  7.72234001E-04  8.12104885E-04 -3.69379524E-04  2.21235326E-03 -1.88541833E-04
  4.68339873E-04 -8.89751668E-04  9.95720806E-01  2.22976296E-02  1.10421132E-03
  8.66175246E-05  1.61899283E-03 -7.14273382E-03 -1.17785428E-03  4.10692458E-04
 -7.75224560E-04  9.38805436E-05 -6.27435487E-05  2.90536960E-04 -3.18806402E-05
 -2.20379972E-04 -8.44951939E-05  1.51366489E-04 -1.52373814E-04  3.60069506E-05
 -4.38643761E-05 -1.57355584E-04  8.10226239E-04 -3.53327438E-04  2.42255412E-04
  3.18183418E-05 -2.57007155E-05 -1.81034606E-05 -5.70722214E-05 -2.79712375E-05
  1.32032330E-05  3.03469601E-05  1.70272951E-06 -6.05265036E-07  2.99875244E-06
 -1.36247193E-04 -4.85619877E-05 -6.84580539E-05 -1.52460237E-05  1.02185535E-05
  3.00711918E-06 -2.63968220E-07  9.51699918E-06 -1.17330627E-05  2.64806317E-04
 -1.39952380E-04 -1.91735177E-05 -2.95151279E-06  1.20850158E-05  6.62205181E-04
  2.53107175E-06  2.10995253E-04 -3.93578426E-04  6.08336126E-05  2.92402069E-05
 -7.53079063E-05 -1.72503536E-05 -2.12020969E-05 -3.78191929E-04  2.90442933E-03
  7.99729644E-04 -3.94885038E-04  2.15043928E-04 -4.93329857E-04  9.70648272E-04
 -9.30551525E-05  6.19945264E-04  1.00528531E-03  6.80118715E-05 -1.29708236E-04
 -7.85011831E-05  4.86287679E-05 -2.94833921E-05 -2.51890981E-04 -1.78203650E-04
  9.05129744E-06 -7.02884625E-05  4.19826833E-06  1.07998399E-06 -3.96749967E-05
 -2.59676203E-06  1.07502862E-06 -3.46895137E-06  8.32078229E-06  2.20205575E-04
 -1.10122310E-05 -2.13337454E-05  4.84518187E-06 -8.43556258E-06  1.07122080E-04
 -2.23308937E-06 -1.66673931E-05  8.35441014E-06 -3.42312425E-05 -9.78279905E-04
 -9.90211919E-06  6.08697149E-05 -1.32381757E-04 -8.75326503E-06  2.89154717E-05
 -1.07054020E-07  1.25016081E-06 -6.90669175E-06 -1.29397706E-04 -5.37373523E-05
  2.91232878E-05  5.26651081E-06  8.60252497E-06 -4.80708794E-06  3.16813950E-06
 -5.93472212E-06  9.56327884E-06  1.12596892E-05 -4.44443621E-05  1.26509673E-05
  1.26856007E-05 -2.74638197E-05  9.37811560E-05 -4.74236049E-05 -1.21792074E-04
  1.50026933E-04  1.42517383E-05 -1.05330187E-05 -8.74066017E-06  9.88661760E-07
 -1.38963600E-05  9.95729188E-01  2.24267548E-02 -3.30786336E-04  1.50592742E-03
 -1.38872659E-03 -7.58012817E-03 -4.14981004E-04 -1.58110842E-03  5.64189827E-04
  6.09865281E-05  3.28560120E-04  1.66447987E-05  6.15869082E-05  1.37541890E-04
 -6.47012285E-05  3.18258246E-04 -8.86749868E-05 -1.70512955E-04 -1.64626824E-05
 -5.25767066E-04  4.38653932E-04  1.03440778E-03  3.78146782E-05  8.31108688E-05
 -4.42088389E-05 -2.65353334E-05  2.36251205E-05 -1.62956573E-04  1.38536551E-06
  1.65195666E-04 -2.23362357E-05  9.15434459E-06  2.99788924E-06 -8.28759818E-06
  4.39257717E-06  1.96122853E-06 -3.89271824E-07 -1.63802779E-06  4.29956242E-05
  4.56475821E-05 -7.21135787E-06 -1.09424324E-05 -4.82067702E-06 -3.86939462E-05
  9.35574822E-06  1.24794912E-05 -2.45241520E-06 -5.62316767E-06 -4.35427655E-04
  8.05526554E-04 -7.38621295E-04  8.87756500E-05 -9.62543777E-04 -2.82732833E-04
  3.57578228E-03  4.27016278E-04  8.62648606E-04 -5.74173760E-05 -4.92191503E-05
 -2.02140681E-04 -7.13635662E-05 -2.29507839E-05  5.38633309E-05  1.35640144E-04
 -7.19166209E-04 -6.64867177E-05 -3.83493267E-05 -8.79527051E-05 -1.98943328E-02
  4.30084081E-02  6.59780050E-03 -7.55328316E-04  6.02300341E-03  4.18749432E-02
  3.72304390E-03 -1.04840162E-03  2.07125023E-03 -2.24963789E-04  4.49456256E-04
  4.22338655E-05  5.40654941E-04 -3.65123517E-04 -2.06075713E-01  4.55771372E-01
  7.32086736E-02  7.69507381E-03 -1.05737692E-02  4.31911891E-01  2.10447032E-02
  1.75750848E-03  1.10245785E-03 -2.88488303E-03 -1.72517985E-03 -2.66179629E-03
  1.88152533E-03 -2.20308013E-04 -3.59888268E-03  7.89477977E-03  3.85844418E-04
  1.92577776E-03 -7.68730770E-04  6.67103302E-03  1.12565987E-04  6.23234620E-04
 -2.22697589E-04 -2.73456316E-05  3.56253722E-06 -4.11357571E-05 -5.79794223E-05
  3.79958294E-05 -4.72949838E-02  1.03472427E-01 -7.44745220E-03  1.67280214E-02
 -6.92206270E-03  9.91554472E-02 -3.20576951E-03  5.87602548E-03 -5.49206555E-03
  3.89134208E-04 -8.16434630E-05 -6.16589597E-04 -6.35439615E-04 -1.32946170E-04
  1.81100349E-02  3.69105730E-04 -1.91555245E-03  1.13425541E-03 -8.26664533E-05
  1.23068013E-02  1.92580926E-03  4.98189861E-04 -1.47136029E-03 -2.02387249E-03
  1.37585160E-01  8.36580336E-03 -9.84778883E-03 -2.15994305E-02  8.79103499E-03
  1.38321596E-01  8.05956792E-03 -1.69032881E-02  1.85255045E-02 -3.74817104E-03
  2.10156168E-03  3.87276294E-04  3.02333289E-04  7.34251436E-05  3.27071527E-04
  4.45905271E-03  9.14107557E-04 -3.00616410E-04 -5.01916299E-04 -1.86988204E-05
  3.04476270E-02  3.26746392E-03  1.86995136E-03 -3.27016931E-03 -4.42733125E-03
  3.79781361E-02  3.83259530E-04  6.55256823E-04 -2.37743432E-03  5.17299939E-03
  9.23080464E-03 -1.90113123E-02 -2.31902690E-03 -6.69623824E-05 -2.77294233E-03
 -2.41942492E-02 -3.38500843E-03  1.35844510E-03 -8.68082529E-04  2.73834771E-04
 -3.05894063E-04  3.21800484E-05 -3.45639786E-04  4.36123845E-04  4.90959077E-02
 -1.09505329E-01 -2.03217587E-02 -4.48082547E-03  7.68601091E-03 -1.02643824E-01
 -7.02466910E-03 -3.19135148E-03  5.41948971E-03  1.49883354E-03 -6.62460478E-06
  6.01404932E-05 -6.52244513E-04  2.81189463E-04 -2.32176877E-02  5.00894527E-02
  1.43626381E-03  1.08407172E-02 -5.17474207E-03  4.81348383E-02  1.38795776E-03
  5.58585188E-03 -1.62139752E-03 -3.21082903E-04  9.23027027E-05 -2.83555827E-04
 -5.33048334E-04  4.83613384E-04 -2.05660990E-01  4.53100030E-01 -3.67949749E-02
  6.66491470E-02 -1.18531416E-02  4.36593649E-01 -1.96083426E-02  2.14086701E-02
 -1.06618154E-02  3.00664004E-04  3.67465943E-04 -1.96541211E-04 -2.38362051E-03
 -1.29562713E-03 -7.04816886E-03  6.72879855E-03  2.34047530E-04 -2.25821355E-04
  4.85646653E-05 -5.95813477E-03 -8.47837890E-04 -1.54706600E-04  6.54535691E-04
  9.07913885E-04 -3.50053957E-02 -2.45647144E-03  2.47582222E-03  5.55457777E-03
 -2.25277143E-03 -3.29820359E-02  3.04573554E-04  3.62846485E-03 -4.47440667E-03
  1.34967621E-03  1.39758571E-02  2.49366787E-03  1.87375995E-03  3.45872050E-04
  2.09801260E-03  2.48581102E-02 -3.55200965E-04 -1.49517178E-03 -2.47206976E-03
 -2.37320217E-04  1.38792059E-01  1.17604354E-02  8.22636193E-03 -1.44971237E-02
 -1.92020069E-02  1.35285643E-01 -1.79303405E-03  2.98729392E-03 -1.01810669E-02
  2.26999210E-02 -2.11943685E-01  4.66030603E-01  4.44725230E-02  4.70504628E-03
  6.54551647E-02  4.51808165E-01  1.39113865E-02  1.66760734E-03  2.35388263E-02
  4.88156015E-04  2.93802798E-03  1.65900220E-03  1.28299699E-03 -1.67195363E-03
  2.29385391E-02 -5.15343250E-02 -1.33055045E-02 -6.89992939E-05  1.46314845E-03
 -4.77433154E-02 -8.62930676E-03  2.15500712E-03 -1.64319766E-03 -6.60054315E-05
  3.93360269E-04  3.27638188E-04  2.72406868E-04 -2.89758505E-04 -6.96859962E-04
  1.26543715E-03  4.41477728E-06  2.78962685E-04 -1.74863987E-04  2.47718104E-03
  4.24042057E-04  7.06452573E-04  6.47516381E-05 -6.68225642E-05 -1.32220986E-05