Atom number=12                                                          
SP        RHF                                                         6-31G(d,p)          
Number of atoms                            I               12
Info1-9                                    I   N=           9
         107         106           0           0           0         111
           1           1           2
Full Title                                 C   N=           2
Atom number=12          
Route                                      C   N=           4
#p hf/6-31g** 5d 7f pop=npa charge nosymm       
Charge                                     I                0
Multiplicity                               I                1
Number of electrons                        I               40
Number of alpha electrons                  I               20
Number of beta electrons                   I               20
Number of basis functions                  I               96
Number of independent functions            I               96
Number of point charges in /Mol/           I                0
Number of translation vectors              I                0
Atomic numbers                             I   N=          12
           8           8           8           8           1           1
           1           1           1           1           1           1
Nuclear charges                            R   N=          12
  8.00000000E+00  8.00000000E+00  8.00000000E+00  8.00000000E+00  1.00000000E+00
  1.00000000E+00  1.00000000E+00  1.00000000E+00  1.00000000E+00  1.00000000E+00
  1.00000000E+00  1.00000000E+00
Current cartesian coordinates              R   N=          36
  1.58591958E+01 -2.23232232E+01 -2.11658453E+01  1.37010511E+01 -1.86319947E+01
 -2.47619431E+01  1.90577217E+01 -1.81470343E+01 -2.58786843E+01  1.59711829E+01
 -2.00983315E+01 -2.96421136E+01  1.54490326E+01 -2.36930366E+01 -2.00580047E+01
  1.74840371E+01 -2.17584956E+01 -2.06064713E+01  1.34560972E+01 -1.93157846E+01
 -2.64185526E+01  1.38733941E+01 -2.00816358E+01 -2.36938794E+01  1.85910557E+01
 -1.86665521E+01 -2.75472898E+01  1.75122961E+01 -1.81949823E+01 -2.49399156E+01
  1.53540909E+01 -1.96661077E+01 -3.12865930E+01  1.75030005E+01 -2.10073446E+01
 -2.99570119E+01
Number of symbols in /Mol/                 I                0
Force Field                                I                0
Atom Types                                 C   N=          12
                                                            
                                                            
                        
Int Atom Types                             I   N=          12
           0           0           0           0           0           0
           0           0           0           0           0           0
MM charges                                 R   N=          12
  0.00000000E+00  0.00000000E+00  0.00000000E+00  0.00000000E+00  0.00000000E+00
  0.00000000E+00  0.00000000E+00  0.00000000E+00  0.00000000E+00  0.00000000E+00
  0.00000000E+00  0.00000000E+00
Integer atomic weights                     I   N=          12
          16          16          16          16           1           1
           1           1           1           1           1           1
Real atomic weights                        R   N=          12
  1.59949146E+01  1.59949146E+01  1.59949146E+01  1.59949146E+01  1.00782504E+00
  1.00782504E+00  1.00782504E+00  1.00782504E+00  1.00782504E+00  1.00782504E+00
  1.00782504E+00  1.00782504E+00
Atom fragment info                         I   N=          12
           0           0           0           0           0           0
           0           0           0           0           0           0
Atom residue num                           I   N=          12
           0           0           0           0           0           0
           0           0           0           0           0           0
Nuclear spins                              I   N=          12
           0           0           0           0           1           1
           1           1           1           1           1           1
Nuclear ZEff                               R   N=          12
 -5.60000000E+00 -5.60000000E+00 -5.60000000E+00 -5.60000000E+00 -1.00000000E+00
 -1.00000000E+00 -1.00000000E+00 -1.00000000E+00 -1.00000000E+00 -1.00000000E+00
 -1.00000000E+00 -1.00000000E+00
Nuclear ZNuc                               R   N=          12
  8.00000000E+00  8.00000000E+00  8.00000000E+00  8.00000000E+00  1.00000000E+00
  1.00000000E+00  1.00000000E+00  1.00000000E+00  1.00000000E+00  1.00000000E+00
  1.00000000E+00  1.00000000E+00
Nuclear QMom                               R   N=          12
  0.00000000E+00  0.00000000E+00  0.00000000E+00  0.00000000E+00  0.00000000E+00
  0.00000000E+00  0.00000000E+00  0.00000000E+00  0.00000000E+00  0.00000000E+00
  0.00000000E+00  0.00000000E+00
Nuclear GFac                               R   N=          12
  0.00000000E+00  0.00000000E+00  0.00000000E+00  0.00000000E+00  2.79284600E+00
  2.79284600E+00  2.79284600E+00  2.79284600E+00  2.79284600E+00  2.79284600E+00
  2.79284600E+00  2.79284600E+00
MicOpt                                     I   N=          12
          -1          -1          -1          -1          -1          -1
          -1          -1          -1          -1          -1          -1
Number of residues                         I                0
Number of secondary structures             I                0
Number of contracted shells                I               40
Number of primitive shells                 I               84
Pure/Cartesian d shells                    I                0
Pure/Cartesian f shells                    I                0
Highest angular momentum                   I                2
Largest degree of contraction              I                6
Shell types                                I   N=          40
           0          -1          -1          -2           0          -1
          -1          -2           0          -1          -1          -2
           0          -1          -1          -2           0           0
           1           0           0           1           0           0
           1           0           0           1           0           0
           1           0           0           1           0           0
           1           0           0           1
Number of primitives per shell             I   N=          40
           6           3           1           1           6           3
           1           1           6           3           1           1
           6           3           1           1           3           1
           1           3           1           1           3           1
           1           3           1           1           3           1
           1           3           1           1           3           1
           1           3           1           1
Shell to atom map                          I   N=          40
           1           1           1           1           2           2
           2           2           3           3           3           3
           4           4           4           4           5           5
           5           6           6           6           7           7
           7           8           8           8           9           9
           9          10          10          10          11          11
          11          12          12          12
Primitive exponents                        R   N=          84
  5.48467166E+03  8.25234946E+02  1.88046958E+02  5.29645000E+01  1.68975704E+01
  5.79963534E+00  1.55396162E+01  3.59993359E+00  1.01376175E+00  2.70005823E-01
  8.00000000E-01  5.48467166E+03  8.25234946E+02  1.88046958E+02  5.29645000E+01
  1.68975704E+01  5.79963534E+00  1.55396162E+01  3.59993359E+00  1.01376175E+00
  2.70005823E-01  8.00000000E-01  5.48467166E+03  8.25234946E+02  1.88046958E+02
  5.29645000E+01  1.68975704E+01  5.79963534E+00  1.55396162E+01  3.59993359E+00
  1.01376175E+00  2.70005823E-01  8.00000000E-01  5.48467166E+03  8.25234946E+02
  1.88046958E+02  5.29645000E+01  1.68975704E+01  5.79963534E+00  1.55396162E+01
  3.59993359E+00  1.01376175E+00  2.70005823E-01  8.00000000E-01  1.87311370E+01
  2.82539436E+00  6.40121692E-01  1.61277759E-01  1.10000000E+00  1.87311370E+01
  2.82539436E+00  6.40121692E-01  1.61277759E-01  1.10000000E+00  1.87311370E+01
  2.82539436E+00  6.40121692E-01  1.61277759E-01  1.10000000E+00  1.87311370E+01
  2.82539436E+00  6.40121692E-01  1.61277759E-01  1.10000000E+00  1.87311370E+01
  2.82539436E+00  6.40121692E-01  1.61277759E-01  1.10000000E+00  1.87311370E+01
  2.82539436E+00  6.40121692E-01  1.61277759E-01  1.10000000E+00  1.87311370E+01
  2.82539436E+00  6.40121692E-01  1.61277759E-01  1.10000000E+00  1.87311370E+01
  2.82539436E+00  6.40121692E-01  1.61277759E-01  1.10000000E+00
Contraction coefficients                   R   N=          84
  1.83107443E-03  1.39501722E-02  6.84450781E-02  2.32714336E-01  4.70192898E-01
  3.58520853E-01 -1.10777550E-01 -1.48026263E-01  1.13076702E+00  1.00000000E+00
  1.00000000E+00  1.83107443E-03  1.39501722E-02  6.84450781E-02  2.32714336E-01
  4.70192898E-01  3.58520853E-01 -1.10777550E-01 -1.48026263E-01  1.13076702E+00
  1.00000000E+00  1.00000000E+00  1.83107443E-03  1.39501722E-02  6.84450781E-02
  2.32714336E-01  4.70192898E-01  3.58520853E-01 -1.10777550E-01 -1.48026263E-01
  1.13076702E+00  1.00000000E+00  1.00000000E+00  1.83107443E-03  1.39501722E-02
  6.84450781E-02  2.32714336E-01  4.70192898E-01  3.58520853E-01 -1.10777550E-01
 -1.48026263E-01  1.13076702E+00  1.00000000E+00  1.00000000E+00  3.34946043E-02
  2.34726953E-01  8.13757326E-01  1.00000000E+00  1.00000000E+00  3.34946043E-02
  2.34726953E-01  8.13757326E-01  1.00000000E+00  1.00000000E+00  3.34946043E-02
  2.34726953E-01  8.13757326E-01  1.00000000E+00  1.00000000E+00  3.34946043E-02
  2.34726953E-01  8.13757326E-01  1.00000000E+00  1.00000000E+00  3.34946043E-02
  2.34726953E-01  8.13757326E-01  1.00000000E+00  1.00000000E+00  3.34946043E-02
  2.34726953E-01  8.13757326E-01  1.00000000E+00  1.00000000E+00  3.34946043E-02
  2.34726953E-01  8.13757326E-01  1.00000000E+00  1.00000000E+00  3.34946043E-02
  2.34726953E-01  8.13757326E-01  1.00000000E+00  1.00000000E+00
P(S=P) Contraction coefficients            R   N=          84
  0.00000000E+00  0.00000000E+00  0.00000000E+00  0.00000000E+00  0.00000000E+00
  0.00000000E+00  7.08742682E-02  3.39752839E-01  7.27158577E-01  1.00000000E+00
  0.00000000E+00  0.00000000E+00  0.00000000E+00  0.00000000E+00  0.00000000E+00
  0.00000000E+00  0.00000000E+00  7.08742682E-02  3.39752839E-01  7.27158577E-01
  1.00000000E+00  0.00000000E+00  0.00000000E+00  0.00000000E+00  0.00000000E+00
  0.00000000E+00  0.00000000E+00  0.00000000E+00  7.08742682E-02  3.39752839E-01
  7.27158577E-01  1.00000000E+00  0.00000000E+00  0.00000000E+00  0.00000000E+00
  0.00000000E+00  0.00000000E+00  0.00000000E+00  0.00000000E+00  7.08742682E-02
  3.39752839E-01  7.27158577E-01  1.00000000E+00  0.00000000E+00  0.00000000E+00
  0.00000000E+00  0.00000000E+00  0.00000000E+00  0.00000000E+00  0.00000000E+00
  0.00000000E+00  0.00000000E+00  0.00000000E+00  0.00000000E+00  0.00000000E+00
  0.00000000E+00  0.00000000E+00  0.00000000E+00  0.00000000E+00  0.00000000E+00
  0.00000000E+00  0.00000000E+00  0.00000000E+00  0.00000000E+00  0.00000000E+00
  0.00000000E+00  0.00000000E+00  0.00000000E+00  0.00000000E+00  0.00000000E+00
  0.00000000E+00  0.00000000E+00  0.00000000E+00  0.00000000E+00  0.00000000E+00
  0.00000000E+00  0.00000000E+00  0.00000000E+00  0.00000000E+00  0.00000000E+00
  0.00000000E+00  0.00000000E+00  0.00000000E+00  0.00000000E+00
Coordinates of each shell                  R   N=         120
  1.58591958E+01 -2.23232232E+01 -2.11658453E+01  1.58591958E+01 -2.23232232E+01
 -2.11658453E+01  1.58591958E+01 -2.23232232E+01 -2.11658453E+01  1.58591958E+01
 -2.23232232E+01 -2.11658453E+01  1.37010511E+01 -1.86319947E+01 -2.47619431E+01
  1.37010511E+01 -1.86319947E+01 -2.47619431E+01  1.37010511E+01 -1.86319947E+01
 -2.47619431E+01  1.37010511E+01 -1.86319947E+01 -2.47619431E+01  1.90577217E+01
 -1.81470343E+01 -2.58786843E+01  1.90577217E+01 -1.81470343E+01 -2.58786843E+01
  1.90577217E+01 -1.81470343E+01 -2.58786843E+01  1.90577217E+01 -1.81470343E+01
 -2.58786843E+01  1.59711829E+01 -2.00983315E+01 -2.96421136E+01  1.59711829E+01
 -2.00983315E+01 -2.96421136E+01  1.59711829E+01 -2.00983315E+01 -2.96421136E+01
  1.59711829E+01 -2.00983315E+01 -2.96421136E+01  1.54490326E+01 -2.36930366E+01
 -2.00580047E+01  1.54490326E+01 -2.36930366E+01 -2.00580047E+01  1.54490326E+01
 -2.36930366E+01 -2.00580047E+01  1.74840371E+01 -2.17584956E+01 -2.06064713E+01
  1.74840371E+01 -2.17584956E+01 -2.06064713E+01  1.74840371E+01 -2.17584956E+01
 -2.06064713E+01  1.34560972E+01 -1.93157846E+01 -2.64185526E+01  1.34560972E+01
 -1.93157846E+01 -2.64185526E+01  1.34560972E+01 -1.93157846E+01 -2.64185526E+01
  1.38733941E+01 -2.00816358E+01 -2.36938794E+01  1.38733941E+01 -2.00816358E+01
 -2.36938794E+01  1.38733941E+01 -2.00816358E+01 -2.36938794E+01  1.85910557E+01
 -1.86665521E+01 -2.75472898E+01  1.85910557E+01 -1.86665521E+01 -2.75472898E+01
  1.85910557E+01 -1.86665521E+01 -2.75472898E+01  1.75122961E+01 -1.81949823E+01
 -2.49399156E+01  1.75122961E+01 -1.81949823E+01 -2.49399156E+01  1.75122961E+01
 -1.81949823E+01 -2.49399156E+01  1.53540909E+01 -1.96661077E+01 -3.12865930E+01
  1.53540909E+01 -1.96661077E+01 -3.12865930E+01  1.53540909E+01 -1.96661077E+01
 -3.12865930E+01  1.75030005E+01 -2.10073446E+01 -2.99570119E+01  1.75030005E+01
 -2.10073446E+01 -2.99570119E+01  1.75030005E+01 -2.10073446E+01 -2.99570119E+01
Num ILSW                                   I              100
ILSW                                       I   N=         100
           0           0           0           0           2           0
           0           0           0           0           0          -1
           5           0           0           0           0           0
           0           0           0           0           0           0
           1           1           0           0           0           0
           0           0      100000           0          -1           0
           0           0           0           0           0           0
           0           0           0           1           0           0
           0 -2000000000           1           0           0           0
           0           0           4          52           0           0
           0           1           0           0           0           0
           0           0           0          12           0           1
           0           0           0           0           0           0
           0           0           0           0           0           0
           0           0           0           0           0           0
           0           0           0           0           0           0
           0           0           0           0
Num RLSW                                   I               52
RLSW                                       R   N=          52
  1.00000000E+00  1.00000000E+00  1.00000000E+00  1.00000000E+00  1.00000000E+00
  0.00000000E+00  0.00000000E+00  1.00000000E+00  0.00000000E+00  0.00000000E+00
  0.00000000E+00  0.00000000E+00  1.00000000E+00  0.00000000E+00  0.00000000E+00
  0.00000000E+00  0.00000000E+00  1.00000000E+00  0.00000000E+00  0.00000000E+00
  0.00000000E+00  0.00000000E+00  1.00000000E+00  0.00000000E+00  0.00000000E+00
  0.00000000E+00  0.00000000E+00  1.00000000E+00  0.00000000E+00  0.00000000E+00
  0.00000000E+00  0.00000000E+00  1.00000000E+00  0.00000000E+00  0.00000000E+00
  0.00000000E+00  0.00000000E+00  0.00000000E+00  1.00000000E+00  1.00000000E+00
  0.00000000E+00  1.00000000E+00  0.00000000E+00  0.00000000E+00  0.00000000E+00
  0.00000000E+00  0.00000000E+00  0.00000000E+00  0.00000000E+00  0.00000000E+00
  0.00000000E+00  0.00000000E+00
MxBond                                     I                2
NBond                                      I   N=          12
           2           2           2           2           1           1
           1           1           1           1           1           1
IBond                                      I   N=          24
           5           6           7           8           9          10
          11          12           1           0           1           0
           2           0           2           0           3           0
           3           0           4           0           4           0
RBond                                      R   N=          24
  1.00000000E+00  1.00000000E+00  1.00000000E+00  1.00000000E+00  1.00000000E+00
  1.00000000E+00  1.00000000E+00  1.00000000E+00  1.00000000E+00  0.00000000E+00
  1.00000000E+00  0.00000000E+00  1.00000000E+00  0.00000000E+00  1.00000000E+00
  0.00000000E+00  1.00000000E+00  0.00000000E+00  1.00000000E+00  0.00000000E+00
  1.00000000E+00  0.00000000E+00  1.00000000E+00  0.00000000E+00
Virial Ratio                               R      2.046176410458381E+00
SCF Energy                                 R     -3.176590781950067E+02
Total Energy                               R     -3.176590781950067E+02
RMS Density                                R      6.139680904224460E-09
Job Status                                 I                1
Nuclear derivative order                   I                0
External E-field                           R   N=          35
  0.00000000E+00  0.00000000E+00  0.00000000E+00  0.00000000E+00  0.00000000E+00
  0.00000000E+00  0.00000000E+00  0.00000000E+00  0.00000000E+00  0.00000000E+00
  0.00000000E+00  0.00000000E+00  0.00000000E+00  0.00000000E+00  0.00000000E+00
  0.00000000E+00  0.00000000E+00  0.00000000E+00  0.00000000E+00  0.00000000E+00
  0.00000000E+00  0.00000000E+00  0.00000000E+00  0.00000000E+00  0.00000000E+00
  0.00000000E+00  0.00000000E+00  0.00000000E+00  0.00000000E+00  0.00000000E+00
  0.00000000E+00  0.00000000E+00  0.00000000E+00  0.00000000E+00  0.00000000E+00
IOpCl                                      I                0
IROHF                                      I                0
Alpha Orbital Energies                     R   N=          96
 -2.05608856E+01 -2.05505828E+01 -2.05352831E+01 -2.05092735E+01 -1.34795731E+00
 -1.33471105E+00 -1.32104903E+00 -1.29496924E+00 -7.13397786E-01 -6.96897776E-01
 -6.89260420E-01 -6.60046801E-01 -5.90951037E-01 -5.71668155E-01 -5.52229520E-01
 -5.36610268E-01 -4.97021911E-01 -4.95539055E-01 -4.71027159E-01 -4.56403361E-01
  2.14788128E-01  2.47403513E-01  3.16527638E-01  3.40992641E-01  3.63603077E-01
  3.92571938E-01  4.25324943E-01  4.69652683E-01  9.79475709E-01  1.00988965E+00
  1.03869258E+00  1.05607605E+00  1.09743207E+00  1.10921703E+00  1.11991682E+00
  1.13557252E+00  1.15387581E+00  1.17364296E+00  1.19286657E+00  1.22869289E+00
  1.23625524E+00  1.28450494E+00  1.29241148E+00  1.31444543E+00  1.38832887E+00
  1.40138236E+00  1.41719906E+00  1.47280464E+00  1.61688686E+00  1.65941976E+00
  1.71189425E+00  1.76023354E+00  1.80174365E+00  1.81305661E+00  1.81460260E+00
  1.84498780E+00  1.86242358E+00  1.89635792E+00  1.91543001E+00  1.92537685E+00
  1.95970958E+00  1.97845105E+00  1.99421404E+00  2.05983531E+00  2.57036381E+00
  2.58873466E+00  2.60073964E+00  2.60418148E+00  2.61390382E+00  2.64920762E+00
  2.68004929E+00  2.68531945E+00  2.81307213E+00  2.82969642E+00  2.85650897E+00
  2.89179121E+00  2.97275347E+00  2.99414430E+00  3.00543226E+00  3.01371046E+00
  3.03428999E+00  3.04507484E+00  3.05322287E+00  3.09632105E+00  3.39095074E+00
  3.40486194E+00  3.41551175E+00  3.48942256E+00  3.77418336E+00  3.78813864E+00
  3.80198168E+00  3.84861777E+00  3.94185172E+00  3.98590680E+00  4.01742473E+00
  4.08979176E+00
Alpha MO coefficients                      R   N=        9216
 -4.57739513E-05 -1.54763584E-05  5.88099968E-06 -6.35579569E-06  5.45278901E-06
  2.18822719E-05 -2.74535107E-05  3.16645246E-05 -3.28869179E-05  6.79390770E-08
  2.56200558E-06 -2.35425738E-06 -2.15415556E-07 -3.51863618E-06  2.31004579E-05
  1.06580212E-04 -3.34455673E-05  7.51775182E-06 -3.48926562E-06 -4.70997171E-04
  1.18469996E-04  4.82121075E-05  3.56795172E-04 -6.35340987E-05  1.49275620E-06
 -5.59044734E-05  7.14544466E-06 -6.71111675E-06  3.34367884E-05  1.70967106E-04
  3.20704852E-05 -6.84834675E-06 -3.92841146E-05 -5.73458641E-04 -5.46807962E-05
  1.03016082E-04  3.90015209E-04 -2.99753644E-05 -8.10031091E-05 -2.99148299E-05
  2.46321799E-05 -1.44835441E-05  9.95696306E-01  2.21157118E-02  7.75046551E-04
 -3.19997928E-04 -1.72916878E-03 -5.96501088E-03 -3.62429432E-04 -1.79769644E-05
  4.32771566E-04  1.19248833E-04  1.37617589E-04 -1.28815710E-04  1.60109197E-04
 -3.79119953E-04  5.99910827E-06  1.33789825E-05  4.83275562E-06  1.00076050E-06
 -1.60642844E-07  3.13336273E-06  1.07312353E-05 -7.69389469E-07 -4.55166486E-06
  1.62911477E-06  1.43118419E-05  8.05696806E-04  6.63083803E-05  4.79345764E-05
  8.16456809E-05  1.17289516E-05 -2.20311988E-04 -1.42803969E-05 -2.26740454E-05
  9.36097287E-06  7.61923568E-05  8.86270933E-04 -1.26400759E-04 -2.73300503E-05
  8.35878342E-06 -7.19487311E-05 -1.59446223E-04 -2.85210937E-05 -5.83439533E-06
  1.03481038E-05 -6.04072418E-04  1.15389462E-03 -3.74085052E-04  2.91985353E-04
 -1.11607608E-03 -4.68163302E-04  9.01766206E-04  9.76892843E-04 -5.77150141E-04
 -2.40758947E-04  9.95698084E-01  2.20740343E-02  1.02616663E-03 -6.47425384E-04
  1.43516634E-03 -5.97778000E-03 -2.84479039E-04  1.09292960E-04 -4.17469234E-04
 -1.33045283E-04  5.94923207E-05 -2.33865338E-04  6.33173553E-05  3.59561539E-04
  1.98805935E-04  1.98696343E-04 -2.21657541E-05 -1.92219733E-05  2.83774653E-05
 -7.68138303E-04 -6.83802207E-06  3.84821202E-04 -4.07903495E-04 -5.25559868E-06
 -2.35941406E-05  9.48686550E-05  6.36894237E-05  2.65584392E-05 -5.58146062E-06
 -9.89013403E-06  1.19513624E-06 -8.88408720E-06  3.86034622E-06  7.19856812E-05
 -1.98860613E-05  1.87929043E-05 -1.34323417E-05  5.08288673E-06  4.63532020E-06
  4.15048543E-06 -3.64409433E-07 -1.06257120E-06  4.53437268E-05 -1.32599838E-05
  7.62904698E-06 -3.27753419E-06 -7.33001956E-06  1.76464468E-05 -4.85984089E-05
  2.43707642E-05  3.36920583E-05  6.49010384E-06 -4.50394206E-07 -3.36521887E-07
  3.02729778E-07  3.79014890E-06 -5.79364897E-04  1.13448740E-03 -2.45629120E-04
 -8.75304967E-04  7.32096397E-04 -5.60316331E-04  1.16005216E-03  1.04305960E-03
  3.53656503E-04  3.79414718E-04  5.43615260E-05 -2.94231904E-04 -1.59574857E-05
 -2.25559435E-05 -1.18814248E-05  6.49953902E-05  1.17738912E-03  4.55511279E-05
  1.07992611E-04 -4.04973163E-05 -8.66309770E-06 -8.88205650E-06 -3.68037361E-06
 -6.16184011E-06 -4.29063109E-06  1.30906730E-05 -1.22410222E-04  7.05950169E-07
  7.16950484E-06 -3.38686415E-06 -8.98883886E-06  1.03184327E-05  5.82916723E-06
 -2.60752310E-06 -4.31386317E-06  1.88074935E-05  1.98042717E-05 -5.30347441E-06
  3.70710542E-06 -8.74033049E-07 -1.86985394E-04  1.13858937E-04 -6.56454917E-05
  6.12260569E-05 -8.60184693E-05 -1.87105580E-05  3.70001549E-04 -3.03579632E-04
  4.61553912E-04 -1.04543807E-05 -8.07198561E-06  1.06709761E-05  1.26496131E-05
  5.07025775E-05  9.95716193E-01  2.23467439E-02  1.89109176E-05 -1.90313925E-03
 -4.78769826E-04 -6.98894954E-03 -3.03797175E-04  1.13081356E-03  1.29466093E-04
  3.18916227E-04  1.06014530E-04 -5.04302386E-05 -2.31459351E-04 -1.19079576E-05
  1.56715841E-04  2.56798322E-04 -7.81142395E-06  6.05970437E-06  5.09690036E-05
 -9.12638546E-04  4.42099563E-04 -2.31991244E-05 -4.50221561E-04  6.84979949E-05
  9.31650328E-05  2.16355677E-05 -9.43329757E-05 -1.02031203E-05 -1.27303401E-05
  6.64263621E-05 -5.08414649E-05 -7.99956209E-06  3.78373910E-05 -7.09686398E-05
  2.93340928E-04 -4.92730089E-05 -1.90779374E-04 -3.80659733E-05  5.11483132E-06
  7.92479922E-06  3.31327501E-06 -1.35404000E-05 -1.09293307E-04 -1.40771963E-04
 -6.34797151E-05 -2.93062755E-05 -2.79012300E-06 -6.19080299E-05 -2.85835730E-04
  5.30288862E-05  6.63449607E-05 -1.98638929E-05 -4.22932951E-04  1.37707146E-03
 -9.39554992E-05 -4.81848147E-04 -9.91231948E-04 -3.64612886E-04  1.83407990E-03
  1.53741552E-04 -8.79420251E-04  5.86940597E-04 -3.22449498E-05 -2.43808114E-04
 -2.73217600E-05 -1.37005688E-05 -2.39423899E-05  1.01789848E-04  1.28570633E-03
  1.58319724E-05 -1.12004984E-05 -1.26538461E-04  3.92597503E-05 -6.23473420E-05
 -3.85418369E-05  3.63184034E-06  2.13061596E-05 -8.83579623E-05 -8.33652807E-05
  2.66519265E-05 -2.68553146E-05  1.53259113E-05  2.24961830E-06 -1.38139853E-05
  1.19436340E-05  1.09841777E-05 -1.46763096E-05  1.08027578E-04 -7.40248861E-05
 -8.50182218E-05  7.34627572E-05  1.00396331E-05 -3.72594335E-06 -2.56975612E-05
 -2.33128595E-05 -1.25326801E-05 -1.34177263E-04  2.02509330E-04  1.15221761E-04
  3.65327454E-05  4.01772811E-06 -3.60122315E-04 -5.22715296E-04 -1.23909202E-04
 -4.06805397E-05  5.00464653E-05  8.81312818E-06  3.64874000E-05 -7.34850693E-05
  5.93615242E-06  9.95721947E-01  2.24147265E-02 -1.69883140E-03 -5.26041767E-04
 -6.04847968E-04 -7.55039625E-03  1.20378962E-03  3.47385639E-04  4.90770118E-04
  2.21602410E-04 -1.44067367E-04  1.23441142E-04  1.61660030E-04  3.38884958E-05
 -1.67902678E-05  1.62108095E-04  6.62835128E-05  7.02030433E-05  4.17514918E-05
 -3.04876255E-04 -3.33275107E-04 -2.94373997E-04 -2.68399336E-04  2.59714234E-05
 -4.05168163E-05 -4.04602718E-05 -3.71635886E-05 -3.55376633E-05 -7.58479417E-05
 -3.28030829E-05  4.55732204E-08 -2.12774531E-05  1.74393881E-05  7.44067511E-05
 -1.08524937E-04  1.23656135E-06  3.46393523E-06 -7.73827250E-06 -8.40050270E-07
 -9.91110741E-05  4.14094404E-05 -4.71837842E-06 -3.27666023E-05  1.37387342E-04
 -2.21982718E-04  4.79730236E-05  6.00882265E-06  1.64652162E-05 -4.26236604E-04
  2.29017202E-03 -3.79793992E-04 -3.17670913E-04 -8.86307928E-04 -4.51655538E-04
  2.10445240E-03 -9.21717084E-04 -5.71027052E-05  4.26510153E-04 -1.98934669E-05
 -1.50881579E-05  4.01319426E-05  3.27072575E-05 -4.20941290E-06  1.70793793E-04
 -4.62795320E-04 -2.30951947E-06 -8.92043265E-06 -3.16129005E-05 -8.57344136E-03
  1.88356038E-02  1.49717711E-03 -7.59853349E-04  1.99545738E-03  1.80061669E-02
  4.45806538E-04  1.01386459E-04  3.25760843E-04  1.51002505E-05  1.17064576E-04
 -1.33685490E-04 -1.06735613E-05 -4.14020594E-05 -3.07958493E-02  6.69356534E-02
  1.02337352E-03 -1.14611585E-02 -4.77250750E-03  6.57253470E-02  1.73628267E-03
 -4.27257897E-03 -2.53908944E-03  4.91968292E-04 -1.09022072E-04  4.24204338E-04
 -2.13355799E-04 -1.60347362E-04 -3.05489698E-02  6.62458395E-02 -1.20438341E-02
 -4.68289775E-03 -7.22686180E-03  6.35331244E-02 -4.53786431E-03 -2.59060645E-03
 -2.48612455E-03  1.91235604E-04  6.87689301E-04  4.33463268E-04  5.61108061E-04
  4.40050357E-04 -2.07763260E-01  4.58121308E-01  3.25580082E-02 -1.40467639E-02
 -6.78226386E-02  4.38505439E-01  1.30483286E-02 -3.14170342E-03 -2.19966346E-02
  2.23678105E-03 -2.16055554E-04  6.80736455E-04  2.60269835E-03 -1.79387712E-03
  5.51273870E-03  3.10688366E-04  2.88961845E-04  8.14656956E-04 -5.94635567E-04
  5.42084420E-03  6.38763664E-04 -9.91036265E-04 -4.08716093E-04 -2.74723169E-04
  2.33991913E-02  7.77185397E-04  6.72344423E-04  9.48464221E-04  2.91725492E-03
  1.98884693E-02  1.76858627E-03 -4.45703931E-04  2.97349574E-03 -2.44473145E-03
  2.76940025E-02  3.22300091E-03  6.64810692E-04  5.86621682E-04  3.21549166E-03
  2.06921386E-02  3.85422320E-04  2.96963336E-03 -1.07885038E-04 -2.29152692E-03
  1.41181908E-01  1.27286803E-02  1.01791376E-02 -7.11701847E-03  2.22743404E-02
  1.33957800E-01  1.36275134E-03 -2.25742721E-02  1.36788152E-02  2.33230836E-03
 -2.04559981E-01  4.50289168E-01  4.18477655E-02 -2.61157260E-02  5.68990390E-02
  4.34125578E-01  1.52847055E-02 -5.82703223E-03  1.87947660E-02  3.13905578E-04
  2.29200015E-03 -2.43831146E-03  2.41608672E-06 -2.15352836E-04 -5.58786014E-02
  1.22469184E-01  8.40210046E-04 -2.18876579E-02 -3.08342042E-03  1.18202536E-01
  1.16322798E-03 -9.16777228E-03  1.92196156E-03  2.12406467E-04  3.98262739E-04
 -5.28179934E-04 -9.63697045E-04 -4.05150738E-04 -6.24416489E-03  1.38912346E-02
 -2.88779686E-03 -5.98420173E-04  1.74444796E-04  1.14482588E-02 -3.66830662E-04
 -7.18839460E-04 -8.07050749E-05 -1.01421615E-04 -2.91878815E-06 -2.25544214E-05
  1.16247505E-04  5.64113144E-05  1.82599127E-02 -4.04861197E-02 -3.16862378E-03
  1.54892643E-03  7.04262928E-03 -3.83629098E-02 -1.60961365E-03  6.22723247E-04
  2.86157447E-03 -1.06272498E-04 -6.06720595E-05 -1.34019553E-07 -1.95452825E-04
  1.60493527E-04  1.34698291E-01  7.12277988E-03  7.19046885E-03  1.96642903E-02
 -1.44253269E-02  1.34228942E-01  5.16184184E-03 -2.32795379E-02 -9.60828001E-03
 -6.58262047E-03  3.61640026E-02  2.35127692E-03  8.24405822E-04  2.18775658E-03
  6.54013638E-03  4.16211915E-02  1.29908278E-03 -6.15619080E-04  4.87277766E-03
 -3.96168394E-03  3.42254266E-03 -4.38158837E-04  1.14856568E-04  2.93708442E-04
  7.64873113E-04  5.77080140E-03  3.84009207E-03  8.54703035E-04 -9.46866145E-05
 -4.65081647E-04 -1.28736542E-02 -1.12237413E-03 -9.17514168E-04  6.47972527E-04
 -2.01662229E-03 -1.20476556E-02  2.03654011E-04  2.02746385E-03 -1.19639419E-03
 -1.62037599E-04  5.97284631E-02 -1.32494114E-01 -1.42210158E-02  1.00858010E-02
 -1.94942645E-02 -1.25961310E-01 -7.40446322E-03  5.12984837E-03 -9.40265367E-03
 -2.05098625E-05 -4.06765913E-04  2.47296434E-04 -2.05799562E-04 -3.32368183E-04
 -1.99199209E-01  4.38398193E-01  9.20224127E-05 -7.26497318E-02 -1.84961111E-02
  4.23806188E-01  2.82997845E-03 -2.70876723E-02 -2.17731086E-03  1.06434753E-03
  7.00786227E-04  2.95561451E-04 -2.31411065E-03 -4.75546481E-04 -3.25307135E-02
  7.08614646E-02 -1.35135661E-02 -3.30188474E-03 -1.88967690E-03  6.86292143E-02
 -5.15763498E-03 -1.57787604E-03 -5.02336591E-04 -2.04250647E-04 -2.66497702E-05