#INFO: **** input file is /home/liwei01/wsr/dftpart/test_2body/w32/gfea_c8.py ****
from dftpart import gfea3
from pyscf import lib

par = 8
with lib.with_omp_threads(par):
    fr0 = gfea3.GFEA()
    fr0.inputstyle = 'frg'
    fr0.method = ['hf', '6-31gss','charge']
    fr0.gjfname = 'w32'
    fr0.output = 'w32'
    fr0.verbose = 9
    fr0.showinter = True
    #fr0.do_deriv = True
    fr0.kernel()

#INFO: ******************** input file end ********************


System: uname_result(system='Linux', node='master', release='3.10.0-693.el7.x86_64', version='#1 SMP Tue Aug 22 21:09:27 UTC 2017', machine='x86_64', processor='x86_64')  Threads 8
Python 3.7.6 (default, Jan  8 2020, 19:59:22) 
[GCC 7.3.0]
numpy 1.18.1  scipy 1.4.1
Date: Tue Jun 16 20:52:50 2020
PySCF version 1.6.1
PySCF path  /home/liwei01/zcheng/pyscf/pyscf
GIT HEAD      ref: refs/heads/master
GIT master branch  3adc7fd25839fe674469a52b764c3661e32d7318

[CONFIG] DEBUG = False
[CONFIG] MAX_MEMORY = 4000
[CONFIG] TMPDIR = .
[CONFIG] UNIT = angstrom
[CONFIG] VERBOSE = 3
[CONFIG] conf_file = None
[INPUT] verbose = 9
[INPUT] max_memory = 4000 
[INPUT] num. atoms = 30
[INPUT] num. electrons = 100
[INPUT] charge = 0
[INPUT] spin (= nelec alpha-beta = 2S) = 0
[INPUT] symmetry False subgroup None
[INPUT] Mole.unit = angstrom
[INPUT]  1 O      8.392325000000 -11.812941000000 -11.200483000000 AA   15.859195798340 -22.323223215646 -21.165845332847 Bohr
[INPUT]  2 O     10.706017000000 -10.848862000000 -10.091512000000 AA   20.231440014938 -20.501377943201 -19.070193862762 Bohr
[INPUT]  3 O      8.693246000000 -14.069272000000  -9.547113000000 AA   16.427854073471 -26.587070852012 -18.041428850275 Bohr
[INPUT]  4 O      7.250284000000  -9.859627000000 -13.103456000000 AA   13.701051085316 -18.631994720367 -24.761943125289 Bohr
[INPUT]  5 O      5.570392000000 -12.760041000000 -10.733807000000 AA   10.526515286468 -24.112982828221 -20.283955503939 Bohr
[INPUT]  6 O      6.966193000000  -9.247795000000 -10.274305000000 AA   13.164196900862 -17.475799806122 -19.415622570249 Bohr
[INPUT]  7 O      6.942642000000 -11.829381000000  -8.371044000000 AA   13.119691960903 -22.354290313134 -15.818980536684 Bohr
[INPUT]  8 O      9.739714000000 -14.560219000000 -13.084136000000 AA   18.405391991592 -27.514826223689 -24.725433616562 Bohr
[INPUT]  9 O     10.084912000000  -9.602997000000 -13.694410000000 AA   19.057721670340 -18.147034305020 -25.878684337505 Bohr
[INPUT] 10 O      9.473772000000  -7.997188000000 -10.918041000000 AA   17.902834446573 -15.112495086658 -20.632107306772 Bohr
[INPUT] 11 H      8.175276000000 -12.537815000000 -10.614239000000 AA   15.449032632730 -23.693036550464 -20.058004730677 Bohr
[INPUT] 12 H      9.252154000000 -11.514100000000 -10.904475000000 AA   17.484037122299 -21.758495570855 -20.606471282167 Bohr
[INPUT] 13 H     11.521407000000 -11.320280000000  -9.920812000000 AA   21.772303799647 -21.392228853391 -18.747617613299 Bohr
[INPUT] 14 H     10.567797000000 -10.316883000000  -9.307849000000 AA   19.970242070000 -19.496083329181 -17.589285418807 Bohr
[INPUT] 15 H      8.220090000000 -13.732742000000  -8.786125000000 AA   15.533718819276 -25.951121319312 -16.603369946194 Bohr
[INPUT] 16 H      8.552802000000 -15.015659000000  -9.517782000000 AA   16.162453377632 -28.375483089860 -17.986001293315 Bohr
[INPUT] 17 H      7.120660000000 -10.221473000000 -13.980096000000 AA   13.456097226145 -19.315784559636 -26.418552635128 Bohr
[INPUT] 18 H      7.341484000000 -10.626744000000 -12.538261000000 AA   13.873394107876 -20.081635755865 -23.693879368315 Bohr
[INPUT] 19 H      4.642708000000 -12.827827000000 -10.507888000000 AA    8.773446596327 -24.241079803301 -19.857030467604 Bohr
[INPUT] 20 H      5.983752000000 -12.405170000000  -9.946767000000 AA   11.307652477318 -23.442373828671 -18.796665454862 Bohr
[INPUT] 21 H      6.975152000000  -9.845016000000 -11.022289000000 AA   13.181126957212 -18.604383931961 -20.829107475806 Bohr
[INPUT] 22 H      7.684375000000  -8.638472000000 -10.445098000000 AA   14.521364188455 -16.324346214724 -19.738374564242 Bohr
[INPUT] 23 H      7.495574000000 -12.091052000000  -7.634819000000 AA   14.164582006411 -22.848776837875 -14.427716920626 Bohr
[INPUT] 24 H      7.307461000000 -10.992840000000  -8.659728000000 AA   13.809099955940 -20.773456931164 -16.364514233228 Bohr
[INPUT] 25 H      9.436683000000 -13.920876000000 -12.439430000000 AA   17.832746394339 -26.306643054031 -23.507115845698 Bohr
[INPUT] 26 H     10.652707000000 -14.322974000000 -13.246584000000 AA   20.130698715237 -27.066498149266 -25.032415846046 Bohr
[INPUT] 27 H      9.837963000000  -9.877914000000 -14.577398000000 AA   18.591055693604 -18.666552142007 -27.547289828782 Bohr
[INPUT] 28 H      9.267108000000  -9.628370000000 -13.197635000000 AA   17.512296086766 -18.194982325979 -24.939915641974 Bohr
[INPUT] 29 H      9.997520000000  -8.795627000000 -10.851588000000 AA   18.892574724862 -16.621326123830 -20.506529336617 Bohr
[INPUT] 30 H      9.623390000000  -7.542356000000 -10.089201000000 AA   18.185571489878 -14.252987173970 -19.065826705688 Bohr
[INPUT] ---------------- BASIS SET ---------------- 
[INPUT] l, kappa, [nprim/nctr], expnt,             c_1 c_2 ...
[INPUT] H
[INPUT] 0    0    [3    /1   ]  18.731137         0.0334946
                                2.8253937         0.23472695
                                0.6401217         0.81375733
[INPUT] 0    0    [1    /1   ]  0.1612778            1
[INPUT] 1    0    [1    /1   ]  1.1                  1
[INPUT] O
[INPUT] 0    0    [6    /1   ]  5484.6717         0.0018311
                                825.23495         0.0139501
                                188.04696         0.0684451
                                52.9645           0.2327143
                                16.89757          0.470193
                                5.7996353         0.3585209
[INPUT] 0    0    [3    /1   ]  15.539616         -0.1107775
                                3.5999336         -0.1480263
                                1.0137618         1.130767
[INPUT] 0    0    [1    /1   ]  0.2700058            1
[INPUT] 1    0    [3    /1   ]  15.539616         0.0708743
                                3.5999336         0.3397528
                                1.0137618         0.7271586
[INPUT] 1    0    [1    /1   ]  0.2700058            1
[INPUT] 2    0    [1    /1   ]  0.8                  1

nuclear repulsion = 684.833008964387
number of shells = 120
number of NR pGTOs = 410
number of NR cGTOs = 240
basis = 6-31gss
ecp = {}
bas 0, expnt(s) = [5484.6717     825.23495    188.04696     52.9645      16.89757
    5.7996353]
bas 1, expnt(s) = [15.539616   3.5999336  1.0137618]
bas 2, expnt(s) = [0.2700058]
bas 3, expnt(s) = [15.539616   3.5999336  1.0137618]
bas 4, expnt(s) = [0.2700058]
bas 5, expnt(s) = [0.8]
bas 6, expnt(s) = [5484.6717     825.23495    188.04696     52.9645      16.89757
    5.7996353]
bas 7, expnt(s) = [15.539616   3.5999336  1.0137618]
bas 8, expnt(s) = [0.2700058]
bas 9, expnt(s) = [15.539616   3.5999336  1.0137618]
bas 10, expnt(s) = [0.2700058]
bas 11, expnt(s) = [0.8]
bas 12, expnt(s) = [5484.6717     825.23495    188.04696     52.9645      16.89757
    5.7996353]
bas 13, expnt(s) = [15.539616   3.5999336  1.0137618]
bas 14, expnt(s) = [0.2700058]
bas 15, expnt(s) = [15.539616   3.5999336  1.0137618]
bas 16, expnt(s) = [0.2700058]
bas 17, expnt(s) = [0.8]
bas 18, expnt(s) = [5484.6717     825.23495    188.04696     52.9645      16.89757
    5.7996353]
bas 19, expnt(s) = [15.539616   3.5999336  1.0137618]
bas 20, expnt(s) = [0.2700058]
bas 21, expnt(s) = [15.539616   3.5999336  1.0137618]
bas 22, expnt(s) = [0.2700058]
bas 23, expnt(s) = [0.8]
bas 24, expnt(s) = [5484.6717     825.23495    188.04696     52.9645      16.89757
    5.7996353]
bas 25, expnt(s) = [15.539616   3.5999336  1.0137618]
bas 26, expnt(s) = [0.2700058]
bas 27, expnt(s) = [15.539616   3.5999336  1.0137618]
bas 28, expnt(s) = [0.2700058]
bas 29, expnt(s) = [0.8]
bas 30, expnt(s) = [5484.6717     825.23495    188.04696     52.9645      16.89757
    5.7996353]
bas 31, expnt(s) = [15.539616   3.5999336  1.0137618]
bas 32, expnt(s) = [0.2700058]
bas 33, expnt(s) = [15.539616   3.5999336  1.0137618]
bas 34, expnt(s) = [0.2700058]
bas 35, expnt(s) = [0.8]
bas 36, expnt(s) = [5484.6717     825.23495    188.04696     52.9645      16.89757
    5.7996353]
bas 37, expnt(s) = [15.539616   3.5999336  1.0137618]
bas 38, expnt(s) = [0.2700058]
bas 39, expnt(s) = [15.539616   3.5999336  1.0137618]
bas 40, expnt(s) = [0.2700058]
bas 41, expnt(s) = [0.8]
bas 42, expnt(s) = [5484.6717     825.23495    188.04696     52.9645      16.89757
    5.7996353]
bas 43, expnt(s) = [15.539616   3.5999336  1.0137618]
bas 44, expnt(s) = [0.2700058]
bas 45, expnt(s) = [15.539616   3.5999336  1.0137618]
bas 46, expnt(s) = [0.2700058]
bas 47, expnt(s) = [0.8]
bas 48, expnt(s) = [5484.6717     825.23495    188.04696     52.9645      16.89757
    5.7996353]
bas 49, expnt(s) = [15.539616   3.5999336  1.0137618]
bas 50, expnt(s) = [0.2700058]
bas 51, expnt(s) = [15.539616   3.5999336  1.0137618]
bas 52, expnt(s) = [0.2700058]
bas 53, expnt(s) = [0.8]
bas 54, expnt(s) = [5484.6717     825.23495    188.04696     52.9645      16.89757
    5.7996353]
bas 55, expnt(s) = [15.539616   3.5999336  1.0137618]
bas 56, expnt(s) = [0.2700058]
bas 57, expnt(s) = [15.539616   3.5999336  1.0137618]
bas 58, expnt(s) = [0.2700058]
bas 59, expnt(s) = [0.8]
bas 60, expnt(s) = [18.731137   2.8253937  0.6401217]
bas 61, expnt(s) = [0.1612778]
bas 62, expnt(s) = [1.1]
bas 63, expnt(s) = [18.731137   2.8253937  0.6401217]
bas 64, expnt(s) = [0.1612778]
bas 65, expnt(s) = [1.1]
bas 66, expnt(s) = [18.731137   2.8253937  0.6401217]
bas 67, expnt(s) = [0.1612778]
bas 68, expnt(s) = [1.1]
bas 69, expnt(s) = [18.731137   2.8253937  0.6401217]
bas 70, expnt(s) = [0.1612778]
bas 71, expnt(s) = [1.1]
bas 72, expnt(s) = [18.731137   2.8253937  0.6401217]
bas 73, expnt(s) = [0.1612778]
bas 74, expnt(s) = [1.1]
bas 75, expnt(s) = [18.731137   2.8253937  0.6401217]
bas 76, expnt(s) = [0.1612778]
bas 77, expnt(s) = [1.1]
bas 78, expnt(s) = [18.731137   2.8253937  0.6401217]
bas 79, expnt(s) = [0.1612778]
bas 80, expnt(s) = [1.1]
bas 81, expnt(s) = [18.731137   2.8253937  0.6401217]
bas 82, expnt(s) = [0.1612778]
bas 83, expnt(s) = [1.1]
bas 84, expnt(s) = [18.731137   2.8253937  0.6401217]
bas 85, expnt(s) = [0.1612778]
bas 86, expnt(s) = [1.1]
bas 87, expnt(s) = [18.731137   2.8253937  0.6401217]
bas 88, expnt(s) = [0.1612778]
bas 89, expnt(s) = [1.1]
bas 90, expnt(s) = [18.731137   2.8253937  0.6401217]
bas 91, expnt(s) = [0.1612778]
bas 92, expnt(s) = [1.1]
bas 93, expnt(s) = [18.731137   2.8253937  0.6401217]
bas 94, expnt(s) = [0.1612778]
bas 95, expnt(s) = [1.1]
bas 96, expnt(s) = [18.731137   2.8253937  0.6401217]
bas 97, expnt(s) = [0.1612778]
bas 98, expnt(s) = [1.1]
bas 99, expnt(s) = [18.731137   2.8253937  0.6401217]
bas 100, expnt(s) = [0.1612778]
bas 101, expnt(s) = [1.1]
bas 102, expnt(s) = [18.731137   2.8253937  0.6401217]
bas 103, expnt(s) = [0.1612778]
bas 104, expnt(s) = [1.1]
bas 105, expnt(s) = [18.731137   2.8253937  0.6401217]
bas 106, expnt(s) = [0.1612778]
bas 107, expnt(s) = [1.1]
bas 108, expnt(s) = [18.731137   2.8253937  0.6401217]
bas 109, expnt(s) = [0.1612778]
bas 110, expnt(s) = [1.1]
bas 111, expnt(s) = [18.731137   2.8253937  0.6401217]
bas 112, expnt(s) = [0.1612778]
bas 113, expnt(s) = [1.1]
bas 114, expnt(s) = [18.731137   2.8253937  0.6401217]
bas 115, expnt(s) = [0.1612778]
bas 116, expnt(s) = [1.1]
bas 117, expnt(s) = [18.731137   2.8253937  0.6401217]
bas 118, expnt(s) = [0.1612778]
bas 119, expnt(s) = [1.1]
CPU time:         1.24
arg.atm = [[  8  20   1  23   0   0]
 [  8  24   1  27   0   0]
 [  8  28   1  31   0   0]
 [  8  32   1  35   0   0]
 [  8  36   1  39   0   0]
 [  8  40   1  43   0   0]
 [  8  44   1  47   0   0]
 [  8  48   1  51   0   0]
 [  8  52   1  55   0   0]
 [  8  56   1  59   0   0]
 [  1  60   1  63   0   0]
 [  1  64   1  67   0   0]
 [  1  68   1  71   0   0]
 [  1  72   1  75   0   0]
 [  1  76   1  79   0   0]
 [  1  80   1  83   0   0]
 [  1  84   1  87   0   0]
 [  1  88   1  91   0   0]
 [  1  92   1  95   0   0]
 [  1  96   1  99   0   0]
 [  1 100   1 103   0   0]
 [  1 104   1 107   0   0]
 [  1 108   1 111   0   0]
 [  1 112   1 115   0   0]
 [  1 116   1 119   0   0]
 [  1 120   1 123   0   0]
 [  1 124   1 127   0   0]
 [  1 128   1 131   0   0]
 [  1 132   1 135   0   0]
 [  1 136   1 139   0   0]]
arg.bas = [[  0   0   6   1   0 150 156   0]
 [  0   0   3   1   0 162 165   0]
 [  0   0   1   1   0 168 169   0]
 [  0   1   3   1   0 170 173   0]
 [  0   1   1   1   0 176 177   0]
 [  0   2   1   1   0 178 179   0]
 [  1   0   6   1   0 150 156   0]
 [  1   0   3   1   0 162 165   0]
 [  1   0   1   1   0 168 169   0]
 [  1   1   3   1   0 170 173   0]
 [  1   1   1   1   0 176 177   0]
 [  1   2   1   1   0 178 179   0]
 [  2   0   6   1   0 150 156   0]
 [  2   0   3   1   0 162 165   0]
 [  2   0   1   1   0 168 169   0]
 [  2   1   3   1   0 170 173   0]
 [  2   1   1   1   0 176 177   0]
 [  2   2   1   1   0 178 179   0]
 [  3   0   6   1   0 150 156   0]
 [  3   0   3   1   0 162 165   0]
 [  3   0   1   1   0 168 169   0]
 [  3   1   3   1   0 170 173   0]
 [  3   1   1   1   0 176 177   0]
 [  3   2   1   1   0 178 179   0]
 [  4   0   6   1   0 150 156   0]
 [  4   0   3   1   0 162 165   0]
 [  4   0   1   1   0 168 169   0]
 [  4   1   3   1   0 170 173   0]
 [  4   1   1   1   0 176 177   0]
 [  4   2   1   1   0 178 179   0]
 [  5   0   6   1   0 150 156   0]
 [  5   0   3   1   0 162 165   0]
 [  5   0   1   1   0 168 169   0]
 [  5   1   3   1   0 170 173   0]
 [  5   1   1   1   0 176 177   0]
 [  5   2   1   1   0 178 179   0]
 [  6   0   6   1   0 150 156   0]
 [  6   0   3   1   0 162 165   0]
 [  6   0   1   1   0 168 169   0]
 [  6   1   3   1   0 170 173   0]
 [  6   1   1   1   0 176 177   0]
 [  6   2   1   1   0 178 179   0]
 [  7   0   6   1   0 150 156   0]
 [  7   0   3   1   0 162 165   0]
 [  7   0   1   1   0 168 169   0]
 [  7   1   3   1   0 170 173   0]
 [  7   1   1   1   0 176 177   0]
 [  7   2   1   1   0 178 179   0]
 [  8   0   6   1   0 150 156   0]
 [  8   0   3   1   0 162 165   0]
 [  8   0   1   1   0 168 169   0]
 [  8   1   3   1   0 170 173   0]
 [  8   1   1   1   0 176 177   0]
 [  8   2   1   1   0 178 179   0]
 [  9   0   6   1   0 150 156   0]
 [  9   0   3   1   0 162 165   0]
 [  9   0   1   1   0 168 169   0]
 [  9   1   3   1   0 170 173   0]
 [  9   1   1   1   0 176 177   0]
 [  9   2   1   1   0 178 179   0]
 [ 10   0   3   1   0 140 143   0]
 [ 10   0   1   1   0 146 147   0]
 [ 10   1   1   1   0 148 149   0]
 [ 11   0   3   1   0 140 143   0]
 [ 11   0   1   1   0 146 147   0]
 [ 11   1   1   1   0 148 149   0]
 [ 12   0   3   1   0 140 143   0]
 [ 12   0   1   1   0 146 147   0]
 [ 12   1   1   1   0 148 149   0]
 [ 13   0   3   1   0 140 143   0]
 [ 13   0   1   1   0 146 147   0]
 [ 13   1   1   1   0 148 149   0]
 [ 14   0   3   1   0 140 143   0]
 [ 14   0   1   1   0 146 147   0]
 [ 14   1   1   1   0 148 149   0]
 [ 15   0   3   1   0 140 143   0]
 [ 15   0   1   1   0 146 147   0]
 [ 15   1   1   1   0 148 149   0]
 [ 16   0   3   1   0 140 143   0]
 [ 16   0   1   1   0 146 147   0]
 [ 16   1   1   1   0 148 149   0]
 [ 17   0   3   1   0 140 143   0]
 [ 17   0   1   1   0 146 147   0]
 [ 17   1   1   1   0 148 149   0]
 [ 18   0   3   1   0 140 143   0]
 [ 18   0   1   1   0 146 147   0]
 [ 18   1   1   1   0 148 149   0]
 [ 19   0   3   1   0 140 143   0]
 [ 19   0   1   1   0 146 147   0]
 [ 19   1   1   1   0 148 149   0]
 [ 20   0   3   1   0 140 143   0]
 [ 20   0   1   1   0 146 147   0]
 [ 20   1   1   1   0 148 149   0]
 [ 21   0   3   1   0 140 143   0]
 [ 21   0   1   1   0 146 147   0]
 [ 21   1   1   1   0 148 149   0]
 [ 22   0   3   1   0 140 143   0]
 [ 22   0   1   1   0 146 147   0]
 [ 22   1   1   1   0 148 149   0]
 [ 23   0   3   1   0 140 143   0]
 [ 23   0   1   1   0 146 147   0]
 [ 23   1   1   1   0 148 149   0]
 [ 24   0   3   1   0 140 143   0]
 [ 24   0   1   1   0 146 147   0]
 [ 24   1   1   1   0 148 149   0]
 [ 25   0   3   1   0 140 143   0]
 [ 25   0   1   1   0 146 147   0]
 [ 25   1   1   1   0 148 149   0]
 [ 26   0   3   1   0 140 143   0]
 [ 26   0   1   1   0 146 147   0]
 [ 26   1   1   1   0 148 149   0]
 [ 27   0   3   1   0 140 143   0]
 [ 27   0   1   1   0 146 147   0]
 [ 27   1   1   1   0 148 149   0]
 [ 28   0   3   1   0 140 143   0]
 [ 28   0   1   1   0 146 147   0]
 [ 28   1   1   1   0 148 149   0]
 [ 29   0   3   1   0 140 143   0]
 [ 29   0   1   1   0 146 147   0]
 [ 29   1   1   1   0 148 149   0]]
arg.env = [ 1.37036000e+02  0.00000000e+00  0.00000000e+00  0.00000000e+00
  0.00000000e+00  0.00000000e+00  0.00000000e+00  0.00000000e+00
  0.00000000e+00  0.00000000e+00  0.00000000e+00  0.00000000e+00
  0.00000000e+00  0.00000000e+00  0.00000000e+00  0.00000000e+00
  0.00000000e+00  0.00000000e+00  0.00000000e+00  0.00000000e+00
  1.58591958e+01 -2.23232232e+01 -2.11658453e+01  0.00000000e+00
  2.02314400e+01 -2.05013779e+01 -1.90701939e+01  0.00000000e+00
  1.64278541e+01 -2.65870709e+01 -1.80414289e+01  0.00000000e+00
  1.37010511e+01 -1.86319947e+01 -2.47619431e+01  0.00000000e+00
  1.05265153e+01 -2.41129828e+01 -2.02839555e+01  0.00000000e+00
  1.31641969e+01 -1.74757998e+01 -1.94156226e+01  0.00000000e+00
  1.31196920e+01 -2.23542903e+01 -1.58189805e+01  0.00000000e+00
  1.84053920e+01 -2.75148262e+01 -2.47254336e+01  0.00000000e+00
  1.90577217e+01 -1.81470343e+01 -2.58786843e+01  0.00000000e+00
  1.79028344e+01 -1.51124951e+01 -2.06321073e+01  0.00000000e+00
  1.54490326e+01 -2.36930366e+01 -2.00580047e+01  0.00000000e+00
  1.74840371e+01 -2.17584956e+01 -2.06064713e+01  0.00000000e+00
  2.17723038e+01 -2.13922289e+01 -1.87476176e+01  0.00000000e+00
  1.99702421e+01 -1.94960833e+01 -1.75892854e+01  0.00000000e+00
  1.55337188e+01 -2.59511213e+01 -1.66033699e+01  0.00000000e+00
  1.61624534e+01 -2.83754831e+01 -1.79860013e+01  0.00000000e+00
  1.34560972e+01 -1.93157846e+01 -2.64185526e+01  0.00000000e+00
  1.38733941e+01 -2.00816358e+01 -2.36938794e+01  0.00000000e+00
  8.77344660e+00 -2.42410798e+01 -1.98570305e+01  0.00000000e+00
  1.13076525e+01 -2.34423738e+01 -1.87966655e+01  0.00000000e+00
  1.31811270e+01 -1.86043839e+01 -2.08291075e+01  0.00000000e+00
  1.45213642e+01 -1.63243462e+01 -1.97383746e+01  0.00000000e+00
  1.41645820e+01 -2.28487768e+01 -1.44277169e+01  0.00000000e+00
  1.38091000e+01 -2.07734569e+01 -1.63645142e+01  0.00000000e+00
  1.78327464e+01 -2.63066431e+01 -2.35071158e+01  0.00000000e+00
  2.01306987e+01 -2.70664981e+01 -2.50324158e+01  0.00000000e+00
  1.85910557e+01 -1.86665521e+01 -2.75472898e+01  0.00000000e+00
  1.75122961e+01 -1.81949823e+01 -2.49399156e+01  0.00000000e+00
  1.88925747e+01 -1.66213261e+01 -2.05065293e+01  0.00000000e+00
  1.81855715e+01 -1.42529872e+01 -1.90658267e+01  0.00000000e+00
  1.87311370e+01  2.82539370e+00  6.40121700e-01  7.61926220e-01
  1.29237100e+00  1.47131900e+00  1.61277800e-01  6.42977783e-01
  1.10000000e+00  3.28643653e+00  5.48467170e+03  8.25234950e+02
  1.88046960e+02  5.29645000e+01  1.68975700e+01  5.79963530e+00
  2.94842455e+00  5.42657124e+00  8.78126489e+00  1.15432129e+01
  9.90055015e+00  3.38516599e+00  1.55396160e+01  3.59993360e+00
  1.01376180e+00 -2.19051792e+00 -9.77405528e-01  2.88629094e+00
  2.70005800e-01  9.46334873e-01  1.55396160e+01  3.59993360e+00
  1.01376180e+00  6.37930734e+00  4.91490975e+00  2.15791055e+00
  2.70005800e-01  5.67807022e-01  8.00000000e-01  1.76578110e+00]
ecpbas  = []


******** <class 'pyscf.qmmm.itrf.mm_charge.<locals>.QMMM'> ********
method = QMMM-RHF
initial guess = minao
damping factor = 0
level shift factor = 0
DIIS = <class 'pyscf.scf.diis.CDIIS'>
DIIS start cycle = 1
DIIS space = 8
SCF tol = 1e-09
SCF gradient tol = None
max. SCF cycles = 50
direct_scf = True
direct_scf_tol = 1e-13
chkfile to save SCF result = /home/liwei01/wsr/dftpart/test_2body/w32/tmp_h_ooxww
max_memory 4000 MB (current use 74 MB)
** Add background charges for <class 'pyscf.scf.hf.RHF'> **
Charge      Location
-1.032188    [ 15.97118286 -20.09833149 -29.6421136 ]
0.47982    [ 15.3540909  -19.66610766 -31.28659296]
0.534069    [ 17.50300052 -21.00734455 -29.95701189]
-0.992133    [  7.63287216 -21.21078113 -24.19682809]
0.480184    [  8.55071592 -22.76668147 -24.10379498]
0.504586    [  8.37549106 -20.32880248 -25.59058803]
-1.012936    [ 10.55365553 -29.46492154 -21.67488842]
0.504954    [  8.84108934 -29.00412127 -22.03084479]
0.525721    [ 11.34418277 -27.91794449 -21.17105153]
-0.985176    [ 16.63195772 -23.48150439 -12.27810621]
0.500614    [ 17.11266814 -22.20236011 -11.09293235]
0.508291    [ 16.89319913 -25.03868407 -11.39557387]
-0.979947    [ 19.94097588 -17.12125506 -14.67509908]
0.500341    [ 18.95312155 -17.86288753 -13.35371942]
0.493696    [ 19.00620207 -15.6543646  -15.17143564]
-0.982261    [ 16.04742575 -26.75780005 -29.6895325 ]
0.479882    [ 16.71262824 -28.42851069 -29.88488293]
0.495008    [ 16.8532352  -26.12000803 -28.20097066]
-0.983713    [ 20.17321188 -22.53529584 -29.89394228]
0.505479    [ 21.06170253 -23.16751127 -28.4507471 ]
0.512532    [ 20.35114661 -23.83370776 -31.14069287]
-1.011239    [ 14.66303696 -31.18986921 -25.03135193]
0.492592    [ 13.80996545 -30.6346091  -23.53606456]
0.497341    [ 16.13314373 -30.14067248 -25.13086491]
-0.999332    [ 25.43111026 -22.24828235 -18.47023794]
0.512801    [ 26.28398524 -20.77981964 -19.09325419]
0.507583    [ 26.7410892  -23.47726762 -18.25698991]
-1.016163    [ 10.56617686 -29.35403808 -16.44102735]
0.483053    [ 11.92280935 -30.36927076 -15.8079521 ]
0.523726    [ 10.34862781 -29.90290525 -18.15080431]
-0.976012    [ 10.09067452 -21.18806662 -29.24260093]
0.486289    [ 11.11173701 -19.76402949 -29.69146191]
0.496485    [ 10.37375928 -22.38512875 -30.56881072]
-0.977833    [ 24.5589393  -27.80514674 -21.18389789]
0.50587    [ 23.21796885 -28.65180829 -20.31390388]
0.463809    [ 25.76766104 -27.42438582 -19.8931866 ]
-0.989717    [  8.77070649 -15.37911655 -23.94499373]
0.487556    [  8.68859978 -13.74216775 -23.17975481]
0.496916    [ 10.53805395 -15.75730555 -24.01835668]
-0.992057    [ 16.93410036 -32.15697813 -17.52810554]
0.50918    [ 16.39069828 -32.53931319 -15.84570882]
0.510293    [ 15.6895513  -32.92540692 -18.59231236]
-0.998393    [ 24.35861321 -18.31258187 -25.98586582]
0.466984    [ 25.48944989 -18.60606579 -24.60492389]
0.51604    [ 22.70911474 -18.4111103  -25.25008395]
-1.010464    [  9.27281806 -14.9477601  -17.25327322]
0.476424    [  7.6789399  -15.16789619 -18.07972415]
0.517552    [ 10.24747455 -16.38576609 -17.75736144]
-0.991473    [  5.5836248  -24.00414405 -18.66237963]
0.501887    [  5.79022289 -25.52045085 -17.69798247]
0.510487    [  5.17491673 -22.73885336 -17.43603619]
-1.029267    [  7.95719829 -25.19119252 -14.2761212 ]
0.497876    [  9.38018663 -24.0850659  -14.1227926 ]
0.519667    [  8.66153702 -26.76190075 -14.83174226]
-1.001943    [ 16.13613705 -11.83176802 -24.46883904]
0.509813    [ 16.78082846 -12.94299123 -23.1954641 ]
0.477312    [ 17.5304658  -11.57071369 -25.59117007]
-1.019724    [ 21.67798379 -29.0173418  -14.20699124]
0.475311    [ 20.53074618 -29.01816194 -15.60548117]
0.514632    [ 22.50198564 -27.40961194 -14.29731259]
-0.9959    [ 24.21450458 -24.60133719 -13.9203349 ]
0.499354    [ 23.58737251 -23.46499007 -12.66043371]
0.511038    [ 23.91476757 -23.75039163 -15.48812918]
-1.001922    [ 21.40011279 -32.14724982 -20.33868764]
0.487648    [ 22.14106118 -33.75675602 -19.97480576]
0.509505    [ 19.73399418 -32.24696878 -19.64152988]
Set gradient conv threshold to 3.16228e-05
Nelec from initial guess = 99.90262657545095
cond(S) = 206.80918646498952
E1 = -2402.63186091845  E_coul = 957.233004365727
init E= -758.891764194291
    CPU time for initialize scf     19.90 sec, wall time      2.62 sec
  HOMO = -0.471808442272088  LUMO = 0.018941876009406
  mo_energy =
[-2.08766173e+01 -2.08570311e+01 -2.08416071e+01 -2.08309609e+01
 -2.08285546e+01 -2.08200063e+01 -2.08185091e+01 -2.08145472e+01
 -2.08028954e+01 -2.07953353e+01 -1.71082121e+00 -1.68993223e+00
 -1.68224607e+00 -1.65888613e+00 -1.65229785e+00 -1.64361747e+00
 -1.63922818e+00 -1.62219997e+00 -1.60955345e+00 -1.59841778e+00
 -8.22856002e-01 -8.17386087e-01 -8.15855983e-01 -8.06630560e-01
 -7.90625783e-01 -7.68576122e-01 -7.63945175e-01 -7.57051819e-01
 -7.51173145e-01 -7.44859575e-01 -6.68456197e-01 -6.59746267e-01
 -6.55276041e-01 -6.37218913e-01 -6.34460373e-01 -6.17244162e-01
 -6.07136375e-01 -5.92820689e-01 -5.88716524e-01 -5.66705644e-01
 -5.48150124e-01 -5.32811095e-01 -5.22135163e-01 -5.14151675e-01
 -5.03161451e-01 -5.01791070e-01 -4.93537239e-01 -4.85890755e-01
 -4.83444587e-01 -4.71808442e-01  1.89418760e-02  6.42775925e-02
  9.12416091e-02  1.12752872e-01  1.37176206e-01  1.40422600e-01
  1.77097709e-01  1.82410603e-01  1.95892627e-01  2.15416371e-01
  2.31314353e-01  2.43925868e-01  2.53371968e-01  2.76201068e-01
  2.76588139e-01  2.87330768e-01  2.99129351e-01  3.19562642e-01
  3.35905783e-01  3.50254877e-01  8.05705654e-01  8.34055058e-01
  8.44054010e-01  8.74142047e-01  8.94926084e-01  9.06559787e-01
  9.18064841e-01  9.27024004e-01  9.41572733e-01  9.45698522e-01
  9.59680715e-01  9.62731916e-01  9.71324159e-01  9.78143698e-01
  9.79431922e-01  9.84805164e-01  9.95475791e-01  9.97691761e-01
  1.00404739e+00  1.01079506e+00  1.01770792e+00  1.03527681e+00
  1.04331473e+00  1.05255267e+00  1.06574104e+00  1.06985772e+00
  1.07239403e+00  1.08689895e+00  1.09230251e+00  1.10504494e+00
  1.11244634e+00  1.11941672e+00  1.13980858e+00  1.14836221e+00
  1.15577788e+00  1.17670106e+00  1.18066580e+00  1.19364491e+00
  1.20130623e+00  1.21579074e+00  1.21952173e+00  1.24353647e+00
  1.25020959e+00  1.25864448e+00  1.28504592e+00  1.29844045e+00
  1.31631455e+00  1.33405661e+00  1.36321526e+00  1.40407497e+00
  1.46043115e+00  1.51255784e+00  1.52597889e+00  1.54758000e+00
  1.56378303e+00  1.58622009e+00  1.60004390e+00  1.64568757e+00
  1.65403210e+00  1.65766890e+00  1.66325785e+00  1.67396902e+00
  1.67823778e+00  1.68678183e+00  1.69649766e+00  1.69734381e+00
  1.70162829e+00  1.70488263e+00  1.71085044e+00  1.71700418e+00
  1.72616916e+00  1.73418194e+00  1.74836203e+00  1.75471766e+00
  1.76076630e+00  1.76863490e+00  1.77645295e+00  1.78015606e+00
  1.78832327e+00  1.79799706e+00  1.80378733e+00  1.80750676e+00
  1.82156070e+00  1.84711498e+00  1.86886278e+00  1.89985822e+00
  1.91750837e+00  1.95636060e+00  1.96413492e+00  2.02944127e+00
  2.42915951e+00  2.43354478e+00  2.45913329e+00  2.46416191e+00
  2.47936498e+00  2.48429901e+00  2.49171585e+00  2.50691673e+00
  2.50959878e+00  2.51734646e+00  2.52054768e+00  2.52562041e+00
  2.55668778e+00  2.56231575e+00  2.56849894e+00  2.57699965e+00
  2.59373373e+00  2.60592318e+00  2.61813421e+00  2.63385914e+00
  2.66173521e+00  2.68446496e+00  2.70510144e+00  2.72754166e+00
  2.74471627e+00  2.75195277e+00  2.75840269e+00  2.77415560e+00
  2.79188111e+00  2.82923275e+00  2.85371152e+00  2.85990787e+00
  2.86984041e+00  2.88285186e+00  2.89024283e+00  2.90179750e+00
  2.90369593e+00  2.90589346e+00  2.91011026e+00  2.91634840e+00
  2.92605043e+00  2.94016086e+00  2.94650579e+00  2.94700230e+00
  2.94815469e+00  2.95648675e+00  2.96879770e+00  2.98384301e+00
  3.00097140e+00  3.00746074e+00  3.26248736e+00  3.27445353e+00
  3.30405348e+00  3.30981857e+00  3.32077216e+00  3.34392701e+00
  3.34488449e+00  3.35060755e+00  3.35468227e+00  3.37437076e+00
  3.65043931e+00  3.66600910e+00  3.69391485e+00  3.71111623e+00
  3.71629879e+00  3.72204840e+00  3.73958051e+00  3.75436821e+00
  3.77315151e+00  3.78946669e+00  3.81859922e+00  3.84383633e+00
  3.85063876e+00  3.87784499e+00  3.88433877e+00  3.88890512e+00
  3.90052855e+00  3.92294717e+00  3.94416205e+00  3.98636359e+00]
E1 = -2428.721024256961  E_coul = 982.1126082971808
cycle= 1 E= -760.101323601348  delta_E= -1.21  |g|= 1.34  |ddm|= 3.73
    CPU time for cycle= 1      3.62 sec, wall time      0.48 sec
diis-norm(errvec)=2.40041
diis-c [-5.76196343  1.        ]
  HOMO = -0.366057034010632  LUMO = 0.140639515002205
  mo_energy =
[-20.44209825 -20.40611308 -20.40211174 -20.40195904 -20.33466094
 -20.32984163 -20.31326417 -20.28961505 -20.26417774 -20.25202488
  -1.36444993  -1.34110013  -1.34033023  -1.33334058  -1.29281944
  -1.26553267  -1.25386695  -1.24062408  -1.22762725  -1.21453089
  -0.7409609   -0.7228385   -0.71411076  -0.70684494  -0.67316461
  -0.65913773  -0.65612347  -0.62018394  -0.61787259  -0.59873132
  -0.5841978   -0.56382348  -0.55451614  -0.55225294  -0.52267167
  -0.51531953  -0.50282944  -0.49130346  -0.48525302  -0.47823101
  -0.46286695  -0.45849626  -0.45067221  -0.4485533   -0.44119302
  -0.41390642  -0.39593926  -0.38675871  -0.37930242  -0.36605703
   0.14063952   0.17245376   0.20995221   0.21769391   0.23766883
   0.26710371   0.28846793   0.30983873   0.3238988    0.32504274
   0.33337967   0.34953526   0.36307728   0.39381765   0.40836758
   0.45461778   0.45743762   0.48161889   0.50679      0.52298494
   0.93410744   0.95519745   0.95856948   0.97680107   0.99833549
   1.01753855   1.03679558   1.04331953   1.06093499   1.06409778
   1.07803746   1.08543494   1.09408578   1.10443791   1.12041116
   1.1279357    1.13588056   1.15688536   1.16370325   1.1810418
   1.18938499   1.20602304   1.20842032   1.21501678   1.21728689
   1.22618141   1.23439384   1.2470018    1.26106595   1.26536056
   1.27941036   1.28596526   1.30380119   1.31753089   1.32413708
   1.33221445   1.35782642   1.36429545   1.37395316   1.37783732
   1.40117809   1.4133084    1.42403241   1.43407682   1.4579104
   1.47837615   1.48493774   1.49596319   1.5405408    1.57908313
   1.60073897   1.65619237   1.68017599   1.70071467   1.71111919
   1.73116268   1.76652602   1.78059621   1.78406875   1.79231432
   1.79993338   1.80655567   1.81528302   1.82042412   1.83050088
   1.83238983   1.85786358   1.86182854   1.86520961   1.87152329
   1.88184393   1.88477791   1.88852694   1.89240251   1.90573916
   1.91574865   1.92223541   1.94316893   1.94717156   1.96317163
   1.98810922   2.01123153   2.01720381   2.02866001   2.03893656
   2.06990143   2.08138136   2.12754808   2.15327343   2.2059858
   2.49424355   2.50968427   2.51207062   2.53305612   2.55180532
   2.55745278   2.57583779   2.57693927   2.58858132   2.59630859
   2.6146461    2.62088102   2.63193763   2.65242009   2.65558694
   2.68793021   2.72076515   2.72927922   2.77010361   2.77634468
   2.78130909   2.81230171   2.8153586    2.82758008   2.82996868
   2.87080839   2.89971426   2.9148395    2.91677655   2.92575126
   2.92637787   2.94409773   2.95036117   2.95851711   2.97222695
   2.97735195   2.98333863   2.98994496   2.99525196   3.02327706
   3.03256457   3.05054513   3.05109458   3.05966564   3.06253221
   3.07122132   3.07587643   3.09161788   3.10463034   3.1230337
   3.33437765   3.34629124   3.35601556   3.37075258   3.37506548
   3.4367279    3.4522227    3.46147896   3.48262061   3.49501566
   3.71648752   3.73843016   3.74623781   3.77124728   3.78131157
   3.82272467   3.85801599   3.87481089   3.89817012   3.91888484
   3.92473699   3.95168934   3.96260228   3.97788697   4.0072938
   4.04799165   4.06461238   4.08553013   4.13136062   4.15889959]
E1 = -2413.495224923334  E_coul = 966.6168541982622
cycle= 2 E= -760.37127836664  delta_E= -0.27  |g|= 0.64  |ddm|= 1.07
    CPU time for cycle= 2      3.62 sec, wall time      0.46 sec
diis-norm(errvec)=1.08108
diis-c [-0.29226579  0.28586806  0.71413194]
  HOMO = -0.465041310985149  LUMO = 0.136792919477534
  mo_energy =
[-20.64706214 -20.64316052 -20.63420692 -20.62183126 -20.61849474
 -20.56710625 -20.56688214 -20.55931715 -20.55548041 -20.54340029
  -1.41501021  -1.40976224  -1.40261509  -1.3907542   -1.37949187
  -1.34269793  -1.33454727  -1.32694412  -1.32005173  -1.3058878
  -0.77929327  -0.7675938   -0.76500566  -0.7512528   -0.74056338
  -0.72191724  -0.71698111  -0.6894563   -0.68570034  -0.67113349
  -0.64793503  -0.64167547  -0.62221392  -0.61972894  -0.61527729
  -0.58708965  -0.58224257  -0.56246262  -0.55673153  -0.55267411
  -0.551745    -0.54481459  -0.54127317  -0.53633532  -0.53471824
  -0.50064707  -0.48223836  -0.47765071  -0.47439373  -0.46504131
   0.13679292   0.16783744   0.20561342   0.20985377   0.23090211
   0.24895435   0.285561     0.29600131   0.30603823   0.30947744
   0.31770775   0.33329641   0.35809866   0.37220606   0.38079513
   0.4203189    0.42399724   0.44822011   0.47254408   0.48977198
   0.90672419   0.93042081   0.93889913   0.95169328   0.97685939
   0.99596272   1.00144719   1.0312059    1.03772326   1.04864919
   1.04876113   1.05872327   1.06652548   1.07282158   1.08541686
   1.0928629    1.10021446   1.10668333   1.11328347   1.12763757
   1.13108696   1.13477543   1.14167955   1.16051236   1.16290633
   1.17029468   1.17744318   1.19650604   1.19765298   1.2049716
   1.21980791   1.23055854   1.24043236   1.26119565   1.27223927
   1.28010807   1.29966158   1.30427165   1.31040828   1.31828275
   1.3428368    1.35586803   1.36809485   1.37417188   1.40151849
   1.41532322   1.43177692   1.43620632   1.47449098   1.52209354
   1.55331269   1.6102557    1.63425553   1.65051458   1.6697359
   1.68207297   1.71968623   1.74209314   1.75372291   1.75486472
   1.75890695   1.76663838   1.76982973   1.78213469   1.78830378
   1.7971388    1.80571351   1.81577511   1.82326103   1.82565003
   1.83219086   1.83355609   1.83780369   1.84252524   1.86347533
   1.86837085   1.87828831   1.88446105   1.89495731   1.9146425
   1.93454264   1.94847472   1.95471182   1.97215252   1.98397546
   2.01611993   2.02600935   2.07252969   2.09058246   2.14903795
   2.50025539   2.51377695   2.5166198    2.53260238   2.53695316
   2.54368026   2.54570307   2.55131434   2.55931193   2.56253104
   2.57821408   2.59780955   2.62096442   2.63050259   2.63445336
   2.65242192   2.67162702   2.68762458   2.72230428   2.73135955
   2.75456419   2.77231753   2.78109619   2.78943106   2.80512179
   2.82834587   2.86684936   2.87583137   2.89101603   2.90634516
   2.90997959   2.93040818   2.93695107   2.9375558    2.94673641
   2.94709112   2.9600395    2.96135527   2.97926123   2.99104056
   3.00590267   3.01843384   3.02382523   3.02871062   3.03161786
   3.03547673   3.03971552   3.06318326   3.07794638   3.09004951
   3.32497844   3.33242882   3.34342211   3.34707811   3.36253404
   3.41153026   3.41729378   3.42700566   3.44981552   3.46117399
   3.70951569   3.71907564   3.72329725   3.73914141   3.76880901
   3.79226072   3.81688792   3.83449098   3.85940089   3.8793169
   3.89504845   3.91337501   3.92399103   3.9354573    3.9598879
   3.99605627   4.0065792    4.03026255   4.07097834   4.1034373 ]
E1 = -2420.1085215437665  E_coul = 973.1586611643052
cycle= 3 E= -760.442768021029  delta_E= -0.0715  |g|= 0.095  |ddm|= 0.419
    CPU time for cycle= 3      3.43 sec, wall time      0.43 sec
diis-norm(errvec)=0.172669
diis-c [-0.01442418 -0.02576913  0.06175234  0.96401678]
  HOMO = -0.455188752171829  LUMO = 0.143610883648566
  mo_energy =
[-20.61118754 -20.61082742 -20.6007265  -20.59080485 -20.58203191
 -20.54022681 -20.53793313 -20.53176974 -20.52185042 -20.5093733
  -1.39965673  -1.39459846  -1.38805892  -1.37635231  -1.36557258
  -1.33264104  -1.32440626  -1.31579683  -1.30796511  -1.293425
  -0.76519961  -0.75438577  -0.75103794  -0.73846976  -0.728402
  -0.71271571  -0.70756245  -0.67918057  -0.67618849  -0.66043266
  -0.63744588  -0.63091989  -0.61165877  -0.60929068  -0.60530733
  -0.57870955  -0.57281015  -0.55249709  -0.54615502  -0.54338776
  -0.54273269  -0.53496861  -0.53085033  -0.52642387  -0.52525923
  -0.49297334  -0.4741804   -0.46846522  -0.46597597  -0.45518875
   0.14361088   0.17473313   0.21155283   0.21712992   0.23741955
   0.25430284   0.29282918   0.30216554   0.31191613   0.31565791
   0.32380522   0.33935556   0.36604621   0.37802992   0.38651058
   0.42591164   0.42950531   0.45390742   0.47813584   0.49464355
   0.91361772   0.93681563   0.94736855   0.96076403   0.98476445
   1.00482608   1.00965977   1.0404578    1.04708213   1.05748546
   1.05944732   1.06953843   1.0754768    1.08305485   1.09368743
   1.10233258   1.10859222   1.11525659   1.12193718   1.13586684
   1.13947989   1.14239734   1.15007731   1.16843408   1.17065858
   1.17866816   1.1851976    1.2043749    1.20624078   1.21293328
   1.22842005   1.23873275   1.25036505   1.26991728   1.28137042
   1.28886074   1.30812138   1.3137913    1.31913436   1.32611028
   1.35133924   1.36594592   1.37723774   1.38277652   1.41034732
   1.42324295   1.44073268   1.44478308   1.48168537   1.5296632
   1.56380517   1.62058042   1.64454466   1.66056061   1.68046069
   1.69164433   1.72854047   1.75335438   1.76506977   1.76601716
   1.77023665   1.77723312   1.78089133   1.79191262   1.79949466
   1.80826448   1.81550383   1.82561812   1.83238324   1.83503574
   1.84117488   1.84244658   1.84762554   1.85235746   1.87390037
   1.87821293   1.8887114    1.8946677    1.90345233   1.92305551
   1.94296242   1.9567234    1.96320255   1.9802026    1.99148102
   2.02414559   2.03438654   2.07999615   2.09749034   2.15629308
   2.51275012   2.5255123    2.52820171   2.54491304   2.54925909
   2.55579185   2.55730979   2.56120199   2.57068771   2.5728643
   2.58714449   2.60545296   2.62897169   2.63884549   2.64133124
   2.66075275   2.68067421   2.69577635   2.73106027   2.7406481
   2.76787276   2.78393695   2.79422488   2.80147016   2.81757032
   2.83823121   2.87716747   2.8859962    2.90086815   2.9178787
   2.9208862    2.94120922   2.94845962   2.94905709   2.95593522
   2.95693197   2.9701705    2.97088119   2.98922969   3.00107934
   3.01373016   3.02607614   3.03257098   3.03670507   3.03910713
   3.04208392   3.04614629   3.07082119   3.08563961   3.09688044
   3.33575557   3.34498974   3.35427022   3.35672648   3.3734559
   3.41911324   3.42483137   3.43382172   3.45720547   3.46758111
   3.72575304   3.7338445    3.73829149   3.7533133    3.78355073
   3.80423051   3.82796688   3.84530915   3.87038028   3.89023332
   3.90908985   3.92521256   3.93646072   3.94760468   3.97198898
   4.00568139   4.01630992   4.03976818   4.07926982   4.11141533]
E1 = -2419.3522838707568  E_coul = 972.4004059091027
cycle= 4 E= -760.444785603222  delta_E= -0.00202  |g|= 0.0152  |ddm|= 0.0616
    CPU time for cycle= 4      3.48 sec, wall time      0.44 sec
diis-norm(errvec)=0.0315098
diis-c [-2.85605028e-04 -9.02160333e-03 -3.83290725e-02 -1.40662610e-01
  1.18801329e+00]
  HOMO = -0.45651550352883  LUMO = 0.143561113086469
  mo_energy =
[-20.6151176  -20.61343002 -20.60345537 -20.59248386 -20.5854353
 -20.54044837 -20.53877344 -20.53299865 -20.52379069 -20.51147237
  -1.40061432  -1.39573593  -1.38905354  -1.37688491  -1.36698653
  -1.33282795  -1.32469988  -1.31625437  -1.30880273  -1.29442844
  -0.76539014  -0.75463369  -0.75127116  -0.73842951  -0.72899536
  -0.71259908  -0.70750702  -0.67943288  -0.6762669   -0.66081906
  -0.63785323  -0.6317003   -0.61213017  -0.60956014  -0.60628746
  -0.57939247  -0.57324073  -0.55311971  -0.54717619  -0.54427779
  -0.54343796  -0.53649778  -0.5318519   -0.52711999  -0.52704182
  -0.49357866  -0.47496883  -0.46951982  -0.46705005  -0.4565155
   0.14356111   0.17462851   0.21131492   0.21717759   0.237456
   0.25429448   0.29302803   0.30225677   0.31202932   0.31571223
   0.32381021   0.3392144    0.36608796   0.37824032   0.38644919
   0.42612655   0.42970605   0.4541031    0.47850494   0.49496423
   0.91350862   0.93674013   0.9472006    0.96079798   0.98477194
   1.00456778   1.00929831   1.04023018   1.04687073   1.05712758
   1.05918073   1.06929561   1.0752251    1.08287045   1.09343271
   1.10194728   1.10826814   1.11482696   1.12151679   1.13509643
   1.13870781   1.14186751   1.1496137    1.16797967   1.17019501
   1.17822672   1.18478035   1.20385258   1.20561395   1.21252651
   1.22795072   1.23822212   1.25017218   1.26950517   1.28122805
   1.28855643   1.30791913   1.31363312   1.3188098    1.32585299
   1.35109149   1.36570413   1.37693944   1.38246711   1.4100095
   1.4231141    1.44039942   1.44436096   1.48155286   1.52946736
   1.56328465   1.62018396   1.64411336   1.66001001   1.68001912
   1.69135226   1.72841852   1.75295588   1.76475454   1.7658368
   1.77004591   1.77693169   1.78025284   1.79171106   1.79938217
   1.80810213   1.81510369   1.82542852   1.83220358   1.83483741
   1.84102705   1.84230793   1.84719791   1.85199091   1.87365005
   1.87801028   1.88856289   1.89393837   1.90329466   1.92301405
   1.94274311   1.95642647   1.96279062   1.98005786   1.99146594
   2.02391858   2.03418189   2.07987361   2.09734572   2.15614883
   2.51290911   2.52565065   2.52838186   2.54496837   2.54928427
   2.55579305   2.55733458   2.56109254   2.57063117   2.57251511
   2.58724047   2.60554996   2.62900008   2.63868085   2.64151425
   2.66063902   2.68047133   2.6958501    2.73102422   2.74070388
   2.76798996   2.78363376   2.79424649   2.80138551   2.81782151
   2.83831666   2.87695016   2.88622797   2.90108817   2.91823783
   2.92126484   2.94139674   2.94857901   2.94927368   2.9559725
   2.9567319    2.96999614   2.97116449   2.98950544   3.00124474
   3.0139822    3.02614497   3.03244303   3.03664309   3.03927575
   3.042122     3.04632585   3.07074106   3.08588671   3.09715786
   3.33591522   3.34547602   3.35440622   3.3567116    3.37388536
   3.41943381   3.42495259   3.43406664   3.45720152   3.4678174
   3.72586505   3.73364596   3.73816351   3.75304661   3.78371625
   3.80425648   3.82792326   3.84522276   3.87038424   3.89033242
   3.90942055   3.92535045   3.93667073   3.94762477   3.97190224
   4.0059775    4.01640267   4.04004655   4.07954848   4.11179814]
E1 = -2419.389457745316  E_coul = 972.4374783543668
cycle= 5 E= -760.444887032517  delta_E= -0.000101  |g|= 0.00304  |ddm|= 0.0201
    CPU time for cycle= 5      3.40 sec, wall time      0.42 sec
diis-norm(errvec)=0.00588616
diis-c [-2.12672649e-05  1.70390958e-03  4.58318425e-03 -9.60211602e-03
 -1.31753122e-01  1.13506814e+00]
  HOMO = -0.456834282359423  LUMO = 0.143600195569126
  mo_energy =
[-20.61315244 -20.61272165 -20.60277402 -20.59243046 -20.58459825
 -20.54184707 -20.53982942 -20.53336137 -20.52405517 -20.51177731
  -1.40023759  -1.39529639  -1.38891667  -1.37689147  -1.36681321
  -1.33330203  -1.32517176  -1.31653684  -1.3090017   -1.2946222
  -0.76493126  -0.75443139  -0.75077353  -0.73834326  -0.72874632
  -0.71282059  -0.70772388  -0.6795279   -0.67640455  -0.66086715
  -0.63783882  -0.63124144  -0.61210189  -0.60964716  -0.60618948
  -0.57957576  -0.57346622  -0.55321344  -0.54727215  -0.54448001
  -0.54365333  -0.53651368  -0.53202404  -0.52743604  -0.52702435
  -0.4941849   -0.47553298  -0.46986719  -0.46747123  -0.45683428
   0.1436002    0.17464765   0.21128419   0.21727297   0.23741731
   0.25417362   0.29306159   0.30225225   0.3119956    0.315718
   0.32378146   0.33916413   0.36613438   0.37814417   0.38633099
   0.42596554   0.42952955   0.45394832   0.47829968   0.49472695
   0.91339403   0.9365887    0.94711486   0.96077718   0.98464573
   1.00453822   1.00927809   1.04017642   1.04688001   1.05704612
   1.05912602   1.06925772   1.0751223    1.0828103    1.09325041
   1.10191202   1.10812307   1.11462865   1.12138953   1.13501805
   1.13861202   1.14180501   1.1495346    1.16788319   1.17007966
   1.17811826   1.18469765   1.20370422   1.20554024   1.21240015
   1.22786129   1.23807846   1.2502238    1.26944999   1.28117951
   1.28846249   1.30777041   1.31355682   1.31861819   1.32588051
   1.35099116   1.36561692   1.37683475   1.38225114   1.40986655
   1.42284874   1.44025975   1.44424277   1.48129011   1.52925762
   1.56333004   1.62009761   1.64416331   1.65992862   1.68000519
   1.69130989   1.72824829   1.75311343   1.76478033   1.76587647
   1.77000315   1.77694329   1.78027193   1.79160037   1.79936923
   1.80808191   1.81506177   1.82535354   1.83198067   1.83463205
   1.8408015    1.84209535   1.84703002   1.85200962   1.87358247
   1.87794297   1.88851229   1.89399953   1.90310901   1.92280028
   1.94257335   1.95621222   1.96256718   1.97980549   1.99120032
   2.02375759   2.03403267   2.07964387   2.09709118   2.155865
   2.51304539   2.52569608   2.52840565   2.54499988   2.54933234
   2.5559464    2.55731381   2.56102437   2.57058677   2.57249266
   2.58705217   2.60534401   2.62881076   2.63846213   2.64128403
   2.66044795   2.68025835   2.69559538   2.73075945   2.74048151
   2.76810562   2.78363863   2.79442416   2.80136102   2.81774539
   2.83813967   2.87679006   2.88605403   2.90092062   2.91828451
   2.92116017   2.94146659   2.94859844   2.94934984   2.95592005
   2.95673538   2.96993639   2.97107936   2.98939123   3.00115376
   3.01375249   3.02594156   3.03229893   3.03646345   3.03902975
   3.04187684   3.04600882   3.0706236    3.08566989   3.09689566
   3.33612447   3.345539     3.35438934   3.35669669   3.37383273
   3.4192013    3.42474873   3.43380995   3.45699022   3.46754683
   3.72602735   3.73374101   3.73838422   3.7530832    3.78369896
   3.80409267   3.82768372   3.84499216   3.87017557   3.89019904
   3.90953396   3.92531083   3.93667514   3.94777415   3.9719239
   4.00573257   4.01617276   4.03979437   4.07917641   4.11143002]
E1 = -2419.382554253101  E_coul = 972.4305707953451
cycle= 6 E= -760.444891099324  delta_E= -4.07e-06  |g|= 0.00131  |ddm|= 0.00438
    CPU time for cycle= 6      3.40 sec, wall time      0.43 sec
diis-norm(errvec)=0.00233183
diis-c [-2.08940228e-06  1.18996111e-03  4.52000210e-03  7.05096976e-03
 -1.21989533e-01  2.67254642e-01  8.41973958e-01]
  HOMO = -0.456817725639277  LUMO = 0.143583104359727
  mo_energy =
[-20.61396844 -20.61291566 -20.60300758 -20.59230861 -20.5849083
 -20.54107962 -20.53924019 -20.53312886 -20.52384102 -20.51155037
  -1.40038905  -1.39548238  -1.38899535  -1.37686552  -1.36693417
  -1.33310835  -1.32498176  -1.31643712  -1.30893682  -1.2945743
  -0.76502466  -0.75445128  -0.75086414  -0.73828779  -0.72880563
  -0.71269143  -0.70760496  -0.67946221  -0.67630342  -0.6608057
  -0.63788628  -0.63147093  -0.61214391  -0.60962126  -0.60632455
  -0.57957898  -0.57342675  -0.55324732  -0.54732517  -0.54450112
  -0.5436418   -0.53664122  -0.53204023  -0.5273775   -0.52717833
  -0.49401768  -0.47539867  -0.46980961  -0.46744137  -0.45681773
   0.1435831    0.17462546   0.21126209   0.21725649   0.23741502
   0.25418095   0.29307058   0.30225133   0.31198609   0.31569776
   0.32379231   0.33915896   0.36613296   0.37816146   0.38634095
   0.42599168   0.4295624    0.45396957   0.47835004   0.49477513
   0.91337588   0.93658685   0.94708938   0.96075989   0.98465797
   1.00449902   1.00923061   1.04015325   1.04685963   1.05702208
   1.05910395   1.06924257   1.07511995   1.08280644   1.09327401
   1.10188395   1.10811605   1.11465247   1.12137472   1.13495514
   1.13856209   1.14174825   1.14952323   1.16786071   1.1700553
   1.17811167   1.18467271   1.20368542   1.20550868   1.21240712
   1.22784489   1.23807362   1.25020058   1.26942107   1.28118
   1.28845448   1.30779263   1.31357577   1.31866131   1.32583204
   1.35099913   1.36562372   1.37685075   1.38230554   1.40990008
   1.42292121   1.4402957    1.44425332   1.48137161   1.52931049
   1.56330185   1.62012494   1.644111     1.65992956   1.67997901
   1.69129129   1.72828433   1.75301998   1.76474137   1.76583235
   1.76998647   1.77690016   1.78019329   1.79159814   1.79934837
   1.80806487   1.81502787   1.82534888   1.83202117   1.83466779
   1.8408388    1.8421351    1.84703995   1.85196668   1.87357481
   1.87793813   1.88850821   1.89390735   1.90313862   1.92284644
   1.94259544   1.95625445   1.96260255   1.9798655    1.9912662
   2.02379127   2.0340628    2.07969039   2.09714334   2.15594177
   2.51299006   2.52566432   2.52838226   2.54496662   2.54929292
   2.55586384   2.55729664   2.56098756   2.57056813   2.5724382
   2.58707165   2.60535711   2.628818     2.63848057   2.64131575
   2.66045633   2.68027358   2.69563964   2.73081305   2.74051754
   2.76804652   2.78357023   2.7943366    2.80132526   2.81776859
   2.83817513   2.87679434   2.88609111   2.90094576   2.91825938
   2.92117578   2.94141137   2.94857641   2.94930918   2.95592081
   2.95667484   2.96989052   2.97109698   2.98942153   3.00117086
   3.01378491   3.02596156   3.03229694   3.03647835   3.03907137
   3.04190973   3.04606197   3.07063775   3.08570242   3.09695489
   3.33602863   3.34551788   3.35435439   3.35664648   3.37384912
   3.41923687   3.42476658   3.43385371   3.45700833   3.46759747
   3.72598745   3.73367835   3.73829797   3.75302421   3.78371212
   3.80411491   3.82773322   3.84503031   3.87021488   3.89021083
   3.90948331   3.92529076   3.93665675   3.94768158   3.97186592
   4.00578557   4.0162078    4.03984604   4.07927717   4.1115285 ]
E1 = -2419.380483328924  E_coul = 972.4284993930584
cycle= 7 E= -760.444891577434  delta_E= -4.78e-07  |g|= 0.000303  |ddm|= 0.00129
    CPU time for cycle= 7      3.44 sec, wall time      0.43 sec
diis-norm(errvec)=0.000556904
diis-c [-8.71175612e-08 -1.47555901e-04 -2.89522947e-04  3.53463409e-05
  1.23231226e-02 -1.09901095e-01  1.16254722e-03  1.09681716e+00]
  HOMO = -0.456835995103442  LUMO = 0.143593216231183
  mo_energy =
[-20.61380194 -20.61283904 -20.60293    -20.59229257 -20.58483848
 -20.54116831 -20.53929213 -20.53311276 -20.52383024 -20.51155355
  -1.40034929  -1.39543845  -1.38897032  -1.37685845  -1.36691474
  -1.33312484  -1.32499748  -1.31643719  -1.3089333   -1.29458145
  -0.76497598  -0.75442024  -0.75081244  -0.73827014  -0.72877821
  -0.71268558  -0.70759647  -0.67945     -0.67628951  -0.66079914
  -0.63786967  -0.63142169  -0.6121266   -0.60961627  -0.60631544
  -0.579582    -0.57342925  -0.55323849  -0.54732106  -0.54450938
  -0.54364682  -0.53663571  -0.53204592  -0.5273885   -0.52717185
  -0.49405388  -0.47543061  -0.46982032  -0.46745823  -0.456836
   0.14359322   0.17463396   0.21126548   0.21727079   0.2374238
   0.25418481   0.29308174   0.30226193   0.31199904   0.31571203
   0.32379875   0.33916234   0.36614083   0.3781702    0.38634559
   0.42600144   0.42957162   0.45397979   0.47835751   0.49478501
   0.91338914   0.93659845   0.94710373   0.96077726   0.98466689
   1.00451186   1.00924504   1.04016825   1.04687172   1.05703157
   1.05911675   1.06925338   1.07512764   1.08281328   1.09327415
   1.10189236   1.10812339   1.11464992   1.12137749   1.13496157
   1.13856994   1.14175914   1.14953339   1.16786715   1.17006501
   1.17811962   1.18468316   1.20368928   1.20551932   1.2124135
   1.22785684   1.23807933   1.25022293   1.26943407   1.28119222
   1.28846757   1.30779936   1.31358668   1.31866549   1.32585424
   1.35100925   1.36563836   1.37686104   1.38230744   1.40990716
   1.42292324   1.44030385   1.44426093   1.4813715    1.52931569
   1.56332066   1.62013283   1.64413145   1.65993756   1.67999272
   1.69130575   1.72828948   1.75304626   1.76475876   1.76585099
   1.76999785   1.77691717   1.78020488   1.79160548   1.79936138
   1.80807744   1.81503836   1.82536054   1.83202454   1.83466994
   1.84084063   1.84213771   1.84703751   1.85198281   1.87358691
   1.8779486    1.8885201    1.89392054   1.90314572   1.92285072
   1.94260018   1.9562563    1.96259712   1.97986411   1.99126642
   2.02379524   2.03406731   2.07969333   2.09714602   2.15594168
   2.51301587   2.52568312   2.52839986   2.54498494   2.54931242
   2.55589179   2.55730761   2.56099739   2.5705776    2.57245126
   2.58707883   2.60537146   2.62882572   2.63848069   2.64132441
   2.66045801   2.6802749    2.69564535   2.73081309   2.7405227
   2.76807388   2.7835861    2.79436842   2.80134227   2.81777596
   2.83818144   2.87679544   2.88609727   2.9009561    2.91827993
   2.92119044   2.94143671   2.94859022   2.94933038   2.95593081
   2.9566834    2.96990248   2.97110602   2.98942958   3.00117722
   3.01379227   3.02596811   3.03229181   3.03648213   3.03907339
   3.04191186   3.04606912   3.07064356   3.08571185   3.09695815
   3.33606155   3.34553978   3.35437052   3.35666058   3.37385777
   3.41924588   3.42477387   3.43386117   3.45700814   3.46760008
   3.72601228   3.73370022   3.7383279    3.75304198   3.78372178
   3.80412268   3.82773779   3.84503594   3.87021742   3.89022126
   3.90951215   3.92530835   3.93667266   3.94771227   3.97188489
   4.00579274   4.01621062   4.03985208   4.07927736   4.11152698]
E1 = -2419.3796641015765  E_coul = 972.4276801286038
cycle= 8 E= -760.444891614541  delta_E= -3.71e-08  |g|= 4.6e-05  |ddm|= 0.000436
    CPU time for cycle= 8      3.41 sec, wall time      0.43 sec
diis-norm(errvec)=8.71594e-05
diis-c [-3.23488255e-09 -4.89011190e-05 -1.77533618e-04 -3.80458137e-04
  5.18647152e-03 -1.06031169e-02 -3.80657027e-02 -6.12176049e-03
  1.05021100e+00]
  HOMO = -0.456836784255309  LUMO = 0.143594599292268
  mo_energy =
[-20.61380133 -20.61284021 -20.60293159 -20.59228841 -20.58482671
 -20.54114885 -20.53928089 -20.53312138 -20.52382727 -20.51155115
  -1.40034794  -1.39543704  -1.38897082  -1.37685687  -1.36691151
  -1.33312263  -1.32499558  -1.31643975  -1.30893354  -1.29458194
  -0.76497283  -0.75441879  -0.75080898  -0.73826701  -0.72877447
  -0.71268115  -0.70759545  -0.67944894  -0.67628847  -0.66079807
  -0.63786929  -0.63142027  -0.61212594  -0.60961544  -0.60631344
  -0.57958147  -0.57342838  -0.55324059  -0.54732213  -0.5445111
  -0.54364803  -0.5366355   -0.53204655  -0.5273882   -0.52716877
  -0.49405272  -0.47543069  -0.46982027  -0.46746344  -0.45683678
   0.1435946    0.17463456   0.21126555   0.21727251   0.23742333
   0.25418389   0.29308276   0.30226227   0.31199879   0.31571212
   0.32379959   0.33916242   0.36614228   0.37817002   0.38634602
   0.42600095   0.42957099   0.4539786    0.47835833   0.49478342
   0.91338921   0.93659825   0.94710367   0.96077798   0.9846672
   1.0045124    1.0092458    1.04016868   1.0468735    1.05703146
   1.05911653   1.06925376   1.07512817   1.08281367   1.09327414
   1.10189254   1.10812244   1.11465012   1.12137765   1.13496257
   1.13856991   1.14175972   1.14953391   1.16786794   1.17006371
   1.17811995   1.18468293   1.20368853   1.20551934   1.2124132
   1.22785669   1.23807902   1.25022414   1.26943481   1.28119297
   1.28846765   1.30779893   1.31358766   1.31866557   1.32585467
   1.35101019   1.3656385    1.37686189   1.38230783   1.40990723
   1.42292359   1.44030415   1.44426155   1.48137256   1.52931628
   1.56332163   1.62013342   1.6441319    1.6599381    1.67999297
   1.69130596   1.72829011   1.75304767   1.76475988   1.76585168
   1.76999785   1.77691781   1.78020604   1.79160526   1.79936267
   1.80807826   1.81503933   1.82536054   1.83202391   1.8346693
   1.84083994   1.84213808   1.84703715   1.85198416   1.87358682
   1.87794913   1.88852053   1.89392226   1.90314508   1.9228501
   1.94259917   1.95625595   1.96259668   1.97986407   1.99126663
   2.02379588   2.03406768   2.07969295   2.09714434   2.15594201
   2.51301835   2.52568496   2.5284017    2.54498606   2.54931358
   2.55589376   2.55730856   2.56099718   2.57057889   2.57245248
   2.58707774   2.60536978   2.62882421   2.6384802    2.64132515
   2.66045693   2.68027326   2.69564479   2.73081383   2.74052357
   2.76807578   2.78358753   2.79437044   2.80134297   2.81777762
   2.83818248   2.87679522   2.88609829   2.90095526   2.91828175
   2.92119104   2.94143771   2.94859104   2.94933208   2.95593326
   2.95668485   2.96990211   2.9711069    2.98943115   3.00117879
   3.01379043   3.02596709   3.03229174   3.03648112   3.03907283
   3.04191129   3.04606676   3.07064588   3.08571023   3.09695956
   3.33606444   3.34554191   3.35437124   3.35666154   3.37385944
   3.41924448   3.42477285   3.43386045   3.45700814   3.46760123
   3.72601497   3.73370141   3.73833078   3.75304286   3.78372363
   3.80412116   3.8277376    3.8450353    3.87021802   3.89022278
   3.90951394   3.92530972   3.93667456   3.94771414   3.97188592
   4.00579202   4.01620993   4.03985157   4.07927755   4.1115282 ]
E1 = -2419.379624909287  E_coul = 972.4276409353307
cycle= 9 E= -760.444891615525  delta_E= -9.84e-10  |g|= 1.29e-05  |ddm|= 7.18e-05
    CPU time for cycle= 9      3.45 sec, wall time      0.43 sec
  HOMO = -0.45683581965672  LUMO = 0.14359489149968
  mo_energy =
[-20.61380321 -20.61283776 -20.60293008 -20.59228752 -20.58483412
 -20.5411531  -20.53928249 -20.53311341 -20.52382624 -20.51154979
  -1.40034727  -1.39543657  -1.38897002  -1.37685633  -1.36691351
  -1.33312263  -1.3249956   -1.31643776  -1.30893278  -1.29458116
  -0.7649724   -0.75441826  -0.75080858  -0.73826663  -0.72877612
  -0.71268106  -0.70759432  -0.67944829  -0.67628712  -0.66079749
  -0.63786849  -0.63142023  -0.61212542  -0.60961493  -0.60631551
  -0.57958115  -0.57342765  -0.55323865  -0.547321    -0.54451026
  -0.54364747  -0.53663532  -0.53204596  -0.5273874   -0.52717036
  -0.49405325  -0.47543061  -0.46981934  -0.46746106  -0.45683582
   0.14359489   0.17463464   0.21126531   0.21727267   0.23742343
   0.25418433   0.29308297   0.30226237   0.31199878   0.31571245
   0.32379986   0.33916255   0.36614232   0.37817045   0.38634628
   0.42600153   0.42957149   0.45397914   0.47835881   0.49478413
   0.91338961   0.93659851   0.94710353   0.96077822   0.98466748
   1.00451214   1.00924586   1.0401688    1.04687347   1.05703184
   1.05911658   1.06925409   1.07512818   1.08281395   1.09327447
   1.10189272   1.10812279   1.11465027   1.12137758   1.13496178
   1.13856976   1.14175923   1.14953434   1.1678679    1.17006441
   1.17812016   1.1846833    1.20368885   1.20551978   1.21241364
   1.22785723   1.23807956   1.25022465   1.26943516   1.28119361
   1.28846808   1.30779999   1.31358816   1.31866625   1.32585489
   1.35101036   1.36563885   1.37686218   1.38230822   1.40990777
   1.42292431   1.44030447   1.44426176   1.4813728    1.52931674
   1.56332197   1.62013382   1.64413213   1.6599382    1.67999323
   1.69130639   1.72829039   1.7530479    1.76476019   1.76585223
   1.7699984    1.77691818   1.78020492   1.79160578   1.79936294
   1.80807869   1.81503899   1.82536126   1.83202447   1.83466991
   1.84084056   1.8421384    1.84703754   1.85198434   1.87358736
   1.87794954   1.88852106   1.89392092   1.90314584   1.92285105
   1.94260013   1.9562564    1.96259707   1.97986468   1.9912671
   2.02379621   2.03406821   2.07969355   2.09714539   2.15594229
   2.51301867   2.52568517   2.52840189   2.54498659   2.54931412
   2.55589397   2.55730874   2.56099682   2.57057874   2.57245193
   2.5870785    2.6053706    2.62882449   2.63848066   2.64132552
   2.66045751   2.68027423   2.69564526   2.73081408   2.74052382
   2.76807625   2.78358659   2.7943708    2.80134294   2.81777788
   2.83818296   2.87679561   2.8860985    2.90095631   2.91828226
   2.9211914    2.94143807   2.94859123   2.94933234   2.95593358
   2.95668393   2.96990164   2.97110721   2.98943143   3.00117904
   3.01379129   3.02596751   3.03229199   3.03648141   3.03907325
   3.04191169   3.04606739   3.07064632   3.08571129   3.09695992
   3.33606464   3.34554231   3.35437127   3.35666102   3.37385963
   3.41924548   3.42477329   3.43386118   3.45700843   3.46760154
   3.72601538   3.73370121   3.73833082   3.75304211   3.78372374
   3.80412221   3.82773796   3.84503565   3.87021834   3.89022283
   3.9095145    3.92530972   3.93667455   3.94771424   3.97188557
   4.00579295   4.01621065   4.03985237   4.07927785   4.11152849]
E1 = -2419.3796404222367  E_coul = 972.4276564482051
Extra cycle  E= -760.4448916156  delta_E= -7.5e-11  |g|= 6.37e-06  |ddm|= 1.82e-05
    CPU time for scf_cycle     54.54 sec, wall time      7.00 sec
    CPU time for SCF     54.55 sec, wall time      7.02 sec
converged SCF energy = -760.4448916156
