 Entering Gaussian System, Link 0=g16
 Input=w32_1.gjf
 Output=w32_1.log
 Initial command:
 /home/soft/g16/l1.exe "/tmp/liwei01/gaussian/wsr/Gau-4936.inp" -scrdir="/tmp/liwei01/gaussian/wsr/"
 Entering Link 1 = /home/soft/g16/l1.exe PID=      4938.
  
 Copyright (c) 1988,1990,1992,1993,1995,1998,2003,2009,2016,
            Gaussian, Inc.  All Rights Reserved.
  
 This is part of the Gaussian(R) 16 program.  It is based on
 the Gaussian(R) 09 system (copyright 2009, Gaussian, Inc.),
 the Gaussian(R) 03 system (copyright 2003, Gaussian, Inc.),
 the Gaussian(R) 98 system (copyright 1998, Gaussian, Inc.),
 the Gaussian(R) 94 system (copyright 1995, Gaussian, Inc.),
 the Gaussian 92(TM) system (copyright 1992, Gaussian, Inc.),
 the Gaussian 90(TM) system (copyright 1990, Gaussian, Inc.),
 the Gaussian 88(TM) system (copyright 1988, Gaussian, Inc.),
 the Gaussian 86(TM) system (copyright 1986, Carnegie Mellon
 University), and the Gaussian 82(TM) system (copyright 1983,
 Carnegie Mellon University). Gaussian is a federally registered
 trademark of Gaussian, Inc.
  
 This software contains proprietary and confidential information,
 including trade secrets, belonging to Gaussian, Inc.
  
 This software is provided under written license and may be
 used, copied, transmitted, or stored only in accord with that
 written license.
  
 The following legend is applicable only to US Government
 contracts under FAR:
  
                    RESTRICTED RIGHTS LEGEND
  
 Use, reproduction and disclosure by the US Government is
 subject to restrictions as set forth in subparagraphs (a)
 and (c) of the Commercial Computer Software - Restricted
 Rights clause in FAR 52.227-19.
  
 Gaussian, Inc.
 340 Quinnipiac St., Bldg. 40, Wallingford CT 06492
  
  
 ---------------------------------------------------------------
 Warning -- This program may not be used in any manner that
 competes with the business of Gaussian, Inc. or will provide
 assistance to any competitor of Gaussian, Inc.  The licensee
 of this program is prohibited from giving any competitor of
 Gaussian, Inc. access to this program.  By using this program,
 the user acknowledges that Gaussian, Inc. is engaged in the
 business of creating and licensing software in the field of
 computational chemistry and represents and warrants to the
 licensee that it is not a competitor of Gaussian, Inc. and that
 it will not use this program in any manner prohibited above.
 ---------------------------------------------------------------
  

 Cite this work as:
 Gaussian 16, Revision A.03,
 M. J. Frisch, G. W. Trucks, H. B. Schlegel, G. E. Scuseria, 
 M. A. Robb, J. R. Cheeseman, G. Scalmani, V. Barone, 
 G. A. Petersson, H. Nakatsuji, X. Li, M. Caricato, A. V. Marenich, 
 J. Bloino, B. G. Janesko, R. Gomperts, B. Mennucci, H. P. Hratchian, 
 J. V. Ortiz, A. F. Izmaylov, J. L. Sonnenberg, D. Williams-Young, 
 F. Ding, F. Lipparini, F. Egidi, J. Goings, B. Peng, A. Petrone, 
 T. Henderson, D. Ranasinghe, V. G. Zakrzewski, J. Gao, N. Rega, 
 G. Zheng, W. Liang, M. Hada, M. Ehara, K. Toyota, R. Fukuda, 
 J. Hasegawa, M. Ishida, T. Nakajima, Y. Honda, O. Kitao, H. Nakai, 
 T. Vreven, K. Throssell, J. A. Montgomery, Jr., J. E. Peralta, 
 F. Ogliaro, M. J. Bearpark, J. J. Heyd, E. N. Brothers, K. N. Kudin, 
 V. N. Staroverov, T. A. Keith, R. Kobayashi, J. Normand, 
 K. Raghavachari, A. P. Rendell, J. C. Burant, S. S. Iyengar, 
 J. Tomasi, M. Cossi, J. M. Millam, M. Klene, C. Adamo, R. Cammi, 
 J. W. Ochterski, R. L. Martin, K. Morokuma, O. Farkas, 
 J. B. Foresman, and D. J. Fox, Gaussian, Inc., Wallingford CT, 2016.
 
 ******************************************
 Gaussian 16:  ES64L-G16RevA.03 25-Dec-2016
                15-May-2020 
 ******************************************
 %chk=w32_1.chk
 %nproc=4
 Will use up to    4 processors via shared memory.
 %mem=1gb
 -----------------------------------------
 #p hf/6-31g** 5d 7f pop=npa charge nosymm
 -----------------------------------------
 1/18=10,28=-2,38=1,125=101,172=1/1;
 2/12=2,15=1,17=6,18=5,40=1/2;
 3/5=1,6=6,7=101,8=11,11=9,25=1,30=1/1,2,3;
 4//1;
 5/5=2,38=5/2;
 6/7=2,8=2,9=2,10=2,28=1,40=-1/1,7;
 99/5=1,9=1/99;
 Leave Link    1 at Fri May 15 22:34:36 2020, MaxMem=   134217728 cpu:               0.3 elap:               0.1
 (Enter /home/soft/g16/l101.exe)
 --------------
 Atom number=30
 --------------
 Symbolic Z-matrix:
 Charge =  0 Multiplicity = 1
 o                     8.39232  -11.81294  -11.20048 
 o                     10.70602  -10.84886  -10.09151 
 o                     8.69325  -14.06927  -9.54711 
 o                     7.25028  -9.85963  -13.10346 
 o                     5.57039  -12.76004  -10.73381 
 o                     6.96619  -9.24779  -10.27431 
 o                     6.94264  -11.82938  -8.37104 
 o                     9.73971  -14.56022  -13.08414 
 o                     10.08491  -9.603    -13.69441 
 o                     9.47377  -7.99719  -10.91804 
 h                     8.17528  -12.53782  -10.61424 
 h                     9.25215  -11.5141  -10.90447 
 h                     11.52141  -11.32028  -9.92081 
 h                     10.5678  -10.31688  -9.30785 
 h                     8.22009  -13.73274  -8.78613 
 h                     8.5528   -15.01566  -9.51778 
 h                     7.12066  -10.22147  -13.9801 
 h                     7.34148  -10.62674  -12.53826 
 h                     4.64271  -12.82783  -10.50789 
 h                     5.98375  -12.40517  -9.94677 
 h                     6.97515  -9.84502  -11.02229 
 h                     7.68438  -8.63847  -10.4451 
 h                     7.49557  -12.09105  -7.63482 
 h                     7.30746  -10.99284  -8.65973 
 h                     9.43668  -13.92088  -12.43943 
 h                     10.65271  -14.32297  -13.24658 
 h                     9.83796  -9.87791  -14.5774 
 h                     9.26711  -9.62837  -13.19764 
 h                     9.99752  -8.79563  -10.85159 
 h                     9.62339  -7.54236  -10.0892 
 
 ITRead=  0  0  0  0  0  0  0  0  0  0  0  0  0  0  0  0  0  0  0  0
 ITRead=  0  0  0  0  0  0  0  0  0  0
 MicOpt= -1 -1 -1 -1 -1 -1 -1 -1 -1 -1 -1 -1 -1 -1 -1 -1 -1 -1 -1 -1
 MicOpt= -1 -1 -1 -1 -1 -1 -1 -1 -1 -1
 NAtoms=     30 NQM=       30 NQMF=       0 NMMI=      0 NMMIF=      0
                NMic=       0 NMicF=      0.
                    Isotopes and Nuclear Properties:
 (Nuclear quadrupole moments (NQMom) in fm**2, nuclear magnetic moments (NMagM)
  in nuclear magnetons)

  Atom         1           2           3           4           5           6           7           8           9          10
 IAtWgt=          16          16          16          16          16          16          16          16          16          16
 AtmWgt=  15.9949146  15.9949146  15.9949146  15.9949146  15.9949146  15.9949146  15.9949146  15.9949146  15.9949146  15.9949146
 NucSpn=           0           0           0           0           0           0           0           0           0           0
 AtZEff=  -0.0000000  -0.0000000  -0.0000000  -0.0000000  -0.0000000  -0.0000000  -0.0000000  -0.0000000  -0.0000000  -0.0000000
 NQMom=    0.0000000   0.0000000   0.0000000   0.0000000   0.0000000   0.0000000   0.0000000   0.0000000   0.0000000   0.0000000
 NMagM=    0.0000000   0.0000000   0.0000000   0.0000000   0.0000000   0.0000000   0.0000000   0.0000000   0.0000000   0.0000000
 AtZNuc=   8.0000000   8.0000000   8.0000000   8.0000000   8.0000000   8.0000000   8.0000000   8.0000000   8.0000000   8.0000000

  Atom        11          12          13          14          15          16          17          18          19          20
 IAtWgt=           1           1           1           1           1           1           1           1           1           1
 AtmWgt=   1.0078250   1.0078250   1.0078250   1.0078250   1.0078250   1.0078250   1.0078250   1.0078250   1.0078250   1.0078250
 NucSpn=           1           1           1           1           1           1           1           1           1           1
 AtZEff=  -0.0000000  -0.0000000  -0.0000000  -0.0000000  -0.0000000  -0.0000000  -0.0000000  -0.0000000  -0.0000000  -0.0000000
 NQMom=    0.0000000   0.0000000   0.0000000   0.0000000   0.0000000   0.0000000   0.0000000   0.0000000   0.0000000   0.0000000
 NMagM=    2.7928460   2.7928460   2.7928460   2.7928460   2.7928460   2.7928460   2.7928460   2.7928460   2.7928460   2.7928460
 AtZNuc=   1.0000000   1.0000000   1.0000000   1.0000000   1.0000000   1.0000000   1.0000000   1.0000000   1.0000000   1.0000000

  Atom        21          22          23          24          25          26          27          28          29          30
 IAtWgt=           1           1           1           1           1           1           1           1           1           1
 AtmWgt=   1.0078250   1.0078250   1.0078250   1.0078250   1.0078250   1.0078250   1.0078250   1.0078250   1.0078250   1.0078250
 NucSpn=           1           1           1           1           1           1           1           1           1           1
 AtZEff=  -0.0000000  -0.0000000  -0.0000000  -0.0000000  -0.0000000  -0.0000000  -0.0000000  -0.0000000  -0.0000000  -0.0000000
 NQMom=    0.0000000   0.0000000   0.0000000   0.0000000   0.0000000   0.0000000   0.0000000   0.0000000   0.0000000   0.0000000
 NMagM=    2.7928460   2.7928460   2.7928460   2.7928460   2.7928460   2.7928460   2.7928460   2.7928460   2.7928460   2.7928460
 AtZNuc=   1.0000000   1.0000000   1.0000000   1.0000000   1.0000000   1.0000000   1.0000000   1.0000000   1.0000000   1.0000000
 Background charge distribution read from input stream:
 Point Charges:
 XYZ=    8.4516  -10.6356  -15.6859 Q=   -1.0322 A=    0.0000 R=    0.0000 C=    0.0000
 XYZ=    8.1250  -10.4069  -16.5562 Q=    0.4798 A=    0.0000 R=    0.0000 C=    0.0000
 XYZ=    9.2622  -11.1166  -15.8526 Q=    0.5341 A=    0.0000 R=    0.0000 C=    0.0000
 XYZ=    4.0391  -11.2243  -12.8044 Q=   -0.9921 A=    0.0000 R=    0.0000 C=    0.0000
 XYZ=    4.5248  -12.0476  -12.7552 Q=    0.4802 A=    0.0000 R=    0.0000 C=    0.0000
 XYZ=    4.4321  -10.7575  -13.5420 Q=    0.5046 A=    0.0000 R=    0.0000 C=    0.0000
 XYZ=    5.5848  -15.5922  -11.4699 Q=   -1.0129 A=    0.0000 R=    0.0000 C=    0.0000
 XYZ=    4.6785  -15.3483  -11.6582 Q=    0.5050 A=    0.0000 R=    0.0000 C=    0.0000
 XYZ=    6.0031  -14.7735  -11.2032 Q=    0.5257 A=    0.0000 R=    0.0000 C=    0.0000
 XYZ=    8.8013  -12.4259   -6.4973 Q=   -0.9852 A=    0.0000 R=    0.0000 C=    0.0000
 XYZ=    9.0556  -11.7490   -5.8701 Q=    0.5006 A=    0.0000 R=    0.0000 C=    0.0000
 XYZ=    8.9395  -13.2499   -6.0303 Q=    0.5083 A=    0.0000 R=    0.0000 C=    0.0000
 XYZ=   10.5523   -9.0602   -7.7657 Q=   -0.9799 A=    0.0000 R=    0.0000 C=    0.0000
 XYZ=   10.0296   -9.4526   -7.0665 Q=    0.5003 A=    0.0000 R=    0.0000 C=    0.0000
 XYZ=   10.0576   -8.2839   -8.0284 Q=    0.4937 A=    0.0000 R=    0.0000 C=    0.0000
 XYZ=    8.4919  -14.1596  -15.7110 Q=   -0.9823 A=    0.0000 R=    0.0000 C=    0.0000
 XYZ=    8.8439  -15.0437  -15.8144 Q=    0.4799 A=    0.0000 R=    0.0000 C=    0.0000
 XYZ=    8.9183  -13.8221  -14.9233 Q=    0.4950 A=    0.0000 R=    0.0000 C=    0.0000
 XYZ=   10.6752  -11.9252  -15.8192 Q=   -0.9837 A=    0.0000 R=    0.0000 C=    0.0000
 XYZ=   11.1454  -12.2597  -15.0555 Q=    0.5055 A=    0.0000 R=    0.0000 C=    0.0000
 XYZ=   10.7694  -12.6123  -16.4789 Q=    0.5125 A=    0.0000 R=    0.0000 C=    0.0000
 XYZ=    7.7593  -16.5050  -13.2460 Q=   -1.0112 A=    0.0000 R=    0.0000 C=    0.0000
 XYZ=    7.3079  -16.2111  -12.4547 Q=    0.4926 A=    0.0000 R=    0.0000 C=    0.0000
 XYZ=    8.5373  -15.9498  -13.2987 Q=    0.4973 A=    0.0000 R=    0.0000 C=    0.0000
 XYZ=   13.4576  -11.7733   -9.7740 Q=   -0.9993 A=    0.0000 R=    0.0000 C=    0.0000
 XYZ=   13.9089  -10.9962  -10.1037 Q=    0.5128 A=    0.0000 R=    0.0000 C=    0.0000
 XYZ=   14.1508  -12.4236   -9.6612 Q=    0.5076 A=    0.0000 R=    0.0000 C=    0.0000
 XYZ=    5.5914  -15.5335   -8.7002 Q=   -1.0162 A=    0.0000 R=    0.0000 C=    0.0000
 XYZ=    6.3093  -16.0707   -8.3652 Q=    0.4831 A=    0.0000 R=    0.0000 C=    0.0000
 XYZ=    5.4763  -15.8239   -9.6050 Q=    0.5237 A=    0.0000 R=    0.0000 C=    0.0000
 XYZ=    5.3398  -11.2122  -15.4745 Q=   -0.9760 A=    0.0000 R=    0.0000 C=    0.0000
 XYZ=    5.8801  -10.4587  -15.7120 Q=    0.4863 A=    0.0000 R=    0.0000 C=    0.0000
 XYZ=    5.4896  -11.8457  -16.1763 Q=    0.4965 A=    0.0000 R=    0.0000 C=    0.0000
 XYZ=   12.9960  -14.7139  -11.2100 Q=   -0.9778 A=    0.0000 R=    0.0000 C=    0.0000
 XYZ=   12.2864  -15.1619  -10.7497 Q=    0.5059 A=    0.0000 R=    0.0000 C=    0.0000
 XYZ=   13.6357  -14.5124  -10.5270 Q=    0.4638 A=    0.0000 R=    0.0000 C=    0.0000
 XYZ=    4.6413   -8.1383  -12.6711 Q=   -0.9897 A=    0.0000 R=    0.0000 C=    0.0000
 XYZ=    4.5978   -7.2720  -12.2662 Q=    0.4876 A=    0.0000 R=    0.0000 C=    0.0000
 XYZ=    5.5765   -8.3384  -12.7100 Q=    0.4969 A=    0.0000 R=    0.0000 C=    0.0000
 XYZ=    8.9611  -17.0167   -9.2755 Q=   -0.9921 A=    0.0000 R=    0.0000 C=    0.0000
 XYZ=    8.6736  -17.2191   -8.3852 Q=    0.5092 A=    0.0000 R=    0.0000 C=    0.0000
 XYZ=    8.3026  -17.4234   -9.8386 Q=    0.5103 A=    0.0000 R=    0.0000 C=    0.0000
 XYZ=   12.8900   -9.6906  -13.7511 Q=   -0.9984 A=    0.0000 R=    0.0000 C=    0.0000
 XYZ=   13.4884   -9.8459  -13.0204 Q=    0.4670 A=    0.0000 R=    0.0000 C=    0.0000
 XYZ=   12.0171   -9.7427  -13.3618 Q=    0.5160 A=    0.0000 R=    0.0000 C=    0.0000
 XYZ=    4.9070   -7.9100   -9.1300 Q=   -1.0105 A=    0.0000 R=    0.0000 C=    0.0000
 XYZ=    4.0635   -8.0265   -9.5674 Q=    0.4764 A=    0.0000 R=    0.0000 C=    0.0000
 XYZ=    5.4227   -8.6710   -9.3968 Q=    0.5176 A=    0.0000 R=    0.0000 C=    0.0000
 XYZ=    2.9547  -12.7024   -9.8757 Q=   -0.9915 A=    0.0000 R=    0.0000 C=    0.0000
 XYZ=    3.0641  -13.5048   -9.3654 Q=    0.5019 A=    0.0000 R=    0.0000 C=    0.0000
 XYZ=    2.7384  -12.0329   -9.2268 Q=    0.5105 A=    0.0000 R=    0.0000 C=    0.0000
 XYZ=    4.2108  -13.3306   -7.5546 Q=   -1.0293 A=    0.0000 R=    0.0000 C=    0.0000
 XYZ=    4.9638  -12.7453   -7.4735 Q=    0.4979 A=    0.0000 R=    0.0000 C=    0.0000
 XYZ=    4.5835  -14.1618   -7.8486 Q=    0.5197 A=    0.0000 R=    0.0000 C=    0.0000
 XYZ=    8.5389   -6.2611  -12.9484 Q=   -1.0019 A=    0.0000 R=    0.0000 C=    0.0000
 XYZ=    8.8800   -6.8491  -12.2745 Q=    0.5098 A=    0.0000 R=    0.0000 C=    0.0000
 XYZ=    9.2767   -6.1230  -13.5423 Q=    0.4773 A=    0.0000 R=    0.0000 C=    0.0000
 XYZ=   11.4715  -15.3553   -7.5180 Q=   -1.0197 A=    0.0000 R=    0.0000 C=    0.0000
 XYZ=   10.8644  -15.3558   -8.2581 Q=    0.4753 A=    0.0000 R=    0.0000 C=    0.0000
 XYZ=   11.9075  -14.5045   -7.5658 Q=    0.5146 A=    0.0000 R=    0.0000 C=    0.0000
 XYZ=   12.8138  -13.0185   -7.3663 Q=   -0.9959 A=    0.0000 R=    0.0000 C=    0.0000
 XYZ=   12.4819  -12.4171   -6.6996 Q=    0.4994 A=    0.0000 R=    0.0000 C=    0.0000
 XYZ=   12.6552  -12.5682   -8.1960 Q=    0.5110 A=    0.0000 R=    0.0000 C=    0.0000
 XYZ=   11.3245  -17.0116  -10.7628 Q=   -1.0019 A=    0.0000 R=    0.0000 C=    0.0000
 XYZ=   11.7165  -17.8633  -10.5702 Q=    0.4876 A=    0.0000 R=    0.0000 C=    0.0000
 XYZ=   10.4428  -17.0644  -10.3939 Q=    0.5095 A=    0.0000 R=    0.0000 C=    0.0000
 Pt Chg Charge=              0.0104 electrons
 Pt Chg Dipole moment (Debye):
    X=             11.7775    Y=             -5.3723    Z=              6.3092  Tot=             14.4006
 Pt Chg Quadrupole moment (Debye-Ang):
   XX=            159.5013   YY=            138.1586   ZZ=           -101.9997
   XY=           -147.1981   XZ=            -80.0175   YZ=            -20.9461
 Pt Chg Traceless Quadrupole moment (Debye-Ang):
   XX=             94.2813   YY=             72.9385   ZZ=           -167.2198
   XY=           -147.1981   XZ=            -80.0175   YZ=            -20.9461
 Pt Chg Octapole moment (Debye-Ang**2):
  XXX=           1955.7139  YYY=          -3025.8218  ZZZ=            965.1346  XYY=           2006.3684
  XXY=          -1675.7445  XXZ=          -1358.1370  XZZ=            731.7866  YZZ=            616.3497
  YYZ=           -462.4537  XYZ=           1152.7786
 Pt Chg Hexadecapole moment (Debye-Ang**3):
 XXXX=          26465.2325 YYYY=          63119.5836 ZZZZ=            495.3922 XXXY=         -18641.4489
 XXXZ=         -17865.8350 YYYX=         -31057.3456 YYYZ=          17108.2723 ZZZX=         -10860.6481
 ZZZY=          -4819.2652 XXYY=          18905.1212 XXZZ=          13640.7332 YYZZ=           -887.6960
 XXYZ=          16154.3603 YYXZ=         -17217.5857 ZZXY=         -12151.5603
 Leave Link  101 at Fri May 15 22:34:36 2020, MaxMem=   134217728 cpu:               0.8 elap:               0.2
 (Enter /home/soft/g16/l202.exe)
                          Input orientation:                          
 ---------------------------------------------------------------------
 Center     Atomic      Atomic             Coordinates (Angstroms)
 Number     Number       Type             X           Y           Z
 ---------------------------------------------------------------------
      1          8           0        8.392325  -11.812941  -11.200483
      2          8           0       10.706017  -10.848862  -10.091512
      3          8           0        8.693246  -14.069272   -9.547113
      4          8           0        7.250284   -9.859627  -13.103456
      5          8           0        5.570392  -12.760041  -10.733807
      6          8           0        6.966193   -9.247795  -10.274305
      7          8           0        6.942642  -11.829381   -8.371044
      8          8           0        9.739714  -14.560219  -13.084136
      9          8           0       10.084912   -9.602997  -13.694410
     10          8           0        9.473772   -7.997188  -10.918041
     11          1           0        8.175276  -12.537815  -10.614239
     12          1           0        9.252154  -11.514100  -10.904475
     13          1           0       11.521407  -11.320280   -9.920812
     14          1           0       10.567797  -10.316883   -9.307849
     15          1           0        8.220090  -13.732742   -8.786125
     16          1           0        8.552802  -15.015659   -9.517782
     17          1           0        7.120660  -10.221473  -13.980096
     18          1           0        7.341484  -10.626744  -12.538261
     19          1           0        4.642708  -12.827827  -10.507888
     20          1           0        5.983752  -12.405170   -9.946767
     21          1           0        6.975152   -9.845016  -11.022289
     22          1           0        7.684375   -8.638472  -10.445098
     23          1           0        7.495574  -12.091052   -7.634819
     24          1           0        7.307461  -10.992840   -8.659728
     25          1           0        9.436683  -13.920876  -12.439430
     26          1           0       10.652707  -14.322974  -13.246584
     27          1           0        9.837963   -9.877914  -14.577398
     28          1           0        9.267108   -9.628370  -13.197635
     29          1           0        9.997520   -8.795627  -10.851588
     30          1           0        9.623390   -7.542356  -10.089201
 ---------------------------------------------------------------------
                    Distance matrix (angstroms):
                    1          2          3          4          5
     1  O    0.000000
     2  O    2.740882   0.000000
     3  O    2.813399   3.836490   0.000000
     4  O    2.956518   4.689614   5.696563   0.000000
     5  O    3.012987   5.517227   3.588112   4.104836   0.000000
     6  O    3.077602   4.072237   5.172829   2.908460   3.807266
     7  O    3.179241   4.252578   3.076502   5.135202   2.886494
     8  O    3.593208   4.864536   3.721110   5.319135   5.113505
     9  O    3.737429   3.862489   6.251753   2.906923   6.254038
    10  O    3.976088   3.214595   6.273665   3.631614   6.160770
    11  H    0.957201   3.087144   1.937114   3.771538   2.617079
    12  H    0.957200   1.793647   2.946814   3.402981   3.890613
    13  H    3.416347   0.957201   3.961705   5.523153   6.176443
    14  H    3.248528   0.957201   4.201382   5.061779   5.742511
    15  H    3.089405   4.025001   0.957200   5.880552   3.429360
    16  H    3.621414   4.725219   0.957201   6.413913   3.932086
    17  H    3.446179   5.326301   6.076999   0.957200   4.402959
    18  H    2.073880   4.166053   4.756598   0.957200   3.308138
    19  H    3.945796   6.391665   4.344092   4.727223   0.957200
    20  H    2.779166   4.974217   3.204733   4.248362   0.957200
    21  H    2.431638   3.974092   4.792946   2.099325   3.248683
    22  H    3.339020   3.760474   5.596230   2.957452   4.641078
    23  H    3.687203   4.229104   3.000773   5.911465   3.709124
    24  H    2.881828   3.690653   3.488880   4.586301   3.231441
    25  H    2.658771   4.069545   2.990020   4.659937   4.382339
    26  H    3.949193   4.693269   4.194036   5.614128   5.881049
    27  H    4.151837   4.671127   6.646926   2.978074   6.425886
    28  H    3.086456   3.634289   5.777304   2.032223   5.435395
    29  H    3.435486   2.301186   5.586960   3.708141   5.943897
    30  H    4.581306   3.479234   6.615108   4.481865   6.638264
                    6          7          8          9         10
     6  O    0.000000
     7  O    3.207420   0.000000
     8  O    6.618868   6.123261   0.000000
     9  O    4.642165   6.570302   5.006560   0.000000
    10  O    2.875129   5.251620   6.916362   3.265018   0.000000
    11  H    3.521600   2.655784   3.554993   4.663402   4.732408
    12  H    3.280072   3.442604   3.777231   3.482749   3.523914
    13  H    5.016984   4.860664   4.866031   4.387781   4.028674
    14  H    3.879244   4.038193   5.740380   4.470428   3.028299
    15  H    4.888935   2.329581   4.633236   6.680091   6.246068
    16  H    6.029752   3.749665   3.786168   7.006318   7.215805
    17  H    3.834683   5.837681   5.146543   3.041532   4.456541
    18  H    2.677282   4.355584   4.639150   3.148196   3.753176
    19  H    4.274315   3.294343   5.968057   7.083152   6.844156
    20  H    3.322874   1.932332   5.347389   6.222260   5.705604
    21  H    0.957201   3.311776   5.841845   4.107239   3.109411
    22  H    0.957199   3.877340   6.801178   4.153422   1.958791
    23  H    3.915513   0.957200   6.389680   7.043702   5.608256
    24  H    2.401771   0.957200   6.182025   5.915566   4.332068
    25  H    5.712160   5.210217   0.957201   4.543045   6.116051
    26  H    6.941345   6.614641   0.957199   4.775052   6.843067
    27  H    5.211595   7.121091   4.915635   0.957200   4.130455
    28  H    3.739640   5.791681   4.955741   0.957200   2.810696
    29  H    3.118759   4.968807   6.187185   2.956539   0.957201
    30  H    3.162828   5.340136   7.631092   4.178131   0.957201
                   11         12         13         14         15
    11  H    0.000000
    12  H    1.513901   0.000000
    13  H    3.627647   2.480860   0.000000
    14  H    3.516156   2.390284   1.513903   0.000000
    15  H    2.184459   3.236500   4.243369   4.177561   0.000000
    16  H    2.735773   3.830526   4.757192   5.116910   1.513901
    17  H    4.219792   3.958989   6.087014   5.807043   6.365147
    18  H    2.837122   2.665955   4.980340   4.576098   4.949515
    19  H    3.546048   4.809382   7.066389   6.546114   4.071978
    20  H    2.294753   3.520463   5.642985   5.077660   2.847937
    21  H    2.976234   2.825679   4.904905   4.008623   4.654537
    22  H    3.933760   3.307294   4.710603   3.524843   5.384308
    23  H    3.088452   3.756208   4.693313   3.922405   2.132035
    24  H    2.638212   3.015366   4.410770   3.392163   2.890663
    25  H    2.614446   2.860543   4.177632   4.906627   3.855143
    26  H    4.031587   3.916222   4.564162   5.618684   5.114850
    27  H    5.054328   4.063329   5.157344   5.337930   7.142552
    28  H    4.041151   2.968970   4.322267   4.158879   6.115843
    29  H    4.169038   2.819302   3.092321   2.241108   5.639193
    30  H    5.227553   4.071515   4.231257   3.033219   6.479825
                   16         17         18         19         20
    16  H    0.000000
    17  H    6.704289   0.000000
    18  H    5.463804   1.513901   0.000000
    19  H    4.588655   4.998955   4.031200   0.000000
    20  H    3.687641   4.725340   3.423752   1.513901   0.000000
    21  H    5.611423   2.985216   1.744554   3.821265   2.948561
    22  H    6.502507   3.914062   2.907255   5.177487   4.162747
    23  H    3.635465   6.625589   5.119735   4.115362   2.780176
    24  H    4.297697   5.379239   3.895921   3.726095   2.324511
    25  H    3.242811   4.628520   3.905244   5.282784   4.520339
    26  H    4.335133   5.462207   5.012787   6.771706   6.030415
    27  H    7.324464   2.803308   3.309265   7.228663   6.533354
    28  H    6.563112   2.360351   2.267058   6.233485   5.390657
    29  H    6.523423   4.482959   3.640382   6.711988   5.473375
    30  H    7.571191   5.346063   4.551751   7.274524   6.075707
                   21         22         23         24         25
    21  H    0.000000
    22  H    1.513901   0.000000
    23  H    4.097618   4.455740   0.000000
    24  H    2.647569   2.978701   1.513900   0.000000
    25  H    4.967903   5.911999   5.495493   5.233845   0.000000
    26  H    6.206771   6.998063   6.814754   6.581771   1.513901
    27  H    4.564600   4.821832   7.654030   6.531869   4.591021
    28  H    3.167353   3.325869   6.336249   5.127826   4.362252
    29  H    3.203914   2.353842   5.240912   4.107117   5.394808
    30  H    3.631262   2.255640   5.589475   4.394629   6.800291
                   26         27         28         29         30
    26  H    0.000000
    27  H    4.710991   0.000000
    28  H    4.895057   1.513900   0.000000
    29  H    6.059442   3.883100   2.594398   0.000000
    30  H    7.550188   5.064068   3.760419   1.513901   0.000000
 Symmetry turned off by external request.
 Stoichiometry    H20O10
 Framework group  C1[X(H20O10)]
 Deg. of freedom    84
 Full point group                 C1      NOp   1
 Rotational constants (GHZ):           0.5659882           0.4519188           0.3747191
 Leave Link  202 at Fri May 15 22:34:36 2020, MaxMem=   134217728 cpu:               0.1 elap:               0.0
 (Enter /home/soft/g16/l301.exe)
 Standard basis: 6-31G(d,p) (5D, 7F)
 Ernie: Thresh=  0.10000D-02 Tol=  0.10000D-05 Strict=F.
   240 basis functions,   420 primitive gaussians,   250 cartesian basis functions
    50 alpha electrons       50 beta electrons
       nuclear repulsion energy       684.8330089644 Hartrees.
 IExCor=    0 DFT=F Ex=HF Corr=None ExCW=0 ScaHFX=  1.000000
 ScaDFX=  1.000000  1.000000  1.000000  1.000000 ScalE2=  1.000000  1.000000
 IRadAn=      5 IRanWt=     -1 IRanGd=            0 ICorTp=0 IEmpDi=  4
 NAtoms=   30 NActive=   30 NUniq=   30 SFac= 1.00D+00 NAtFMM=   60 NAOKFM=F Big=F
 Integral buffers will be    131072 words long.
 Raffenetti 1 integral format.
 Two-electron integral symmetry is turned off.
 Background charge distribution read from rwf.
 PtFMM for NChg=        96 BoxLen=    40.00 Levels= 1 LMax=20 SMax=    22.2 ICnFMM=     1:
 Self energy of the charges =       -10.3721921101 a.u.
 MM   energy of the charges =         0.0000000000 a.u.
 Nuclei-charges interaction =         1.6740833940 a.u.
 Nuclear repulsion after external point charges =      676.1349002483 Hartrees.
 Leave Link  301 at Fri May 15 22:34:36 2020, MaxMem=   134217728 cpu:               0.3 elap:               0.1
 (Enter /home/soft/g16/l302.exe)
 NPDir=0 NMtPBC=     1 NCelOv=     1 NCel=       1 NClECP=     1 NCelD=      1
         NCelK=      1 NCelE2=     1 NClLst=     1 CellRange=     0.0.
 One-electron integrals computed using PRISM.
 NBasis=   240 RedAO= T EigKep=  2.04D-02  NBF=   240
 NBsUse=   240 1.00D-06 EigRej= -1.00D+00 NBFU=   240
 Leave Link  302 at Fri May 15 22:34:36 2020, MaxMem=   134217728 cpu:               0.8 elap:               0.2
 (Enter /home/soft/g16/l303.exe)
 DipDrv:  MaxL=1.
 Leave Link  303 at Fri May 15 22:34:36 2020, MaxMem=   134217728 cpu:               0.2 elap:               0.1
 (Enter /home/soft/g16/l401.exe)
 ExpMin= 1.61D-01 ExpMax= 5.48D+03 ExpMxC= 8.25D+02 IAcc=3 IRadAn=         5 AccDes= 0.00D+00
 Harris functional with IExCor=  205 and IRadAn=       5 diagonalized for initial guess.
 HarFok:  IExCor=  205 AccDes= 0.00D+00 IRadAn=         5 IDoV= 1 UseB2=F ITyADJ=14
 ICtDFT=  3500011 ScaDFX=  1.000000  1.000000  1.000000  1.000000
 FoFCou: FMM=F IPFlag=           0 FMFlag=      100000 FMFlg1=           0
         NFxFlg=           0 DoJE=T BraDBF=F KetDBF=T FulRan=T
         wScrn=  0.000000 ICntrl=       500 IOpCl=  0 I1Cent=   200000004 NGrid=           0
         NMat0=    1 NMatS0=      1 NMatT0=    0 NMatD0=    1 NMtDS0=    0 NMtDT0=    0
 Symmetry not used in FoFCou.
 Harris En= -771.728069928967    
 JPrj=0 DoOrth=F DoCkMO=F.
 Leave Link  401 at Fri May 15 22:34:38 2020, MaxMem=   134217728 cpu:               7.4 elap:               1.9
 (Enter /home/soft/g16/l502.exe)
 Two-electron integral symmetry not used.
 Closed shell SCF:
 Using DIIS extrapolation, IDIIS=  1040.
 NGot=   134217728 LenX=   134088996 LenY=   134026055
 Requested convergence on RMS density matrix=1.00D-08 within 128 cycles.
 Requested convergence on MAX density matrix=1.00D-06.
 Requested convergence on             energy=1.00D-06.
 No special actions if energy rises.
 Fock matrices will be formed incrementally for  20 cycles.
 Integral accuracy reduced to 1.0D-05 until final iterations.

 Cycle   1  Pass 0  IDiag  1:
 FoFJK:  IHMeth= 1 ICntrl=       0 DoSepK=F KAlg= 0 I1Cent=           0 FoldK=F
 IRaf= 820000000 NMat=       1 IRICut=       1 DoRegI=T DoRafI=F ISym2E= 0 IDoP0=0 IntGTp=1.
 FoFCou: FMM=F IPFlag=           0 FMFlag=      100000 FMFlg1=           0
         NFxFlg=           0 DoJE=F BraDBF=F KetDBF=F FulRan=T
         wScrn=  0.000000 ICntrl=         0 IOpCl=  0 I1Cent=           0 NGrid=           0
         NMat0=    1 NMatS0=      1 NMatT0=    0 NMatD0=    1 NMtDS0=    0 NMtDT0=    0
 Symmetry not used in FoFCou.
 E= -770.076554904192    
 DIIS: error= 4.58D-02 at cycle   1 NSaved=   1.
 NSaved= 1 IEnMin= 1 EnMin= -770.076554904192     IErMin= 1 ErrMin= 4.58D-02
 ErrMax= 4.58D-02  0.00D+00 EMaxC= 1.00D-01 BMatC= 1.12D+00 BMatP= 1.12D+00
 IDIUse=3 WtCom= 5.42D-01 WtEn= 4.58D-01
 Coeff-Com:  0.100D+01
 Coeff-En:   0.100D+01
 Coeff:      0.100D+01
 Gap=     0.548 Goal=   None    Shift=    0.000
 GapD=    0.548 DampG=2.000 DampE=0.500 DampFc=1.0000 IDamp=-1.
 RMSDP=3.57D-03 MaxDP=1.24D-01              OVMax= 1.23D-01

 Cycle   2  Pass 0  IDiag  1:
 RMSU=  3.50D-03    CP:  9.66D-01
 E= -770.594953271129     Delta-E=       -0.518398366937 Rises=F Damp=F
 DIIS: error= 3.01D-02 at cycle   2 NSaved=   2.
 NSaved= 2 IEnMin= 2 EnMin= -770.594953271129     IErMin= 2 ErrMin= 3.01D-02
 ErrMax= 3.01D-02  0.00D+00 EMaxC= 1.00D-01 BMatC= 3.23D-01 BMatP= 1.12D+00
 IDIUse=3 WtCom= 6.99D-01 WtEn= 3.01D-01
 Coeff-Com:  0.335D+00 0.665D+00
 Coeff-En:   0.567D-01 0.943D+00
 Coeff:      0.252D+00 0.748D+00
 Gap=     0.614 Goal=   None    Shift=    0.000
 RMSDP=1.63D-03 MaxDP=5.36D-02 DE=-5.18D-01 OVMax= 4.61D-02

 Cycle   3  Pass 0  IDiag  1:
 RMSU=  6.23D-04    CP:  9.79D-01  5.77D-01
 E= -770.809139511263     Delta-E=       -0.214186240134 Rises=F Damp=F
 DIIS: error= 4.69D-03 at cycle   3 NSaved=   3.
 NSaved= 3 IEnMin= 3 EnMin= -770.809139511263     IErMin= 3 ErrMin= 4.69D-03
 ErrMax= 4.69D-03  0.00D+00 EMaxC= 1.00D-01 BMatC= 1.03D-02 BMatP= 3.23D-01
 IDIUse=3 WtCom= 9.53D-01 WtEn= 4.69D-02
 Coeff-Com: -0.323D-01 0.108D+00 0.925D+00
 Coeff-En:   0.000D+00 0.000D+00 0.100D+01
 Coeff:     -0.308D-01 0.102D+00 0.928D+00
 Gap=     0.598 Goal=   None    Shift=    0.000
 RMSDP=2.47D-04 MaxDP=8.91D-03 DE=-2.14D-01 OVMax= 9.65D-03

 Cycle   4  Pass 0  IDiag  1:
 RMSU=  7.51D-05    CP:  9.77D-01  6.42D-01  1.07D+00
 E= -770.816929429531     Delta-E=       -0.007789918267 Rises=F Damp=F
 DIIS: error= 5.11D-04 at cycle   4 NSaved=   4.
 NSaved= 4 IEnMin= 4 EnMin= -770.816929429531     IErMin= 4 ErrMin= 5.11D-04
 ErrMax= 5.11D-04  0.00D+00 EMaxC= 1.00D-01 BMatC= 7.10D-05 BMatP= 1.03D-02
 IDIUse=3 WtCom= 9.95D-01 WtEn= 5.11D-03
 Coeff-Com:  0.489D-02-0.408D-01-0.240D+00 0.128D+01
 Coeff-En:   0.000D+00 0.000D+00 0.000D+00 0.100D+01
 Coeff:      0.486D-02-0.406D-01-0.239D+00 0.127D+01
 Gap=     0.599 Goal=   None    Shift=    0.000
 RMSDP=5.84D-05 MaxDP=1.57D-03 DE=-7.79D-03 OVMax= 2.39D-03

 Cycle   5  Pass 0  IDiag  1:
 RMSU=  2.28D-05    CP:  9.77D-01  6.41D-01  1.14D+00  1.46D+00
 E= -770.817066675294     Delta-E=       -0.000137245763 Rises=F Damp=F
 DIIS: error= 1.23D-04 at cycle   5 NSaved=   5.
 NSaved= 5 IEnMin= 5 EnMin= -770.817066675294     IErMin= 5 ErrMin= 1.23D-04
 ErrMax= 1.23D-04  0.00D+00 EMaxC= 1.00D-01 BMatC= 6.15D-06 BMatP= 7.10D-05
 IDIUse=3 WtCom= 9.99D-01 WtEn= 1.23D-03
 Coeff-Com:  0.256D-02-0.135D-01-0.915D-01 0.232D+00 0.870D+00
 Coeff-En:   0.000D+00 0.000D+00 0.000D+00 0.000D+00 0.100D+01
 Coeff:      0.256D-02-0.135D-01-0.914D-01 0.232D+00 0.870D+00
 Gap=     0.600 Goal=   None    Shift=    0.000
 RMSDP=1.30D-05 MaxDP=4.01D-04 DE=-1.37D-04 OVMax= 5.64D-04

 Cycle   6  Pass 0  IDiag  1:
 RMSU=  7.23D-06    CP:  9.77D-01  6.41D-01  1.14D+00  1.59D+00  1.08D+00
 E= -770.817075242598     Delta-E=       -0.000008567304 Rises=F Damp=F
 DIIS: error= 4.70D-05 at cycle   6 NSaved=   6.
 NSaved= 6 IEnMin= 6 EnMin= -770.817075242598     IErMin= 6 ErrMin= 4.70D-05
 ErrMax= 4.70D-05  0.00D+00 EMaxC= 1.00D-01 BMatC= 6.44D-07 BMatP= 6.15D-06
 IDIUse=1 WtCom= 1.00D+00 WtEn= 0.00D+00
 Coeff-Com: -0.216D-03 0.290D-02 0.169D-01-0.125D+00 0.955D-01 0.101D+01
 Coeff:     -0.216D-03 0.290D-02 0.169D-01-0.125D+00 0.955D-01 0.101D+01
 Gap=     0.600 Goal=   None    Shift=    0.000
 RMSDP=5.29D-06 MaxDP=1.72D-04 DE=-8.57D-06 OVMax= 2.49D-04

 Initial convergence to 1.0D-05 achieved.  Increase integral accuracy.
 Cycle   7  Pass 1  IDiag  1:
 E= -770.817083615728     Delta-E=       -0.000008373130 Rises=F Damp=F
 DIIS: error= 8.07D-06 at cycle   1 NSaved=   1.
 NSaved= 1 IEnMin= 1 EnMin= -770.817083615728     IErMin= 1 ErrMin= 8.07D-06
 ErrMax= 8.07D-06  0.00D+00 EMaxC= 1.00D-01 BMatC= 2.75D-08 BMatP= 2.75D-08
 IDIUse=1 WtCom= 1.00D+00 WtEn= 0.00D+00
 Coeff-Com:  0.100D+01
 Coeff:      0.100D+01
 Gap=     0.600 Goal=   None    Shift=    0.000
 RMSDP=5.29D-06 MaxDP=1.72D-04 DE=-8.37D-06 OVMax= 3.57D-05

 Cycle   8  Pass 1  IDiag  1:
 RMSU=  9.85D-07    CP:  1.00D+00
 E= -770.817083658040     Delta-E=       -0.000000042312 Rises=F Damp=F
 DIIS: error= 2.21D-06 at cycle   2 NSaved=   2.
 NSaved= 2 IEnMin= 2 EnMin= -770.817083658040     IErMin= 2 ErrMin= 2.21D-06
 ErrMax= 2.21D-06  0.00D+00 EMaxC= 1.00D-01 BMatC= 4.10D-09 BMatP= 2.75D-08
 IDIUse=1 WtCom= 1.00D+00 WtEn= 0.00D+00
 Coeff-Com: -0.282D-01 0.103D+01
 Coeff:     -0.282D-01 0.103D+01
 Gap=     0.600 Goal=   None    Shift=    0.000
 RMSDP=3.59D-07 MaxDP=1.22D-05 DE=-4.23D-08 OVMax= 1.86D-05

 Cycle   9  Pass 1  IDiag  1:
 RMSU=  2.56D-07    CP:  1.00D+00  1.26D+00
 E= -770.817083665141     Delta-E=       -0.000000007101 Rises=F Damp=F
 DIIS: error= 1.70D-06 at cycle   3 NSaved=   3.
 NSaved= 3 IEnMin= 3 EnMin= -770.817083665141     IErMin= 3 ErrMin= 1.70D-06
 ErrMax= 1.70D-06  0.00D+00 EMaxC= 1.00D-01 BMatC= 1.02D-09 BMatP= 4.10D-09
 IDIUse=1 WtCom= 1.00D+00 WtEn= 0.00D+00
 Coeff-Com: -0.166D+00 0.193D+00 0.972D+00
 Coeff:     -0.166D+00 0.193D+00 0.972D+00
 Gap=     0.600 Goal=   None    Shift=    0.000
 RMSDP=2.01D-07 MaxDP=6.59D-06 DE=-7.10D-09 OVMax= 9.72D-06

 Cycle  10  Pass 1  IDiag  1:
 RMSU=  1.00D-07    CP:  1.00D+00  1.42D+00  1.19D+00
 E= -770.817083666852     Delta-E=       -0.000000001710 Rises=F Damp=F
 DIIS: error= 2.68D-07 at cycle   4 NSaved=   4.
 NSaved= 4 IEnMin= 4 EnMin= -770.817083666852     IErMin= 4 ErrMin= 2.68D-07
 ErrMax= 2.68D-07  0.00D+00 EMaxC= 1.00D-01 BMatC= 4.63D-11 BMatP= 1.02D-09
 IDIUse=1 WtCom= 1.00D+00 WtEn= 0.00D+00
 Coeff-Com:  0.565D-02-0.106D+00-0.144D-01 0.111D+01
 Coeff:      0.565D-02-0.106D+00-0.144D-01 0.111D+01
 Gap=     0.600 Goal=   None    Shift=    0.000
 RMSDP=5.82D-08 MaxDP=1.78D-06 DE=-1.71D-09 OVMax= 3.03D-06

 Cycle  11  Pass 1  IDiag  1:
 RMSU=  1.45D-08    CP:  1.00D+00  1.46D+00  1.33D+00  1.21D+00
 E= -770.817083666943     Delta-E=       -0.000000000091 Rises=F Damp=F
 DIIS: error= 3.75D-08 at cycle   5 NSaved=   5.
 NSaved= 5 IEnMin= 5 EnMin= -770.817083666943     IErMin= 5 ErrMin= 3.75D-08
 ErrMax= 3.75D-08  0.00D+00 EMaxC= 1.00D-01 BMatC= 1.17D-12 BMatP= 4.63D-11
 IDIUse=1 WtCom= 1.00D+00 WtEn= 0.00D+00
 Coeff-Com:  0.497D-02-0.189D-02-0.289D-01-0.436D-01 0.107D+01
 Coeff:      0.497D-02-0.189D-02-0.289D-01-0.436D-01 0.107D+01
 Gap=     0.600 Goal=   None    Shift=    0.000
 RMSDP=7.77D-09 MaxDP=2.52D-07 DE=-9.14D-11 OVMax= 3.86D-07

 SCF Done:  E(RHF) =  -770.817083667     A.U. after   11 cycles
            NFock= 11  Conv=0.78D-08     -V/T= 2.0154
 KE= 7.590927921078D+02 PE=-3.178472444199D+03 EE= 9.724276681759D+02
 Leave Link  502 at Fri May 15 22:34:44 2020, MaxMem=   134217728 cpu:              24.5 elap:               6.2
 (Enter /home/soft/g16/l601.exe)
 Copying SCF densities to generalized density rwf, IOpCl= 0 IROHF=0.

 **********************************************************************

            Population analysis using the SCF density.

 **********************************************************************

 Alpha  occ. eigenvalues --  -20.61380 -20.61284 -20.60293 -20.59229 -20.58483
 Alpha  occ. eigenvalues --  -20.54115 -20.53928 -20.53312 -20.52383 -20.51155
 Alpha  occ. eigenvalues --   -1.40035  -1.39544  -1.38897  -1.37686  -1.36691
 Alpha  occ. eigenvalues --   -1.33312  -1.32500  -1.31644  -1.30893  -1.29458
 Alpha  occ. eigenvalues --   -0.76497  -0.75442  -0.75081  -0.73827  -0.72878
 Alpha  occ. eigenvalues --   -0.71268  -0.70759  -0.67945  -0.67629  -0.66080
 Alpha  occ. eigenvalues --   -0.63787  -0.63142  -0.61213  -0.60961  -0.60631
 Alpha  occ. eigenvalues --   -0.57958  -0.57343  -0.55324  -0.54732  -0.54451
 Alpha  occ. eigenvalues --   -0.54365  -0.53663  -0.53205  -0.52739  -0.52717
 Alpha  occ. eigenvalues --   -0.49405  -0.47543  -0.46982  -0.46746  -0.45684
 Alpha virt. eigenvalues --    0.14359   0.17463   0.21127   0.21727   0.23742
 Alpha virt. eigenvalues --    0.25418   0.29308   0.30226   0.31200   0.31571
 Alpha virt. eigenvalues --    0.32380   0.33916   0.36614   0.37817   0.38635
 Alpha virt. eigenvalues --    0.42600   0.42957   0.45398   0.47836   0.49478
 Alpha virt. eigenvalues --    0.91339   0.93660   0.94710   0.96078   0.98467
 Alpha virt. eigenvalues --    1.00451   1.00925   1.04017   1.04687   1.05703
 Alpha virt. eigenvalues --    1.05912   1.06925   1.07513   1.08281   1.09327
 Alpha virt. eigenvalues --    1.10189   1.10812   1.11465   1.12138   1.13496
 Alpha virt. eigenvalues --    1.13857   1.14176   1.14953   1.16787   1.17006
 Alpha virt. eigenvalues --    1.17812   1.18468   1.20369   1.20552   1.21241
 Alpha virt. eigenvalues --    1.22786   1.23808   1.25022   1.26944   1.28119
 Alpha virt. eigenvalues --    1.28847   1.30780   1.31359   1.31867   1.32586
 Alpha virt. eigenvalues --    1.35101   1.36564   1.37686   1.38231   1.40991
 Alpha virt. eigenvalues --    1.42292   1.44030   1.44426   1.48137   1.52932
 Alpha virt. eigenvalues --    1.56332   1.62013   1.64413   1.65994   1.67999
 Alpha virt. eigenvalues --    1.69131   1.72829   1.75305   1.76476   1.76585
 Alpha virt. eigenvalues --    1.77000   1.77692   1.78021   1.79161   1.79936
 Alpha virt. eigenvalues --    1.80808   1.81504   1.82536   1.83202   1.83467
 Alpha virt. eigenvalues --    1.84084   1.84214   1.84704   1.85198   1.87359
 Alpha virt. eigenvalues --    1.87795   1.88852   1.89392   1.90315   1.92285
 Alpha virt. eigenvalues --    1.94260   1.95626   1.96260   1.97986   1.99127
 Alpha virt. eigenvalues --    2.02380   2.03407   2.07969   2.09715   2.15594
 Alpha virt. eigenvalues --    2.51302   2.52569   2.52840   2.54499   2.54931
 Alpha virt. eigenvalues --    2.55589   2.55731   2.56100   2.57058   2.57245
 Alpha virt. eigenvalues --    2.58708   2.60537   2.62882   2.63848   2.64133
 Alpha virt. eigenvalues --    2.66046   2.68027   2.69565   2.73081   2.74052
 Alpha virt. eigenvalues --    2.76808   2.78359   2.79437   2.80134   2.81778
 Alpha virt. eigenvalues --    2.83818   2.87680   2.88610   2.90096   2.91828
 Alpha virt. eigenvalues --    2.92119   2.94144   2.94859   2.94933   2.95593
 Alpha virt. eigenvalues --    2.95668   2.96990   2.97111   2.98943   3.00118
 Alpha virt. eigenvalues --    3.01379   3.02597   3.03229   3.03648   3.03907
 Alpha virt. eigenvalues --    3.04191   3.04607   3.07065   3.08571   3.09696
 Alpha virt. eigenvalues --    3.33606   3.34554   3.35437   3.35666   3.37386
 Alpha virt. eigenvalues --    3.41925   3.42477   3.43386   3.45701   3.46760
 Alpha virt. eigenvalues --    3.72602   3.73370   3.73833   3.75304   3.78372
 Alpha virt. eigenvalues --    3.80412   3.82774   3.84504   3.87022   3.89022
 Alpha virt. eigenvalues --    3.90951   3.92531   3.93667   3.94771   3.97189
 Alpha virt. eigenvalues --    4.00579   4.01621   4.03985   4.07928   4.11153
          Condensed to atoms (all electrons):
               1          2          3          4          5          6
     1  O    8.175121  -0.016081  -0.010470  -0.006352  -0.001341  -0.002696
     2  O   -0.016081   8.100612  -0.000015  -0.000002   0.000000  -0.000040
     3  O   -0.010470  -0.000015   8.105488  -0.000000  -0.000199  -0.000000
     4  O   -0.006352  -0.000002  -0.000000   8.120725  -0.000077  -0.004741
     5  O   -0.001341   0.000000  -0.000199  -0.000077   8.194205  -0.000160
     6  O   -0.002696  -0.000040  -0.000000  -0.004741  -0.000160   8.166337
     7  O   -0.001548  -0.000024  -0.004197  -0.000000  -0.008534  -0.003376
     8  O   -0.001255  -0.000001  -0.000146   0.000000   0.000000  -0.000000
     9  O   -0.000182  -0.000043  -0.000000  -0.010660   0.000000  -0.000001
    10  O   -0.000051  -0.002898  -0.000000  -0.000055  -0.000000  -0.011533
    11  H    0.304920   0.001242   0.016327   0.000150   0.003088   0.000021
    12  H    0.305080   0.016453   0.000816   0.000322   0.000040   0.000939
    13  H    0.000515   0.313187   0.000055   0.000000   0.000000  -0.000000
    14  H    0.000746   0.307232   0.000005   0.000000   0.000000   0.000078
    15  H    0.000576   0.000032   0.298456   0.000000   0.000208   0.000001
    16  H    0.000399   0.000003   0.311008   0.000000   0.000039   0.000000
    17  H    0.000118  -0.000000   0.000000   0.312402  -0.000012   0.000229
    18  H    0.013884   0.000013   0.000003   0.293976   0.001120   0.000037
    19  H    0.000066   0.000000   0.000003   0.000002   0.315308   0.000003
    20  H    0.000791  -0.000001   0.000904   0.000005   0.306377   0.000351
    21  H    0.007579   0.000010  -0.000000   0.010540   0.001436   0.311962
    22  H    0.000381   0.000018   0.000000   0.000956  -0.000003   0.312850
    23  H    0.000076   0.000005   0.000072   0.000000   0.000266  -0.000042
    24  H    0.002946   0.000180   0.000202   0.000000   0.000471   0.019583
    25  H    0.013253   0.000016   0.002088  -0.000002  -0.000003   0.000000
    26  H   -0.000073   0.000000  -0.000005   0.000000   0.000000  -0.000000
    27  H    0.000001   0.000003  -0.000000   0.001200   0.000000   0.000000
    28  H    0.001075   0.000058   0.000000   0.030058  -0.000000  -0.000013
    29  H    0.000197   0.015634   0.000000  -0.000028  -0.000000   0.001144
    30  H   -0.000000   0.000022  -0.000000   0.000007   0.000000   0.000781
               7          8          9         10         11         12
     1  O   -0.001548  -0.001255  -0.000182  -0.000051   0.304920   0.305080
     2  O   -0.000024  -0.000001  -0.000043  -0.002898   0.001242   0.016453
     3  O   -0.004197  -0.000146  -0.000000  -0.000000   0.016327   0.000816
     4  O   -0.000000   0.000000  -0.010660  -0.000055   0.000150   0.000322
     5  O   -0.008534   0.000000   0.000000  -0.000000   0.003088   0.000040
     6  O   -0.003376  -0.000000  -0.000001  -0.011533   0.000021   0.000939
     7  O    8.134078   0.000000  -0.000000  -0.000000   0.003637   0.000309
     8  O    0.000000   8.132883  -0.000000  -0.000000   0.000080   0.000077
     9  O   -0.000000  -0.000000   8.177025  -0.000221  -0.000001   0.000738
    10  O   -0.000000  -0.000000  -0.000221   8.078873  -0.000001   0.000158
    11  H    0.003637   0.000080  -0.000001  -0.000001   0.309384  -0.022769
    12  H    0.000309   0.000077   0.000738   0.000158  -0.022769   0.306061
    13  H   -0.000000   0.000000   0.000003   0.000062  -0.000037  -0.000676
    14  H    0.000037   0.000000  -0.000005   0.001370  -0.000008  -0.001484
    15  H    0.013994   0.000007   0.000000   0.000000  -0.002341   0.000053
    16  H    0.000009   0.000142   0.000000   0.000000  -0.000241  -0.000017
    17  H    0.000000   0.000000   0.001083   0.000003  -0.000008   0.000003
    18  H   -0.000003  -0.000001   0.000831   0.000013  -0.000370  -0.000599
    19  H    0.000323   0.000000  -0.000000  -0.000000  -0.000088  -0.000002
    20  H    0.015474  -0.000000   0.000000   0.000000  -0.000926  -0.000051
    21  H    0.000183   0.000000  -0.000001   0.000388  -0.000178  -0.000221
    22  H    0.000063   0.000000  -0.000018   0.027171   0.000005   0.000017
    23  H    0.308732  -0.000000   0.000000   0.000000  -0.000155  -0.000001
    24  H    0.299110   0.000000   0.000000   0.000002  -0.000131   0.000186
    25  H   -0.000000   0.306509   0.000002   0.000000  -0.000258   0.000151
    26  H    0.000000   0.318849   0.000002   0.000000   0.000000   0.000025
    27  H    0.000000   0.000001   0.322377   0.000020   0.000000  -0.000010
    28  H    0.000000  -0.000000   0.307034   0.001237  -0.000010   0.000099
    29  H   -0.000001   0.000000   0.001757   0.306571  -0.000004   0.000202
    30  H   -0.000000   0.000000   0.000031   0.305910   0.000000  -0.000011
              13         14         15         16         17         18
     1  O    0.000515   0.000746   0.000576   0.000399   0.000118   0.013884
     2  O    0.313187   0.307232   0.000032   0.000003  -0.000000   0.000013
     3  O    0.000055   0.000005   0.298456   0.311008   0.000000   0.000003
     4  O    0.000000   0.000000   0.000000   0.000000   0.312402   0.293976
     5  O    0.000000   0.000000   0.000208   0.000039  -0.000012   0.001120
     6  O   -0.000000   0.000078   0.000001   0.000000   0.000229   0.000037
     7  O   -0.000000   0.000037   0.013994   0.000009   0.000000  -0.000003
     8  O    0.000000   0.000000   0.000007   0.000142   0.000000  -0.000001
     9  O    0.000003  -0.000005   0.000000   0.000000   0.001083   0.000831
    10  O    0.000062   0.001370   0.000000   0.000000   0.000003   0.000013
    11  H   -0.000037  -0.000008  -0.002341  -0.000241  -0.000008  -0.000370
    12  H   -0.000676  -0.001484   0.000053  -0.000017   0.000003  -0.000599
    13  H    0.308355  -0.016781  -0.000003  -0.000001  -0.000000  -0.000001
    14  H   -0.016781   0.328701   0.000003  -0.000000  -0.000000  -0.000002
    15  H   -0.000003   0.000003   0.350317  -0.018945  -0.000000  -0.000001
    16  H   -0.000001  -0.000000  -0.018945   0.341417  -0.000000  -0.000000
    17  H   -0.000000  -0.000000  -0.000000  -0.000000   0.314542  -0.015486
    18  H   -0.000001  -0.000002  -0.000001  -0.000000  -0.015486   0.329508
    19  H   -0.000000  -0.000000   0.000006  -0.000000   0.000000  -0.000018
    20  H    0.000000  -0.000001   0.000110   0.000005   0.000002  -0.000063
    21  H    0.000000  -0.000003  -0.000002  -0.000000  -0.000372  -0.001298
    22  H   -0.000000   0.000015  -0.000000  -0.000000  -0.000017  -0.000054
    23  H    0.000000   0.000009  -0.000325  -0.000004  -0.000000   0.000000
    24  H   -0.000004   0.000115  -0.000558   0.000001  -0.000000  -0.000009
    25  H   -0.000004  -0.000001  -0.000049  -0.000173   0.000000   0.000039
    26  H    0.000000  -0.000000   0.000000  -0.000001  -0.000000  -0.000000
    27  H   -0.000000   0.000000  -0.000000  -0.000000   0.000192   0.000074
    28  H   -0.000002  -0.000007  -0.000000  -0.000000  -0.001721  -0.002417
    29  H   -0.000325  -0.001307  -0.000000  -0.000000   0.000000   0.000011
    30  H   -0.000004   0.000388  -0.000000   0.000000  -0.000000  -0.000001
              19         20         21         22         23         24
     1  O    0.000066   0.000791   0.007579   0.000381   0.000076   0.002946
     2  O    0.000000  -0.000001   0.000010   0.000018   0.000005   0.000180
     3  O    0.000003   0.000904  -0.000000   0.000000   0.000072   0.000202
     4  O    0.000002   0.000005   0.010540   0.000956   0.000000   0.000000
     5  O    0.315308   0.306377   0.001436  -0.000003   0.000266   0.000471
     6  O    0.000003   0.000351   0.311962   0.312850  -0.000042   0.019583
     7  O    0.000323   0.015474   0.000183   0.000063   0.308732   0.299110
     8  O    0.000000  -0.000000   0.000000   0.000000  -0.000000   0.000000
     9  O   -0.000000   0.000000  -0.000001  -0.000018   0.000000   0.000000
    10  O   -0.000000   0.000000   0.000388   0.027171   0.000000   0.000002
    11  H   -0.000088  -0.000926  -0.000178   0.000005  -0.000155  -0.000131
    12  H   -0.000002  -0.000051  -0.000221   0.000017  -0.000001   0.000186
    13  H   -0.000000   0.000000   0.000000  -0.000000   0.000000  -0.000004
    14  H   -0.000000  -0.000001  -0.000003   0.000015   0.000009   0.000115
    15  H    0.000006   0.000110  -0.000002  -0.000000  -0.000325  -0.000558
    16  H   -0.000000   0.000005  -0.000000  -0.000000  -0.000004   0.000001
    17  H    0.000000   0.000002  -0.000372  -0.000017  -0.000000  -0.000000
    18  H   -0.000018  -0.000063  -0.001298  -0.000054   0.000000  -0.000009
    19  H    0.294195  -0.019026  -0.000020   0.000000  -0.000012   0.000010
    20  H   -0.019026   0.310227   0.000061  -0.000007  -0.000406  -0.001913
    21  H   -0.000020   0.000061   0.304686  -0.027236   0.000006  -0.000765
    22  H    0.000000  -0.000007  -0.027236   0.315295  -0.000002  -0.000363
    23  H   -0.000012  -0.000406   0.000006  -0.000002   0.309128  -0.015245
    24  H    0.000010  -0.001913  -0.000765  -0.000363  -0.015245   0.322953
    25  H   -0.000000  -0.000001  -0.000002  -0.000000  -0.000000  -0.000001
    26  H   -0.000000   0.000000   0.000000   0.000000  -0.000000   0.000000
    27  H   -0.000000  -0.000000  -0.000003  -0.000000  -0.000000  -0.000000
    28  H    0.000000   0.000000   0.000000   0.000154  -0.000000  -0.000000
    29  H   -0.000000   0.000000   0.000061  -0.001670  -0.000000   0.000000
    30  H   -0.000000  -0.000000   0.000012  -0.002227  -0.000000   0.000003
              25         26         27         28         29         30
     1  O    0.013253  -0.000073   0.000001   0.001075   0.000197  -0.000000
     2  O    0.000016   0.000000   0.000003   0.000058   0.015634   0.000022
     3  O    0.002088  -0.000005  -0.000000   0.000000   0.000000  -0.000000
     4  O   -0.000002   0.000000   0.001200   0.030058  -0.000028   0.000007
     5  O   -0.000003   0.000000   0.000000  -0.000000  -0.000000   0.000000
     6  O    0.000000  -0.000000   0.000000  -0.000013   0.001144   0.000781
     7  O   -0.000000   0.000000   0.000000   0.000000  -0.000001  -0.000000
     8  O    0.306509   0.318849   0.000001  -0.000000   0.000000   0.000000
     9  O    0.000002   0.000002   0.322377   0.307034   0.001757   0.000031
    10  O    0.000000   0.000000   0.000020   0.001237   0.306571   0.305910
    11  H   -0.000258   0.000000   0.000000  -0.000010  -0.000004   0.000000
    12  H    0.000151   0.000025  -0.000010   0.000099   0.000202  -0.000011
    13  H   -0.000004   0.000000  -0.000000  -0.000002  -0.000325  -0.000004
    14  H   -0.000001  -0.000000   0.000000  -0.000007  -0.001307   0.000388
    15  H   -0.000049   0.000000  -0.000000  -0.000000  -0.000000  -0.000000
    16  H   -0.000173  -0.000001  -0.000000  -0.000000  -0.000000   0.000000
    17  H    0.000000  -0.000000   0.000192  -0.001721   0.000000  -0.000000
    18  H    0.000039  -0.000000   0.000074  -0.002417   0.000011  -0.000001
    19  H   -0.000000  -0.000000  -0.000000   0.000000  -0.000000  -0.000000
    20  H   -0.000001   0.000000  -0.000000   0.000000   0.000000  -0.000000
    21  H   -0.000002   0.000000  -0.000003   0.000000   0.000061   0.000012
    22  H   -0.000000   0.000000  -0.000000   0.000154  -0.001670  -0.002227
    23  H   -0.000000  -0.000000  -0.000000  -0.000000  -0.000000  -0.000000
    24  H   -0.000001   0.000000  -0.000000  -0.000000   0.000000   0.000003
    25  H    0.330679  -0.025138   0.000001   0.000004  -0.000000   0.000000
    26  H   -0.025138   0.340148   0.000000  -0.000000  -0.000000  -0.000000
    27  H    0.000001   0.000000   0.313915  -0.026370  -0.000043  -0.000001
    28  H    0.000004  -0.000000  -0.026370   0.310293  -0.000736  -0.000023
    29  H   -0.000000  -0.000000  -0.000043  -0.000736   0.319532  -0.023060
    30  H    0.000000  -0.000000  -0.000001  -0.000023  -0.023060   0.381344
 Mulliken charges:
               1
     1  O   -0.787677
     2  O   -0.735615
     3  O   -0.720395
     4  O   -0.748425
     5  O   -0.812231
     6  O   -0.791712
     7  O   -0.758265
     8  O   -0.757144
     9  O   -0.799751
    10  O   -0.707020
    11  H    0.388669
    12  H    0.394113
    13  H    0.395660
    14  H    0.380898
    15  H    0.358459
    16  H    0.366359
    17  H    0.389043
    18  H    0.380814
    19  H    0.409250
    20  H    0.388086
    21  H    0.393178
    22  H    0.374672
    23  H    0.397899
    24  H    0.373226
    25  H    0.372891
    26  H    0.366193
    27  H    0.388643
    28  H    0.381287
    29  H    0.382064
    30  H    0.336831
 Sum of Mulliken charges =  -0.00000
 Mulliken charges with hydrogens summed into heavy atoms:
               1
     1  O   -0.004895
     2  O    0.040943
     3  O    0.004423
     4  O    0.021432
     5  O   -0.014894
     6  O   -0.023863
     7  O    0.012860
     8  O   -0.018060
     9  O   -0.029822
    10  O    0.011875
 Electronic spatial extent (au):  <R**2>=         117791.9868
 Charge=              0.0000 electrons
 Dipole moment (field-independent basis, Debye):
    X=              4.5494    Y=             -1.9481    Z=              8.0772  Tot=              9.4728
 Quadrupole moment (field-independent basis, Debye-Ang):
   XX=             22.7122   YY=            -33.3896   ZZ=           -216.0415
   XY=            -63.9568   XZ=             30.8891   YZ=            -75.1195
 Traceless Quadrupole moment (field-independent basis, Debye-Ang):
   XX=             98.2851   YY=             42.1834   ZZ=           -140.4685
   XY=            -63.9568   XZ=             30.8891   YZ=            -75.1195
 Octapole moment (field-independent basis, Debye-Ang**2):
  XXX=           -375.6178  YYY=           1861.3556  ZZZ=           4216.9753  XYY=            222.6149
  XXY=           -372.1869  XXZ=            567.6660  XZZ=          -1544.8318  YZZ=           2324.6450
  YYZ=           1619.2002  XYZ=           -217.3497
 Hexadecapole moment (field-independent basis, Debye-Ang**3):
 XXXX=         -12108.5756 YYYY=         -48984.0153 ZZZZ=         -72369.2601 XXXY=           2802.8324
 XXXZ=          12578.1814 YYYX=          10252.5967 YYYZ=         -37584.1289 ZZZX=          34065.2248
 ZZZY=         -47131.2365 XXYY=           -262.6749 XXZZ=         -18152.8014 YYZZ=         -37023.0186
 XXYZ=          -4789.0159 YYXZ=           8980.2339 ZZXY=          16092.4596
 N-N= 6.761349002483D+02 E-N=-3.178472435570D+03  KE= 7.590927921078D+02
 No NMR shielding tensors so no spin-rotation constants.
 Leave Link  601 at Fri May 15 22:34:45 2020, MaxMem=   134217728 cpu:               0.7 elap:               0.2
 (Enter /home/soft/g16/l607.exe)
 ******************************Gaussian NBO Version 3.1******************************
             N A T U R A L   A T O M I C   O R B I T A L   A N D
          N A T U R A L   B O N D   O R B I T A L   A N A L Y S I S
 ******************************Gaussian NBO Version 3.1******************************
       /RESON  / : Allow strongly delocalized NBO set

 Analyzing the SCF density

 Job title: Atom number=30                                                  

 Storage needed:    175770 in NPA ( 134213048 available)
 GSVD:  LWork=       27840 too small for GESVD, short by       30600 words or       30600 for optimal perf.


 NATURAL POPULATIONS:  Natural atomic orbital occupancies 
                                                          
   NAO  Atom  No  lang   Type(AO)    Occupancy      Energy
 ----------------------------------------------------------
     1    O    1  S      Cor( 1S)     1.99982     -20.35643
     2    O    1  S      Val( 2S)     1.73403      -1.15200
     3    O    1  S      Ryd( 3S)     0.00052       2.10518
     4    O    1  px     Val( 2p)     1.70025      -0.39293
     5    O    1  px     Ryd( 3p)     0.00159       1.41870
     6    O    1  py     Val( 2p)     1.75593      -0.40973
     7    O    1  py     Ryd( 3p)     0.00158       1.36666
     8    O    1  pz     Val( 2p)     1.85647      -0.44865
     9    O    1  pz     Ryd( 3p)     0.00053       1.31938
    10    O    1  dxy    Ryd( 3d)     0.00056       2.57883
    11    O    1  dxz    Ryd( 3d)     0.00126       2.55958
    12    O    1  dyz    Ryd( 3d)     0.00140       2.76563
    13    O    1  dx2y2  Ryd( 3d)     0.00079       2.73558
    14    O    1  dz2    Ryd( 3d)     0.00133       2.38944

    15    O    2  S      Cor( 1S)     1.99986     -20.45072
    16    O    2  S      Val( 2S)     1.75415      -1.21694
    17    O    2  S      Ryd( 3S)     0.00097       1.70255
    18    O    2  px     Val( 2p)     1.72694      -0.46667
    19    O    2  px     Ryd( 3p)     0.00128       1.33300
    20    O    2  py     Val( 2p)     1.78370      -0.48236
    21    O    2  py     Ryd( 3p)     0.00134       1.26249
    22    O    2  pz     Val( 2p)     1.75393      -0.47717
    23    O    2  pz     Ryd( 3p)     0.00081       1.26423
    24    O    2  dxy    Ryd( 3d)     0.00067       2.62195
    25    O    2  dxz    Ryd( 3d)     0.00115       2.37779
    26    O    2  dyz    Ryd( 3d)     0.00131       2.63475
    27    O    2  dx2y2  Ryd( 3d)     0.00050       2.42619
    28    O    2  dz2    Ryd( 3d)     0.00162       2.54705

    29    O    3  S      Cor( 1S)     1.99985     -20.43734
    30    O    3  S      Val( 2S)     1.75372      -1.20446
    31    O    3  S      Ryd( 3S)     0.00111       1.77606
    32    O    3  px     Val( 2p)     1.90740      -0.51504
    33    O    3  px     Ryd( 3p)     0.00055       1.15386
    34    O    3  py     Val( 2p)     1.57413      -0.40194
    35    O    3  py     Ryd( 3p)     0.00157       1.36673
    36    O    3  pz     Val( 2p)     1.75910      -0.46646
    37    O    3  pz     Ryd( 3p)     0.00126       1.25671
    38    O    3  dxy    Ryd( 3d)     0.00088       2.40779
    39    O    3  dxz    Ryd( 3d)     0.00171       2.53408
    40    O    3  dyz    Ryd( 3d)     0.00082       2.47334
    41    O    3  dx2y2  Ryd( 3d)     0.00120       2.69353
    42    O    3  dz2    Ryd( 3d)     0.00142       2.53393

    43    O    4  S      Cor( 1S)     1.99985     -20.36225
    44    O    4  S      Val( 2S)     1.75057      -1.14191
    45    O    4  S      Ryd( 3S)     0.00096       1.90664
    46    O    4  px     Val( 2p)     1.97229      -0.46414
    47    O    4  px     Ryd( 3p)     0.00082       1.30930
    48    O    4  py     Val( 2p)     1.74986      -0.40431
    49    O    4  py     Ryd( 3p)     0.00038       1.28243
    50    O    4  pz     Val( 2p)     1.55161      -0.33017
    51    O    4  pz     Ryd( 3p)     0.00157       1.41917
    52    O    4  dxy    Ryd( 3d)     0.00145       2.27165
    53    O    4  dxz    Ryd( 3d)     0.00012       2.34656
    54    O    4  dyz    Ryd( 3d)     0.00166       3.08732
    55    O    4  dx2y2  Ryd( 3d)     0.00185       2.53740
    56    O    4  dz2    Ryd( 3d)     0.00053       2.75062

    57    O    5  S      Cor( 1S)     1.99985     -20.35161
    58    O    5  S      Val( 2S)     1.75037      -1.13406
    59    O    5  S      Ryd( 3S)     0.00076       1.98092
    60    O    5  px     Val( 2p)     1.58940      -0.33205
    61    O    5  px     Ryd( 3p)     0.00172       1.40556
    62    O    5  py     Val( 2p)     1.94593      -0.45291
    63    O    5  py     Ryd( 3p)     0.00085       1.20980
    64    O    5  pz     Val( 2p)     1.76732      -0.40333
    65    O    5  pz     Ryd( 3p)     0.00047       1.25309
    66    O    5  dxy    Ryd( 3d)     0.00026       2.37817
    67    O    5  dxz    Ryd( 3d)     0.00136       2.76953
    68    O    5  dyz    Ryd( 3d)     0.00151       2.47054
    69    O    5  dx2y2  Ryd( 3d)     0.00070       2.73659
    70    O    5  dz2    Ryd( 3d)     0.00174       2.63941

    71    O    6  S      Cor( 1S)     1.99984     -20.36052
    72    O    6  S      Val( 2S)     1.73984      -1.14721
    73    O    6  S      Ryd( 3S)     0.00058       1.98873
    74    O    6  px     Val( 2p)     1.81295      -0.43100
    75    O    6  px     Ryd( 3p)     0.00087       1.24797
    76    O    6  py     Val( 2p)     1.69616      -0.38015
    77    O    6  py     Ryd( 3p)     0.00164       1.39130
    78    O    6  pz     Val( 2p)     1.79412      -0.42585
    79    O    6  pz     Ryd( 3p)     0.00070       1.26816
    80    O    6  dxy    Ryd( 3d)     0.00095       2.77701
    81    O    6  dxz    Ryd( 3d)     0.00119       2.38348
    82    O    6  dyz    Ryd( 3d)     0.00105       2.82644
    83    O    6  dx2y2  Ryd( 3d)     0.00052       2.41028
    84    O    6  dz2    Ryd( 3d)     0.00129       2.56812

    85    O    7  S      Cor( 1S)     1.99986     -20.42619
    86    O    7  S      Val( 2S)     1.75400      -1.20065
    87    O    7  S      Ryd( 3S)     0.00107       1.75719
    88    O    7  px     Val( 2p)     1.84816      -0.49188
    89    O    7  px     Ryd( 3p)     0.00037       1.25110
    90    O    7  py     Val( 2p)     1.68934      -0.43566
    91    O    7  py     Ryd( 3p)     0.00145       1.27183
    92    O    7  pz     Val( 2p)     1.74178      -0.44834
    93    O    7  pz     Ryd( 3p)     0.00123       1.35314
    94    O    7  dxy    Ryd( 3d)     0.00144       2.57806
    95    O    7  dxz    Ryd( 3d)     0.00152       2.67085
    96    O    7  dyz    Ryd( 3d)     0.00044       2.51792
    97    O    7  dx2y2  Ryd( 3d)     0.00119       2.47227
    98    O    7  dz2    Ryd( 3d)     0.00082       2.43830

    99    O    8  S      Cor( 1S)     1.99986     -20.42114
   100    O    8  S      Val( 2S)     1.75619      -1.18783
   101    O    8  S      Ryd( 3S)     0.00116       1.73907
   102    O    8  px     Val( 2p)     1.61040      -0.39717
   103    O    8  px     Ryd( 3p)     0.00161       1.24671
   104    O    8  py     Val( 2p)     1.83160      -0.47722
   105    O    8  py     Ryd( 3p)     0.00062       1.16372
   106    O    8  pz     Val( 2p)     1.81988      -0.46733
   107    O    8  pz     Ryd( 3p)     0.00096       1.18686
   108    O    8  dxy    Ryd( 3d)     0.00110       2.50320
   109    O    8  dxz    Ryd( 3d)     0.00047       2.42723
   110    O    8  dyz    Ryd( 3d)     0.00169       2.64479
   111    O    8  dx2y2  Ryd( 3d)     0.00139       2.67946
   112    O    8  dz2    Ryd( 3d)     0.00078       2.39933

   113    O    9  S      Cor( 1S)     1.99985     -20.34146
   114    O    9  S      Val( 2S)     1.74856      -1.11988
   115    O    9  S      Ryd( 3S)     0.00078       1.92768
   116    O    9  px     Val( 2p)     1.75848      -0.39308
   117    O    9  px     Ryd( 3p)     0.00068       1.24488
   118    O    9  py     Val( 2p)     1.96798      -0.44384
   119    O    9  py     Ryd( 3p)     0.00050       1.21971
   120    O    9  pz     Val( 2p)     1.57424      -0.31492
   121    O    9  pz     Ryd( 3p)     0.00175       1.37594
   122    O    9  dxy    Ryd( 3d)     0.00127       2.30522
   123    O    9  dxz    Ryd( 3d)     0.00119       2.90346
   124    O    9  dyz    Ryd( 3d)     0.00039       2.45754
   125    O    9  dx2y2  Ryd( 3d)     0.00148       2.58482
   126    O    9  dz2    Ryd( 3d)     0.00058       2.77859

   127    O   10  S      Cor( 1S)     1.99986     -20.44672
   128    O   10  S      Val( 2S)     1.75420      -1.21551
   129    O   10  S      Ryd( 3S)     0.00099       1.79648
   130    O   10  px     Val( 2p)     1.87636      -0.51155
   131    O   10  px     Ryd( 3p)     0.00068       1.28663
   132    O   10  py     Val( 2p)     1.64704      -0.43679
   133    O   10  py     Ryd( 3p)     0.00204       1.23104
   134    O   10  pz     Val( 2p)     1.71002      -0.46254
   135    O   10  pz     Ryd( 3p)     0.00100       1.21403
   136    O   10  dxy    Ryd( 3d)     0.00100       2.66895
   137    O   10  dxz    Ryd( 3d)     0.00157       2.30215
   138    O   10  dyz    Ryd( 3d)     0.00106       2.60947
   139    O   10  dx2y2  Ryd( 3d)     0.00054       2.34117
   140    O   10  dz2    Ryd( 3d)     0.00170       2.66351

   141    H   11  S      Val( 1S)     0.47663       0.38643
   142    H   11  S      Ryd( 2S)     0.00169       0.99259
   143    H   11  px     Ryd( 2p)     0.00057       2.79575
   144    H   11  py     Ryd( 2p)     0.00131       3.14964
   145    H   11  pz     Ryd( 2p)     0.00108       2.96354

   146    H   12  S      Val( 1S)     0.47560       0.38880
   147    H   12  S      Ryd( 2S)     0.00112       0.89315
   148    H   12  px     Ryd( 2p)     0.00152       3.31561
   149    H   12  py     Ryd( 2p)     0.00072       2.79198
   150    H   12  pz     Ryd( 2p)     0.00081       2.75933

   151    H   13  S      Val( 1S)     0.46121       0.34735
   152    H   13  S      Ryd( 2S)     0.00054       0.68933
   153    H   13  px     Ryd( 2p)     0.00151       3.16022
   154    H   13  py     Ryd( 2p)     0.00089       2.81063
   155    H   13  pz     Ryd( 2p)     0.00062       2.64094

   156    H   14  S      Val( 1S)     0.47544       0.32342
   157    H   14  S      Ryd( 2S)     0.00096       0.74111
   158    H   14  px     Ryd( 2p)     0.00057       2.66968
   159    H   14  py     Ryd( 2p)     0.00109       2.81937
   160    H   14  pz     Ryd( 2p)     0.00143       3.10508

   161    H   15  S      Val( 1S)     0.49083       0.30751
   162    H   15  S      Ryd( 2S)     0.00157       0.80624
   163    H   15  px     Ryd( 2p)     0.00109       2.76421
   164    H   15  py     Ryd( 2p)     0.00076       2.75034
   165    H   15  pz     Ryd( 2p)     0.00124       3.11154

   166    H   16  S      Val( 1S)     0.48745       0.31688
   167    H   16  S      Ryd( 2S)     0.00079       0.69463
   168    H   16  px     Ryd( 2p)     0.00081       2.59861
   169    H   16  py     Ryd( 2p)     0.00168       3.35659
   170    H   16  pz     Ryd( 2p)     0.00067       2.61177

   171    H   17  S      Val( 1S)     0.46713       0.41397
   172    H   17  S      Ryd( 2S)     0.00053       0.80279
   173    H   17  px     Ryd( 2p)     0.00076       2.66920
   174    H   17  py     Ryd( 2p)     0.00075       2.79889
   175    H   17  pz     Ryd( 2p)     0.00146       3.33498

   176    H   18  S      Val( 1S)     0.48228       0.38818
   177    H   18  S      Ryd( 2S)     0.00072       0.98742
   178    H   18  px     Ryd( 2p)     0.00091       2.67162
   179    H   18  py     Ryd( 2p)     0.00138       3.21947
   180    H   18  pz     Ryd( 2p)     0.00083       2.98366

   181    H   19  S      Val( 1S)     0.45817       0.44131
   182    H   19  S      Ryd( 2S)     0.00055       0.79508
   183    H   19  px     Ryd( 2p)     0.00176       3.42998
   184    H   19  py     Ryd( 2p)     0.00067       2.65600
   185    H   19  pz     Ryd( 2p)     0.00061       2.73994

   186    H   20  S      Val( 1S)     0.48396       0.39473
   187    H   20  S      Ryd( 2S)     0.00110       0.92357
   188    H   20  px     Ryd( 2p)     0.00068       2.85803
   189    H   20  py     Ryd( 2p)     0.00096       2.75197
   190    H   20  pz     Ryd( 2p)     0.00131       3.21391

   191    H   21  S      Val( 1S)     0.47443       0.39964
   192    H   21  S      Ryd( 2S)     0.00168       0.94708
   193    H   21  px     Ryd( 2p)     0.00059       2.65996
   194    H   21  py     Ryd( 2p)     0.00094       3.03107
   195    H   21  pz     Ryd( 2p)     0.00128       3.18023

   196    H   22  S      Val( 1S)     0.48202       0.37819
   197    H   22  S      Ryd( 2S)     0.00139       0.85572
   198    H   22  px     Ryd( 2p)     0.00132       3.09569
   199    H   22  py     Ryd( 2p)     0.00100       2.99390
   200    H   22  pz     Ryd( 2p)     0.00068       2.69515

   201    H   23  S      Val( 1S)     0.46661       0.36079
   202    H   23  S      Ryd( 2S)     0.00044       0.77364
   203    H   23  px     Ryd( 2p)     0.00116       2.86688
   204    H   23  py     Ryd( 2p)     0.00064       2.70275
   205    H   23  pz     Ryd( 2p)     0.00137       3.07677

   206    H   24  S      Val( 1S)     0.47042       0.34576
   207    H   24  S      Ryd( 2S)     0.00226       0.82242
   208    H   24  px     Ryd( 2p)     0.00076       2.75634
   209    H   24  py     Ryd( 2p)     0.00142       3.23071
   210    H   24  pz     Ryd( 2p)     0.00076       2.73464

   211    H   25  S      Val( 1S)     0.47810       0.35084
   212    H   25  S      Ryd( 2S)     0.00242       0.80160
   213    H   25  px     Ryd( 2p)     0.00058       2.72007
   214    H   25  py     Ryd( 2p)     0.00114       2.96970
   215    H   25  pz     Ryd( 2p)     0.00118       2.96991

   216    H   26  S      Val( 1S)     0.49080       0.32655
   217    H   26  S      Ryd( 2S)     0.00073       0.70217
   218    H   26  px     Ryd( 2p)     0.00157       3.30638
   219    H   26  py     Ryd( 2p)     0.00075       2.65006
   220    H   26  pz     Ryd( 2p)     0.00069       2.61848

   221    H   27  S      Val( 1S)     0.47107       0.42675
   222    H   27  S      Ryd( 2S)     0.00057       0.78328
   223    H   27  px     Ryd( 2p)     0.00061       2.75889
   224    H   27  py     Ryd( 2p)     0.00086       2.71306
   225    H   27  pz     Ryd( 2p)     0.00141       3.35374

   226    H   28  S      Val( 1S)     0.47831       0.41226
   227    H   28  S      Ryd( 2S)     0.00235       0.94743
   228    H   28  px     Ryd( 2p)     0.00149       3.28760
   229    H   28  py     Ryd( 2p)     0.00081       2.65387
   230    H   28  pz     Ryd( 2p)     0.00056       2.96254

   231    H   29  S      Val( 1S)     0.47278       0.33101
   232    H   29  S      Ryd( 2S)     0.00149       0.85287
   233    H   29  px     Ryd( 2p)     0.00105       2.83521
   234    H   29  py     Ryd( 2p)     0.00140       3.17213
   235    H   29  pz     Ryd( 2p)     0.00058       2.61451

   236    H   30  S      Val( 1S)     0.51009       0.26899
   237    H   30  S      Ryd( 2S)     0.00100       0.70888
   238    H   30  px     Ryd( 2p)     0.00086       2.59143
   239    H   30  py     Ryd( 2p)     0.00089       2.76070
   240    H   30  pz     Ryd( 2p)     0.00140       3.14585


 Summary of Natural Population Analysis:                  
                                                          
                                       Natural Population 
                Natural  -----------------------------------------------
    Atom  No    Charge         Core      Valence    Rydberg      Total
 -----------------------------------------------------------------------
      O    1   -1.05605      1.99982     7.04668    0.00956     9.05605
      O    2   -1.02823      1.99986     7.01872    0.00965     9.02823
      O    3   -1.00472      1.99985     6.99435    0.01051     9.00472
      O    4   -1.03351      1.99985     7.02433    0.00933     9.03351
      O    5   -1.06223      1.99985     7.05302    0.00936     9.06223
      O    6   -1.05168      1.99984     7.04306    0.00878     9.05168
      O    7   -1.04266      1.99986     7.03328    0.00953     9.04266
      O    8   -1.02769      1.99986     7.01807    0.00976     9.02769
      O    9   -1.05772      1.99985     7.04926    0.00860     9.05772
      O   10   -0.99807      1.99986     6.98762    0.01059     8.99807
      H   11    0.51872      0.00000     0.47663    0.00464     0.48128
      H   12    0.52023      0.00000     0.47560    0.00418     0.47977
      H   13    0.53523      0.00000     0.46121    0.00356     0.46477
      H   14    0.52051      0.00000     0.47544    0.00405     0.47949
      H   15    0.50450      0.00000     0.49083    0.00466     0.49550
      H   16    0.50859      0.00000     0.48745    0.00395     0.49141
      H   17    0.52937      0.00000     0.46713    0.00350     0.47063
      H   18    0.51388      0.00000     0.48228    0.00385     0.48612
      H   19    0.53825      0.00000     0.45817    0.00358     0.46175
      H   20    0.51200      0.00000     0.48396    0.00405     0.48800
      H   21    0.52109      0.00000     0.47443    0.00448     0.47891
      H   22    0.51361      0.00000     0.48202    0.00438     0.48639
      H   23    0.52978      0.00000     0.46661    0.00361     0.47022
      H   24    0.52438      0.00000     0.47042    0.00520     0.47562
      H   25    0.51657      0.00000     0.47810    0.00533     0.48343
      H   26    0.50546      0.00000     0.49080    0.00374     0.49454
      H   27    0.52548      0.00000     0.47107    0.00345     0.47452
      H   28    0.51648      0.00000     0.47831    0.00520     0.48352
      H   29    0.52270      0.00000     0.47278    0.00452     0.47730
      H   30    0.48575      0.00000     0.51009    0.00416     0.51425
 =======================================================================
   * Total *   -0.00000     19.99849    79.82173    0.17978   100.00000

                                 Natural Population      
 --------------------------------------------------------
   Core                      19.99849 ( 99.9925% of  20)
   Valence                   79.82173 ( 99.7772% of  80)
   Natural Minimal Basis     99.82022 ( 99.8202% of 100)
   Natural Rydberg Basis      0.17978 (  0.1798% of 100)
 --------------------------------------------------------

    Atom  No          Natural Electron Configuration
 ----------------------------------------------------------------------------
      O    1      [core]2S( 1.73)2p( 5.31)3d( 0.01)
      O    2      [core]2S( 1.75)2p( 5.26)3d( 0.01)
      O    3      [core]2S( 1.75)2p( 5.24)3d( 0.01)
      O    4      [core]2S( 1.75)2p( 5.27)3d( 0.01)
      O    5      [core]2S( 1.75)2p( 5.30)3d( 0.01)
      O    6      [core]2S( 1.74)2p( 5.30)
      O    7      [core]2S( 1.75)2p( 5.28)3d( 0.01)
      O    8      [core]2S( 1.76)2p( 5.26)3d( 0.01)
      O    9      [core]2S( 1.75)2p( 5.30)
      O   10      [core]2S( 1.75)2p( 5.23)3d( 0.01)
      H   11            1S( 0.48)
      H   12            1S( 0.48)
      H   13            1S( 0.46)
      H   14            1S( 0.48)
      H   15            1S( 0.49)
      H   16            1S( 0.49)
      H   17            1S( 0.47)
      H   18            1S( 0.48)
      H   19            1S( 0.46)
      H   20            1S( 0.48)
      H   21            1S( 0.47)
      H   22            1S( 0.48)
      H   23            1S( 0.47)
      H   24            1S( 0.47)
      H   25            1S( 0.48)
      H   26            1S( 0.49)
      H   27            1S( 0.47)
      H   28            1S( 0.48)
      H   29            1S( 0.47)
      H   30            1S( 0.51)


 NBO analysis skipped by request.
 Leave Link  607 at Fri May 15 22:34:45 2020, MaxMem=   134217728 cpu:               0.9 elap:               0.3
 (Enter /home/soft/g16/l9999.exe)

 Test job not archived.
 1\1\GINC-MASTER\SP\RHF\6-31G(d,p)\H20O10\LIWEI01\15-May-2020\0\\#p hf/
 6-31g** 5d 7f pop=npa charge nosymm\\Atom number=30\\0,1\O,0,8.392325,
 -11.812941,-11.200483\O,0,10.706017,-10.848862,-10.091512\O,0,8.693246
 ,-14.069272,-9.547113\O,0,7.250284,-9.859627,-13.103456\O,0,5.570392,-
 12.760041,-10.733807\O,0,6.966193,-9.247795,-10.274305\O,0,6.942642,-1
 1.829381,-8.371044\O,0,9.739714,-14.560219,-13.084136\O,0,10.084912,-9
 .602997,-13.69441\O,0,9.473772,-7.997188,-10.918041\H,0,8.175276,-12.5
 37815,-10.614239\H,0,9.252154,-11.5141,-10.904475\H,0,11.521407,-11.32
 028,-9.920812\H,0,10.567797,-10.316883,-9.307849\H,0,8.22009,-13.73274
 2,-8.786125\H,0,8.552802,-15.015659,-9.517782\H,0,7.12066,-10.221473,-
 13.980096\H,0,7.341484,-10.626744,-12.538261\H,0,4.642708,-12.827827,-
 10.507888\H,0,5.983752,-12.40517,-9.946767\H,0,6.975152,-9.845016,-11.
 022289\H,0,7.684375,-8.638472,-10.445098\H,0,7.495574,-12.091052,-7.63
 4819\H,0,7.307461,-10.99284,-8.659728\H,0,9.436683,-13.920876,-12.4394
 3\H,0,10.652707,-14.322974,-13.246584\H,0,9.837963,-9.877914,-14.57739
 8\H,0,9.267108,-9.62837,-13.197635\H,0,9.99752,-8.795627,-10.851588\H,
 0,9.62339,-7.542356,-10.089201\\Version=ES64L-G16RevA.03\HF=-770.81708
 37\RMSD=7.765e-09\Dipole=1.7898584,-0.7664457,3.1778151\Quadrupole=73.
 0725934,31.3623076,-104.434901,-47.5503423,22.9652932,-55.8495002\PG=C
 01 [X(H20O10)]\\@


 AND THIS OUR LIFE, EXEMPT FROM PUBLIC HAUNT,
 FINDS TONGUES IN TREES, BOOKS IN THE RUNNING BROOKS,
 SERMONS IN STONES, AND GOOD IN EVERYTHING.
 I WOULD NOT CHANGE IT. -- W. SHAKESPEARE
 AS YOU LIKE IT, ACT II, SCENE 1.
 Job cpu time:       0 days  0 hours  0 minutes 36.2 seconds.
 Elapsed time:       0 days  0 hours  0 minutes  9.3 seconds.
 File lengths (MBytes):  RWF=     88 Int=      0 D2E=      0 Chk=      8 Scr=      8
 Normal termination of Gaussian 16 at Fri May 15 22:34:45 2020.
