Atom number=18                                                          
SP        RHF                                                         6-31G(d,p)          
Number of atoms                            I               18
Info1-9                                    I   N=           9
         107         106           0           0           0         111
           1           1           2
Full Title                                 C   N=           2
Atom number=18          
Route                                      C   N=           4
#p hf/6-31g** 5d 7f pop=npa charge nosymm       
Charge                                     I                0
Multiplicity                               I                1
Number of electrons                        I               60
Number of alpha electrons                  I               30
Number of beta electrons                   I               30
Number of basis functions                  I              144
Number of independent functions            I              144
Number of point charges in /Mol/           I                0
Number of translation vectors              I                0
Atomic numbers                             I   N=          18
           8           8           8           8           8           8
           1           1           1           1           1           1
           1           1           1           1           1           1
Nuclear charges                            R   N=          18
  8.00000000E+00  8.00000000E+00  8.00000000E+00  8.00000000E+00  8.00000000E+00
  8.00000000E+00  1.00000000E+00  1.00000000E+00  1.00000000E+00  1.00000000E+00
  1.00000000E+00  1.00000000E+00  1.00000000E+00  1.00000000E+00  1.00000000E+00
  1.00000000E+00  1.00000000E+00  1.00000000E+00
Current cartesian coordinates              R   N=          54
  1.64278541E+01 -2.65870709E+01 -1.80414289E+01  2.45589393E+01 -2.78051467E+01
 -2.11838979E+01  1.69341004E+01 -3.21569781E+01 -1.75281055E+01  2.16779838E+01
 -2.90173418E+01 -1.42069912E+01  2.42145046E+01 -2.46013372E+01 -1.39203349E+01
  2.14001128E+01 -3.21472498E+01 -2.03386876E+01  1.55337188E+01 -2.59511213E+01
 -1.66033699E+01  1.61624534E+01 -2.83754831E+01 -1.79860013E+01  2.32179689E+01
 -2.86518083E+01 -2.03139039E+01  2.57676610E+01 -2.74243858E+01 -1.98931866E+01
  1.63906983E+01 -3.25393132E+01 -1.58457088E+01  1.56895513E+01 -3.29254069E+01
 -1.85923124E+01  2.05307462E+01 -2.90181619E+01 -1.56054812E+01  2.25019856E+01
 -2.74096119E+01 -1.42973126E+01  2.35873725E+01 -2.34649901E+01 -1.26604337E+01
  2.39147676E+01 -2.37503916E+01 -1.54881292E+01  2.21410612E+01 -3.37567560E+01
 -1.99748058E+01  1.97339942E+01 -3.22469688E+01 -1.96415299E+01
Number of symbols in /Mol/                 I                0
Force Field                                I                0
Atom Types                                 C   N=          18
                                                            
                                                            
                                                            
                                    
Int Atom Types                             I   N=          18
           0           0           0           0           0           0
           0           0           0           0           0           0
           0           0           0           0           0           0
MM charges                                 R   N=          18
  0.00000000E+00  0.00000000E+00  0.00000000E+00  0.00000000E+00  0.00000000E+00
  0.00000000E+00  0.00000000E+00  0.00000000E+00  0.00000000E+00  0.00000000E+00
  0.00000000E+00  0.00000000E+00  0.00000000E+00  0.00000000E+00  0.00000000E+00
  0.00000000E+00  0.00000000E+00  0.00000000E+00
Integer atomic weights                     I   N=          18
          16          16          16          16          16          16
           1           1           1           1           1           1
           1           1           1           1           1           1
Real atomic weights                        R   N=          18
  1.59949146E+01  1.59949146E+01  1.59949146E+01  1.59949146E+01  1.59949146E+01
  1.59949146E+01  1.00782504E+00  1.00782504E+00  1.00782504E+00  1.00782504E+00
  1.00782504E+00  1.00782504E+00  1.00782504E+00  1.00782504E+00  1.00782504E+00
  1.00782504E+00  1.00782504E+00  1.00782504E+00
Atom fragment info                         I   N=          18
           0           0           0           0           0           0
           0           0           0           0           0           0
           0           0           0           0           0           0
Atom residue num                           I   N=          18
           0           0           0           0           0           0
           0           0           0           0           0           0
           0           0           0           0           0           0
Nuclear spins                              I   N=          18
           0           0           0           0           0           0
           1           1           1           1           1           1
           1           1           1           1           1           1
Nuclear ZEff                               R   N=          18
 -5.60000000E+00 -5.60000000E+00 -5.60000000E+00 -5.60000000E+00 -5.60000000E+00
 -5.60000000E+00 -1.00000000E+00 -1.00000000E+00 -1.00000000E+00 -1.00000000E+00
 -1.00000000E+00 -1.00000000E+00 -1.00000000E+00 -1.00000000E+00 -1.00000000E+00
 -1.00000000E+00 -1.00000000E+00 -1.00000000E+00
Nuclear ZNuc                               R   N=          18
  8.00000000E+00  8.00000000E+00  8.00000000E+00  8.00000000E+00  8.00000000E+00
  8.00000000E+00  1.00000000E+00  1.00000000E+00  1.00000000E+00  1.00000000E+00
  1.00000000E+00  1.00000000E+00  1.00000000E+00  1.00000000E+00  1.00000000E+00
  1.00000000E+00  1.00000000E+00  1.00000000E+00
Nuclear QMom                               R   N=          18
  0.00000000E+00  0.00000000E+00  0.00000000E+00  0.00000000E+00  0.00000000E+00
  0.00000000E+00  0.00000000E+00  0.00000000E+00  0.00000000E+00  0.00000000E+00
  0.00000000E+00  0.00000000E+00  0.00000000E+00  0.00000000E+00  0.00000000E+00
  0.00000000E+00  0.00000000E+00  0.00000000E+00
Nuclear GFac                               R   N=          18
  0.00000000E+00  0.00000000E+00  0.00000000E+00  0.00000000E+00  0.00000000E+00
  0.00000000E+00  2.79284600E+00  2.79284600E+00  2.79284600E+00  2.79284600E+00
  2.79284600E+00  2.79284600E+00  2.79284600E+00  2.79284600E+00  2.79284600E+00
  2.79284600E+00  2.79284600E+00  2.79284600E+00
MicOpt                                     I   N=          18
          -1          -1          -1          -1          -1          -1
          -1          -1          -1          -1          -1          -1
          -1          -1          -1          -1          -1          -1
Number of residues                         I                0
Number of secondary structures             I                0
Number of contracted shells                I               60
Number of primitive shells                 I              126
Pure/Cartesian d shells                    I                0
Pure/Cartesian f shells                    I                0
Highest angular momentum                   I                2
Largest degree of contraction              I                6
Shell types                                I   N=          60
           0          -1          -1          -2           0          -1
          -1          -2           0          -1          -1          -2
           0          -1          -1          -2           0          -1
          -1          -2           0          -1          -1          -2
           0           0           1           0           0           1
           0           0           1           0           0           1
           0           0           1           0           0           1
           0           0           1           0           0           1
           0           0           1           0           0           1
           0           0           1           0           0           1
Number of primitives per shell             I   N=          60
           6           3           1           1           6           3
           1           1           6           3           1           1
           6           3           1           1           6           3
           1           1           6           3           1           1
           3           1           1           3           1           1
           3           1           1           3           1           1
           3           1           1           3           1           1
           3           1           1           3           1           1
           3           1           1           3           1           1
           3           1           1           3           1           1
Shell to atom map                          I   N=          60
           1           1           1           1           2           2
           2           2           3           3           3           3
           4           4           4           4           5           5
           5           5           6           6           6           6
           7           7           7           8           8           8
           9           9           9          10          10          10
          11          11          11          12          12          12
          13          13          13          14          14          14
          15          15          15          16          16          16
          17          17          17          18          18          18
Primitive exponents                        R   N=         126
  5.48467166E+03  8.25234946E+02  1.88046958E+02  5.29645000E+01  1.68975704E+01
  5.79963534E+00  1.55396162E+01  3.59993359E+00  1.01376175E+00  2.70005823E-01
  8.00000000E-01  5.48467166E+03  8.25234946E+02  1.88046958E+02  5.29645000E+01
  1.68975704E+01  5.79963534E+00  1.55396162E+01  3.59993359E+00  1.01376175E+00
  2.70005823E-01  8.00000000E-01  5.48467166E+03  8.25234946E+02  1.88046958E+02
  5.29645000E+01  1.68975704E+01  5.79963534E+00  1.55396162E+01  3.59993359E+00
  1.01376175E+00  2.70005823E-01  8.00000000E-01  5.48467166E+03  8.25234946E+02
  1.88046958E+02  5.29645000E+01  1.68975704E+01  5.79963534E+00  1.55396162E+01
  3.59993359E+00  1.01376175E+00  2.70005823E-01  8.00000000E-01  5.48467166E+03
  8.25234946E+02  1.88046958E+02  5.29645000E+01  1.68975704E+01  5.79963534E+00
  1.55396162E+01  3.59993359E+00  1.01376175E+00  2.70005823E-01  8.00000000E-01
  5.48467166E+03  8.25234946E+02  1.88046958E+02  5.29645000E+01  1.68975704E+01
  5.79963534E+00  1.55396162E+01  3.59993359E+00  1.01376175E+00  2.70005823E-01
  8.00000000E-01  1.87311370E+01  2.82539436E+00  6.40121692E-01  1.61277759E-01
  1.10000000E+00  1.87311370E+01  2.82539436E+00  6.40121692E-01  1.61277759E-01
  1.10000000E+00  1.87311370E+01  2.82539436E+00  6.40121692E-01  1.61277759E-01
  1.10000000E+00  1.87311370E+01  2.82539436E+00  6.40121692E-01  1.61277759E-01
  1.10000000E+00  1.87311370E+01  2.82539436E+00  6.40121692E-01  1.61277759E-01
  1.10000000E+00  1.87311370E+01  2.82539436E+00  6.40121692E-01  1.61277759E-01
  1.10000000E+00  1.87311370E+01  2.82539436E+00  6.40121692E-01  1.61277759E-01
  1.10000000E+00  1.87311370E+01  2.82539436E+00  6.40121692E-01  1.61277759E-01
  1.10000000E+00  1.87311370E+01  2.82539436E+00  6.40121692E-01  1.61277759E-01
  1.10000000E+00  1.87311370E+01  2.82539436E+00  6.40121692E-01  1.61277759E-01
  1.10000000E+00  1.87311370E+01  2.82539436E+00  6.40121692E-01  1.61277759E-01
  1.10000000E+00  1.87311370E+01  2.82539436E+00  6.40121692E-01  1.61277759E-01
  1.10000000E+00
Contraction coefficients                   R   N=         126
  1.83107443E-03  1.39501722E-02  6.84450781E-02  2.32714336E-01  4.70192898E-01
  3.58520853E-01 -1.10777550E-01 -1.48026263E-01  1.13076702E+00  1.00000000E+00
  1.00000000E+00  1.83107443E-03  1.39501722E-02  6.84450781E-02  2.32714336E-01
  4.70192898E-01  3.58520853E-01 -1.10777550E-01 -1.48026263E-01  1.13076702E+00
  1.00000000E+00  1.00000000E+00  1.83107443E-03  1.39501722E-02  6.84450781E-02
  2.32714336E-01  4.70192898E-01  3.58520853E-01 -1.10777550E-01 -1.48026263E-01
  1.13076702E+00  1.00000000E+00  1.00000000E+00  1.83107443E-03  1.39501722E-02
  6.84450781E-02  2.32714336E-01  4.70192898E-01  3.58520853E-01 -1.10777550E-01
 -1.48026263E-01  1.13076702E+00  1.00000000E+00  1.00000000E+00  1.83107443E-03
  1.39501722E-02  6.84450781E-02  2.32714336E-01  4.70192898E-01  3.58520853E-01
 -1.10777550E-01 -1.48026263E-01  1.13076702E+00  1.00000000E+00  1.00000000E+00
  1.83107443E-03  1.39501722E-02  6.84450781E-02  2.32714336E-01  4.70192898E-01
  3.58520853E-01 -1.10777550E-01 -1.48026263E-01  1.13076702E+00  1.00000000E+00
  1.00000000E+00  3.34946043E-02  2.34726953E-01  8.13757326E-01  1.00000000E+00
  1.00000000E+00  3.34946043E-02  2.34726953E-01  8.13757326E-01  1.00000000E+00
  1.00000000E+00  3.34946043E-02  2.34726953E-01  8.13757326E-01  1.00000000E+00
  1.00000000E+00  3.34946043E-02  2.34726953E-01  8.13757326E-01  1.00000000E+00
  1.00000000E+00  3.34946043E-02  2.34726953E-01  8.13757326E-01  1.00000000E+00
  1.00000000E+00  3.34946043E-02  2.34726953E-01  8.13757326E-01  1.00000000E+00
  1.00000000E+00  3.34946043E-02  2.34726953E-01  8.13757326E-01  1.00000000E+00
  1.00000000E+00  3.34946043E-02  2.34726953E-01  8.13757326E-01  1.00000000E+00
  1.00000000E+00  3.34946043E-02  2.34726953E-01  8.13757326E-01  1.00000000E+00
  1.00000000E+00  3.34946043E-02  2.34726953E-01  8.13757326E-01  1.00000000E+00
  1.00000000E+00  3.34946043E-02  2.34726953E-01  8.13757326E-01  1.00000000E+00
  1.00000000E+00  3.34946043E-02  2.34726953E-01  8.13757326E-01  1.00000000E+00
  1.00000000E+00
P(S=P) Contraction coefficients            R   N=         126
  0.00000000E+00  0.00000000E+00  0.00000000E+00  0.00000000E+00  0.00000000E+00
  0.00000000E+00  7.08742682E-02  3.39752839E-01  7.27158577E-01  1.00000000E+00
  0.00000000E+00  0.00000000E+00  0.00000000E+00  0.00000000E+00  0.00000000E+00
  0.00000000E+00  0.00000000E+00  7.08742682E-02  3.39752839E-01  7.27158577E-01
  1.00000000E+00  0.00000000E+00  0.00000000E+00  0.00000000E+00  0.00000000E+00
  0.00000000E+00  0.00000000E+00  0.00000000E+00  7.08742682E-02  3.39752839E-01
  7.27158577E-01  1.00000000E+00  0.00000000E+00  0.00000000E+00  0.00000000E+00
  0.00000000E+00  0.00000000E+00  0.00000000E+00  0.00000000E+00  7.08742682E-02
  3.39752839E-01  7.27158577E-01  1.00000000E+00  0.00000000E+00  0.00000000E+00
  0.00000000E+00  0.00000000E+00  0.00000000E+00  0.00000000E+00  0.00000000E+00
  7.08742682E-02  3.39752839E-01  7.27158577E-01  1.00000000E+00  0.00000000E+00
  0.00000000E+00  0.00000000E+00  0.00000000E+00  0.00000000E+00  0.00000000E+00
  0.00000000E+00  7.08742682E-02  3.39752839E-01  7.27158577E-01  1.00000000E+00
  0.00000000E+00  0.00000000E+00  0.00000000E+00  0.00000000E+00  0.00000000E+00
  0.00000000E+00  0.00000000E+00  0.00000000E+00  0.00000000E+00  0.00000000E+00
  0.00000000E+00  0.00000000E+00  0.00000000E+00  0.00000000E+00  0.00000000E+00
  0.00000000E+00  0.00000000E+00  0.00000000E+00  0.00000000E+00  0.00000000E+00
  0.00000000E+00  0.00000000E+00  0.00000000E+00  0.00000000E+00  0.00000000E+00
  0.00000000E+00  0.00000000E+00  0.00000000E+00  0.00000000E+00  0.00000000E+00
  0.00000000E+00  0.00000000E+00  0.00000000E+00  0.00000000E+00  0.00000000E+00
  0.00000000E+00  0.00000000E+00  0.00000000E+00  0.00000000E+00  0.00000000E+00
  0.00000000E+00  0.00000000E+00  0.00000000E+00  0.00000000E+00  0.00000000E+00
  0.00000000E+00  0.00000000E+00  0.00000000E+00  0.00000000E+00  0.00000000E+00
  0.00000000E+00  0.00000000E+00  0.00000000E+00  0.00000000E+00  0.00000000E+00
  0.00000000E+00  0.00000000E+00  0.00000000E+00  0.00000000E+00  0.00000000E+00
  0.00000000E+00
Coordinates of each shell                  R   N=         180
  1.64278541E+01 -2.65870709E+01 -1.80414289E+01  1.64278541E+01 -2.65870709E+01
 -1.80414289E+01  1.64278541E+01 -2.65870709E+01 -1.80414289E+01  1.64278541E+01
 -2.65870709E+01 -1.80414289E+01  2.45589393E+01 -2.78051467E+01 -2.11838979E+01
  2.45589393E+01 -2.78051467E+01 -2.11838979E+01  2.45589393E+01 -2.78051467E+01
 -2.11838979E+01  2.45589393E+01 -2.78051467E+01 -2.11838979E+01  1.69341004E+01
 -3.21569781E+01 -1.75281055E+01  1.69341004E+01 -3.21569781E+01 -1.75281055E+01
  1.69341004E+01 -3.21569781E+01 -1.75281055E+01  1.69341004E+01 -3.21569781E+01
 -1.75281055E+01  2.16779838E+01 -2.90173418E+01 -1.42069912E+01  2.16779838E+01
 -2.90173418E+01 -1.42069912E+01  2.16779838E+01 -2.90173418E+01 -1.42069912E+01
  2.16779838E+01 -2.90173418E+01 -1.42069912E+01  2.42145046E+01 -2.46013372E+01
 -1.39203349E+01  2.42145046E+01 -2.46013372E+01 -1.39203349E+01  2.42145046E+01
 -2.46013372E+01 -1.39203349E+01  2.42145046E+01 -2.46013372E+01 -1.39203349E+01
  2.14001128E+01 -3.21472498E+01 -2.03386876E+01  2.14001128E+01 -3.21472498E+01
 -2.03386876E+01  2.14001128E+01 -3.21472498E+01 -2.03386876E+01  2.14001128E+01
 -3.21472498E+01 -2.03386876E+01  1.55337188E+01 -2.59511213E+01 -1.66033699E+01
  1.55337188E+01 -2.59511213E+01 -1.66033699E+01  1.55337188E+01 -2.59511213E+01
 -1.66033699E+01  1.61624534E+01 -2.83754831E+01 -1.79860013E+01  1.61624534E+01
 -2.83754831E+01 -1.79860013E+01  1.61624534E+01 -2.83754831E+01 -1.79860013E+01
  2.32179689E+01 -2.86518083E+01 -2.03139039E+01  2.32179689E+01 -2.86518083E+01
 -2.03139039E+01  2.32179689E+01 -2.86518083E+01 -2.03139039E+01  2.57676610E+01
 -2.74243858E+01 -1.98931866E+01  2.57676610E+01 -2.74243858E+01 -1.98931866E+01
  2.57676610E+01 -2.74243858E+01 -1.98931866E+01  1.63906983E+01 -3.25393132E+01
 -1.58457088E+01  1.63906983E+01 -3.25393132E+01 -1.58457088E+01  1.63906983E+01
 -3.25393132E+01 -1.58457088E+01  1.56895513E+01 -3.29254069E+01 -1.85923124E+01
  1.56895513E+01 -3.29254069E+01 -1.85923124E+01  1.56895513E+01 -3.29254069E+01
 -1.85923124E+01  2.05307462E+01 -2.90181619E+01 -1.56054812E+01  2.05307462E+01
 -2.90181619E+01 -1.56054812E+01  2.05307462E+01 -2.90181619E+01 -1.56054812E+01
  2.25019856E+01 -2.74096119E+01 -1.42973126E+01  2.25019856E+01 -2.74096119E+01
 -1.42973126E+01  2.25019856E+01 -2.74096119E+01 -1.42973126E+01  2.35873725E+01
 -2.34649901E+01 -1.26604337E+01  2.35873725E+01 -2.34649901E+01 -1.26604337E+01
  2.35873725E+01 -2.34649901E+01 -1.26604337E+01  2.39147676E+01 -2.37503916E+01
 -1.54881292E+01  2.39147676E+01 -2.37503916E+01 -1.54881292E+01  2.39147676E+01
 -2.37503916E+01 -1.54881292E+01  2.21410612E+01 -3.37567560E+01 -1.99748058E+01
  2.21410612E+01 -3.37567560E+01 -1.99748058E+01  2.21410612E+01 -3.37567560E+01
 -1.99748058E+01  1.97339942E+01 -3.22469688E+01 -1.96415299E+01  1.97339942E+01
 -3.22469688E+01 -1.96415299E+01  1.97339942E+01 -3.22469688E+01 -1.96415299E+01
Num ILSW                                   I              100
ILSW                                       I   N=         100
           0           0           0           0           2           0
           0           0           0           0           0          -1
           5           0           0           0           0           0
           0           0           0           0           0           0
           1           1           0           0           0           0
           0           0      100000           0          -1           0
           0           0           0           0           0           0
           0           0           0           1           0           0
           0 -2000000000           1           0           0           0
           0           0           4          52           0           0
           0           1           0           0           0           0
           0           0           0          18           0           1
           0           0           0           0           0           0
           0           0           0           0           0           0
           0           0           0           0           0           0
           0           0           0           0           0           0
           0           0           0           0
Num RLSW                                   I               52
RLSW                                       R   N=          52
  1.00000000E+00  1.00000000E+00  1.00000000E+00  1.00000000E+00  1.00000000E+00
  0.00000000E+00  0.00000000E+00  1.00000000E+00  0.00000000E+00  0.00000000E+00
  0.00000000E+00  0.00000000E+00  1.00000000E+00  0.00000000E+00  0.00000000E+00
  0.00000000E+00  0.00000000E+00  1.00000000E+00  0.00000000E+00  0.00000000E+00
  0.00000000E+00  0.00000000E+00  1.00000000E+00  0.00000000E+00  0.00000000E+00
  0.00000000E+00  0.00000000E+00  1.00000000E+00  0.00000000E+00  0.00000000E+00
  0.00000000E+00  0.00000000E+00  1.00000000E+00  0.00000000E+00  0.00000000E+00
  0.00000000E+00  0.00000000E+00  0.00000000E+00  1.00000000E+00  1.00000000E+00
  0.00000000E+00  1.00000000E+00  0.00000000E+00  0.00000000E+00  0.00000000E+00
  0.00000000E+00  0.00000000E+00  0.00000000E+00  0.00000000E+00  0.00000000E+00
  0.00000000E+00  0.00000000E+00
MxBond                                     I                2
NBond                                      I   N=          18
           2           2           2           2           2           2
           1           1           1           1           1           1
           1           1           1           1           1           1
IBond                                      I   N=          36
           7           8           9          10          11          12
          13          14          15          16          17          18
           1           0           1           0           2           0
           2           0           3           0           3           0
           4           0           4           0           5           0
           5           0           6           0           6           0
RBond                                      R   N=          36
  1.00000000E+00  1.00000000E+00  1.00000000E+00  1.00000000E+00  1.00000000E+00
  1.00000000E+00  1.00000000E+00  1.00000000E+00  1.00000000E+00  1.00000000E+00
  1.00000000E+00  1.00000000E+00  1.00000000E+00  0.00000000E+00  1.00000000E+00
  0.00000000E+00  1.00000000E+00  0.00000000E+00  1.00000000E+00  0.00000000E+00
  1.00000000E+00  0.00000000E+00  1.00000000E+00  0.00000000E+00  1.00000000E+00
  0.00000000E+00  1.00000000E+00  0.00000000E+00  1.00000000E+00  0.00000000E+00
  1.00000000E+00  0.00000000E+00  1.00000000E+00  0.00000000E+00  1.00000000E+00
  0.00000000E+00
Virial Ratio                               R      2.029428116318264E+00
SCF Energy                                 R     -4.689240965631917E+02
Total Energy                               R     -4.689240965631917E+02
RMS Density                                R      5.680676975801722E-09
Job Status                                 I                1
Nuclear derivative order                   I                0
External E-field                           R   N=          35
  0.00000000E+00  0.00000000E+00  0.00000000E+00  0.00000000E+00  0.00000000E+00
  0.00000000E+00  0.00000000E+00  0.00000000E+00  0.00000000E+00  0.00000000E+00
  0.00000000E+00  0.00000000E+00  0.00000000E+00  0.00000000E+00  0.00000000E+00
  0.00000000E+00  0.00000000E+00  0.00000000E+00  0.00000000E+00  0.00000000E+00
  0.00000000E+00  0.00000000E+00  0.00000000E+00  0.00000000E+00  0.00000000E+00
  0.00000000E+00  0.00000000E+00  0.00000000E+00  0.00000000E+00  0.00000000E+00
  0.00000000E+00  0.00000000E+00  0.00000000E+00  0.00000000E+00  0.00000000E+00
IOpCl                                      I                0
IROHF                                      I                0
Alpha Orbital Energies                     R   N=         144
 -2.06572614E+01 -2.06234009E+01 -2.05976773E+01 -2.05635627E+01 -2.05575508E+01
 -2.05456431E+01 -1.44187200E+00 -1.40975015E+00 -1.38146662E+00 -1.35068054E+00
 -1.33990404E+00 -1.33366750E+00 -8.02046113E-01 -7.69015096E-01 -7.49637217E-01
 -7.27992517E-01 -7.14472911E-01 -7.08936652E-01 -6.62096761E-01 -6.31211462E-01
 -6.24714939E-01 -5.96137773E-01 -5.83549195E-01 -5.79598241E-01 -5.63037696E-01
 -5.43026942E-01 -5.37952992E-01 -5.05967852E-01 -4.97196047E-01 -4.90593558E-01
  1.22641797E-01  1.55038917E-01  2.05982152E-01  2.15234867E-01  2.33787793E-01
  2.40617537E-01  2.74910191E-01  2.87067763E-01  3.43265215E-01  3.78473186E-01
  4.10016697E-01  4.40828374E-01  9.09147797E-01  9.34121870E-01  9.60916358E-01
  9.93907026E-01  1.00767162E+00  1.01087286E+00  1.01979406E+00  1.03854441E+00
  1.06244577E+00  1.07116438E+00  1.07840786E+00  1.10345602E+00  1.10693389E+00
  1.11899805E+00  1.14092508E+00  1.14415608E+00  1.16554218E+00  1.18148603E+00
  1.19254274E+00  1.19558703E+00  1.21935596E+00  1.22770895E+00  1.25341159E+00
  1.27940422E+00  1.29265266E+00  1.30729367E+00  1.32114446E+00  1.34436314E+00
  1.35145697E+00  1.45492827E+00  1.51866068E+00  1.59046287E+00  1.63366405E+00
  1.69800351E+00  1.70149047E+00  1.72963881E+00  1.74265397E+00  1.75204762E+00
  1.75714158E+00  1.77748370E+00  1.78764455E+00  1.79776006E+00  1.81471550E+00
  1.82543555E+00  1.83616439E+00  1.83896859E+00  1.86618769E+00  1.87292983E+00
  1.90458447E+00  1.91377554E+00  1.93193261E+00  1.96328655E+00  1.98411262E+00
  2.01868618E+00  2.47827834E+00  2.49307118E+00  2.51140649E+00  2.51455568E+00
  2.54495468E+00  2.56130258E+00  2.58264645E+00  2.59664477E+00  2.59933490E+00
  2.62805108E+00  2.67043991E+00  2.71990311E+00  2.73928423E+00  2.75324886E+00
  2.77644577E+00  2.81203588E+00  2.82864860E+00  2.87549883E+00  2.92422742E+00
  2.92926629E+00  2.93024694E+00  2.95152805E+00  2.97451321E+00  2.97598414E+00
  2.97956636E+00  2.99141311E+00  3.00090090E+00  3.02494836E+00  3.04003887E+00
  3.04635957E+00  3.30675938E+00  3.33011447E+00  3.34906174E+00  3.37941635E+00
  3.39498290E+00  3.40097316E+00  3.67791009E+00  3.69600899E+00  3.73217157E+00
  3.77210725E+00  3.78497657E+00  3.83185243E+00  3.86990035E+00  3.89152898E+00
  3.92891992E+00  3.95198532E+00  3.98462559E+00  4.03913534E+00
Alpha MO coefficients                      R   N=       20736
  9.37252706E-05  2.62729814E-04 -8.69141658E-06 -4.67782186E-05 -2.26735403E-05
 -9.15593762E-04  3.33642319E-05  6.29275459E-04  9.03688150E-05  6.87108568E-05
 -1.12299837E-06  1.87255461E-05  1.13196333E-04 -1.65327661E-05 -9.90382510E-06
 -3.20630543E-05  3.70795722E-06 -3.99297161E-06 -4.29045431E-07  1.44328802E-04
 -7.67851034E-05 -3.26234725E-05  3.69772722E-05 -1.15295401E-06 -1.20095304E-05
 -7.95183797E-06  6.38944207E-06  1.16921371E-05  9.95701725E-01  2.22482474E-02
 -1.57865730E-03 -9.06547840E-04  4.86107049E-04 -6.19824308E-03  3.34308833E-04
  3.77699106E-05  2.26735237E-04  4.03598130E-04  9.59268294E-05  6.94711451E-06
  1.13555501E-04  2.72903450E-04  2.26310081E-06  1.53130859E-05 -2.03779011E-06
 -5.07619206E-06  3.68736762E-06 -5.41779851E-05  6.49615086E-05  3.65051913E-05
  4.71655933E-05 -1.23782930E-05 -2.23370745E-05 -1.88447399E-06 -1.24305982E-05
  4.55427251E-06 -3.13291177E-06 -3.54903784E-06  1.02289977E-06  1.51514327E-06
  3.34806126E-07  8.14766528E-06 -5.19027680E-06 -9.88102967E-06 -2.80842618E-06
 -2.47090761E-07  6.35725301E-07 -2.91829765E-07 -1.09075704E-07  1.18842211E-06
  6.06854592E-05  2.67917642E-04 -7.88697644E-05  1.15372161E-06 -2.04696607E-06
 -9.38020267E-04  6.09603547E-04 -1.48517228E-05 -1.71889977E-04  1.17678949E-05
  7.66753945E-05  2.29598457E-06 -6.87151655E-05 -5.80116091E-06  4.92075654E-05
 -2.95738339E-04 -2.26110268E-05 -7.62922043E-06  2.29722602E-05  1.30328746E-04
  1.26950800E-03  8.17204276E-05  5.68712430E-05  9.27991646E-06 -4.13912352E-06
 -2.16439794E-04 -2.48194521E-05 -8.97519850E-06  1.86793558E-05 -1.10485813E-05
  4.31280149E-05  7.58822782E-07 -1.46291664E-06 -3.56473788E-06 -6.57293926E-04
  9.51064097E-04 -3.97163782E-04 -2.53508362E-04  1.14121283E-03 -4.01326412E-04
  9.23318825E-04 -8.18932300E-04 -4.82838582E-04 -7.12643061E-04  1.06517292E-05
  6.76754579E-05  3.00498684E-05  5.74848081E-07  3.74416480E-05 -1.04853599E-05
 -4.87213765E-05 -8.02267818E-08  8.16743799E-06 -4.65726634E-06  3.57485765E-07
  3.40452852E-06  9.10131947E-07 -1.68065130E-08 -4.95071915E-07 -2.66191304E-06
  4.71877594E-06  3.76974170E-07  5.39832251E-07  4.23168017E-07  4.38817075E-05
 -2.47461405E-04 -1.33758560E-05 -2.51711652E-05  2.71308067E-06  1.43838140E-04
  1.38230573E-03 -6.09437813E-06  1.69054732E-05  8.00939773E-05 -1.14563227E-05
 -7.72515817E-06 -5.93621795E-06  3.29241297E-06 -4.52307665E-06  3.98279936E-06
  1.69045472E-05 -2.84675984E-06  1.99800204E-05 -1.13011539E-06  2.32267401E-06
 -3.44638079E-06 -1.65994740E-06 -3.25040564E-06 -1.73268259E-05 -4.09966169E-05
 -3.97303890E-06  4.19672387E-06  9.10718302E-06  1.90134245E-04  1.77264602E-05
 -1.74392754E-05  3.50377657E-05 -3.75681205E-07  7.57381347E-06 -1.81523929E-06
  4.75558799E-06  7.15448240E-06  3.81387946E-06  2.21610534E-06 -7.42139146E-06
 -7.00252689E-06 -6.90890166E-06 -2.73077084E-05  3.64071728E-05  2.97299682E-05
  6.34661275E-05  6.54974631E-06 -7.25939860E-06 -5.01216252E-06 -3.62888527E-06
 -8.48634803E-07  1.02368801E-04  3.94081621E-04  6.25048161E-05  8.62394805E-05
  8.66119666E-06 -1.32507755E-03 -4.75241317E-04 -7.16076565E-04 -8.94462282E-05
  5.91280215E-05 -2.72794995E-06 -4.43718505E-06  6.08451426E-05 -8.22336968E-05
  9.95705722E-01  2.22615156E-02 -1.02227145E-03  1.65025138E-03 -2.92528334E-04
 -6.37003729E-03  7.51878659E-04 -9.61959443E-05  2.50321885E-04  3.99611651E-04