Atom number=12                                                          
SP        RHF                                                         6-31G(d,p)          
Number of atoms                            I               12
Info1-9                                    I   N=           9
         107         106           0           0           0         111
           1           1           2
Full Title                                 C   N=           2
Atom number=12          
Route                                      C   N=           4
#p hf/6-31g** 5d 7f pop=npa charge nosymm       
Charge                                     I                0
Multiplicity                               I                1
Number of electrons                        I               40
Number of alpha electrons                  I               20
Number of beta electrons                   I               20
Number of basis functions                  I               96
Number of independent functions            I               96
Number of point charges in /Mol/           I                0
Number of translation vectors              I                0
Atomic numbers                             I   N=          12
           8           8           8           8           1           1
           1           1           1           1           1           1
Nuclear charges                            R   N=          12
  8.00000000E+00  8.00000000E+00  8.00000000E+00  8.00000000E+00  1.00000000E+00
  1.00000000E+00  1.00000000E+00  1.00000000E+00  1.00000000E+00  1.00000000E+00
  1.00000000E+00  1.00000000E+00
Current cartesian coordinates              R   N=          36
  1.90577217E+01 -1.81470343E+01 -2.58786843E+01  1.59711829E+01 -2.00983315E+01
 -2.96421136E+01  1.60474257E+01 -2.67578000E+01 -2.96895325E+01  2.01732119E+01
 -2.25352958E+01 -2.98939423E+01  1.85910557E+01 -1.86665521E+01 -2.75472898E+01
  1.75122961E+01 -1.81949823E+01 -2.49399156E+01  1.53540909E+01 -1.96661077E+01
 -3.12865930E+01  1.75030005E+01 -2.10073446E+01 -2.99570119E+01  1.67126282E+01
 -2.84285107E+01 -2.98848829E+01  1.68532352E+01 -2.61200080E+01 -2.82009707E+01
  2.10617025E+01 -2.31675113E+01 -2.84507471E+01  2.03511466E+01 -2.38337078E+01
 -3.11406929E+01
Number of symbols in /Mol/                 I                0
Force Field                                I                0
Atom Types                                 C   N=          12
                                                            
                                                            
                        
Int Atom Types                             I   N=          12
           0           0           0           0           0           0
           0           0           0           0           0           0
MM charges                                 R   N=          12
  0.00000000E+00  0.00000000E+00  0.00000000E+00  0.00000000E+00  0.00000000E+00
  0.00000000E+00  0.00000000E+00  0.00000000E+00  0.00000000E+00  0.00000000E+00
  0.00000000E+00  0.00000000E+00
Integer atomic weights                     I   N=          12
          16          16          16          16           1           1
           1           1           1           1           1           1
Real atomic weights                        R   N=          12
  1.59949146E+01  1.59949146E+01  1.59949146E+01  1.59949146E+01  1.00782504E+00
  1.00782504E+00  1.00782504E+00  1.00782504E+00  1.00782504E+00  1.00782504E+00
  1.00782504E+00  1.00782504E+00
Atom fragment info                         I   N=          12
           0           0           0           0           0           0
           0           0           0           0           0           0
Atom residue num                           I   N=          12
           0           0           0           0           0           0
           0           0           0           0           0           0
Nuclear spins                              I   N=          12
           0           0           0           0           1           1
           1           1           1           1           1           1
Nuclear ZEff                               R   N=          12
 -5.60000000E+00 -5.60000000E+00 -5.60000000E+00 -5.60000000E+00 -1.00000000E+00
 -1.00000000E+00 -1.00000000E+00 -1.00000000E+00 -1.00000000E+00 -1.00000000E+00
 -1.00000000E+00 -1.00000000E+00
Nuclear ZNuc                               R   N=          12
  8.00000000E+00  8.00000000E+00  8.00000000E+00  8.00000000E+00  1.00000000E+00
  1.00000000E+00  1.00000000E+00  1.00000000E+00  1.00000000E+00  1.00000000E+00
  1.00000000E+00  1.00000000E+00
Nuclear QMom                               R   N=          12
  0.00000000E+00  0.00000000E+00  0.00000000E+00  0.00000000E+00  0.00000000E+00
  0.00000000E+00  0.00000000E+00  0.00000000E+00  0.00000000E+00  0.00000000E+00
  0.00000000E+00  0.00000000E+00
Nuclear GFac                               R   N=          12
  0.00000000E+00  0.00000000E+00  0.00000000E+00  0.00000000E+00  2.79284600E+00
  2.79284600E+00  2.79284600E+00  2.79284600E+00  2.79284600E+00  2.79284600E+00
  2.79284600E+00  2.79284600E+00
MicOpt                                     I   N=          12
          -1          -1          -1          -1          -1          -1
          -1          -1          -1          -1          -1          -1
Number of residues                         I                0
Number of secondary structures             I                0
Number of contracted shells                I               40
Number of primitive shells                 I               84
Pure/Cartesian d shells                    I                0
Pure/Cartesian f shells                    I                0
Highest angular momentum                   I                2
Largest degree of contraction              I                6
Shell types                                I   N=          40
           0          -1          -1          -2           0          -1
          -1          -2           0          -1          -1          -2
           0          -1          -1          -2           0           0
           1           0           0           1           0           0
           1           0           0           1           0           0
           1           0           0           1           0           0
           1           0           0           1
Number of primitives per shell             I   N=          40
           6           3           1           1           6           3
           1           1           6           3           1           1
           6           3           1           1           3           1
           1           3           1           1           3           1
           1           3           1           1           3           1
           1           3           1           1           3           1
           1           3           1           1
Shell to atom map                          I   N=          40
           1           1           1           1           2           2
           2           2           3           3           3           3
           4           4           4           4           5           5
           5           6           6           6           7           7
           7           8           8           8           9           9
           9          10          10          10          11          11
          11          12          12          12
Primitive exponents                        R   N=          84
  5.48467166E+03  8.25234946E+02  1.88046958E+02  5.29645000E+01  1.68975704E+01
  5.79963534E+00  1.55396162E+01  3.59993359E+00  1.01376175E+00  2.70005823E-01
  8.00000000E-01  5.48467166E+03  8.25234946E+02  1.88046958E+02  5.29645000E+01
  1.68975704E+01  5.79963534E+00  1.55396162E+01  3.59993359E+00  1.01376175E+00
  2.70005823E-01  8.00000000E-01  5.48467166E+03  8.25234946E+02  1.88046958E+02
  5.29645000E+01  1.68975704E+01  5.79963534E+00  1.55396162E+01  3.59993359E+00
  1.01376175E+00  2.70005823E-01  8.00000000E-01  5.48467166E+03  8.25234946E+02
  1.88046958E+02  5.29645000E+01  1.68975704E+01  5.79963534E+00  1.55396162E+01
  3.59993359E+00  1.01376175E+00  2.70005823E-01  8.00000000E-01  1.87311370E+01
  2.82539436E+00  6.40121692E-01  1.61277759E-01  1.10000000E+00  1.87311370E+01
  2.82539436E+00  6.40121692E-01  1.61277759E-01  1.10000000E+00  1.87311370E+01
  2.82539436E+00  6.40121692E-01  1.61277759E-01  1.10000000E+00  1.87311370E+01
  2.82539436E+00  6.40121692E-01  1.61277759E-01  1.10000000E+00  1.87311370E+01
  2.82539436E+00  6.40121692E-01  1.61277759E-01  1.10000000E+00  1.87311370E+01
  2.82539436E+00  6.40121692E-01  1.61277759E-01  1.10000000E+00  1.87311370E+01
  2.82539436E+00  6.40121692E-01  1.61277759E-01  1.10000000E+00  1.87311370E+01
  2.82539436E+00  6.40121692E-01  1.61277759E-01  1.10000000E+00
Contraction coefficients                   R   N=          84
  1.83107443E-03  1.39501722E-02  6.84450781E-02  2.32714336E-01  4.70192898E-01
  3.58520853E-01 -1.10777550E-01 -1.48026263E-01  1.13076702E+00  1.00000000E+00
  1.00000000E+00  1.83107443E-03  1.39501722E-02  6.84450781E-02  2.32714336E-01
  4.70192898E-01  3.58520853E-01 -1.10777550E-01 -1.48026263E-01  1.13076702E+00
  1.00000000E+00  1.00000000E+00  1.83107443E-03  1.39501722E-02  6.84450781E-02
  2.32714336E-01  4.70192898E-01  3.58520853E-01 -1.10777550E-01 -1.48026263E-01
  1.13076702E+00  1.00000000E+00  1.00000000E+00  1.83107443E-03  1.39501722E-02
  6.84450781E-02  2.32714336E-01  4.70192898E-01  3.58520853E-01 -1.10777550E-01
 -1.48026263E-01  1.13076702E+00  1.00000000E+00  1.00000000E+00  3.34946043E-02
  2.34726953E-01  8.13757326E-01  1.00000000E+00  1.00000000E+00  3.34946043E-02
  2.34726953E-01  8.13757326E-01  1.00000000E+00  1.00000000E+00  3.34946043E-02
  2.34726953E-01  8.13757326E-01  1.00000000E+00  1.00000000E+00  3.34946043E-02
  2.34726953E-01  8.13757326E-01  1.00000000E+00  1.00000000E+00  3.34946043E-02
  2.34726953E-01  8.13757326E-01  1.00000000E+00  1.00000000E+00  3.34946043E-02
  2.34726953E-01  8.13757326E-01  1.00000000E+00  1.00000000E+00  3.34946043E-02
  2.34726953E-01  8.13757326E-01  1.00000000E+00  1.00000000E+00  3.34946043E-02
  2.34726953E-01  8.13757326E-01  1.00000000E+00  1.00000000E+00
P(S=P) Contraction coefficients            R   N=          84
  0.00000000E+00  0.00000000E+00  0.00000000E+00  0.00000000E+00  0.00000000E+00
  0.00000000E+00  7.08742682E-02  3.39752839E-01  7.27158577E-01  1.00000000E+00
  0.00000000E+00  0.00000000E+00  0.00000000E+00  0.00000000E+00  0.00000000E+00
  0.00000000E+00  0.00000000E+00  7.08742682E-02  3.39752839E-01  7.27158577E-01
  1.00000000E+00  0.00000000E+00  0.00000000E+00  0.00000000E+00  0.00000000E+00
  0.00000000E+00  0.00000000E+00  0.00000000E+00  7.08742682E-02  3.39752839E-01
  7.27158577E-01  1.00000000E+00  0.00000000E+00  0.00000000E+00  0.00000000E+00
  0.00000000E+00  0.00000000E+00  0.00000000E+00  0.00000000E+00  7.08742682E-02
  3.39752839E-01  7.27158577E-01  1.00000000E+00  0.00000000E+00  0.00000000E+00
  0.00000000E+00  0.00000000E+00  0.00000000E+00  0.00000000E+00  0.00000000E+00
  0.00000000E+00  0.00000000E+00  0.00000000E+00  0.00000000E+00  0.00000000E+00
  0.00000000E+00  0.00000000E+00  0.00000000E+00  0.00000000E+00  0.00000000E+00
  0.00000000E+00  0.00000000E+00  0.00000000E+00  0.00000000E+00  0.00000000E+00
  0.00000000E+00  0.00000000E+00  0.00000000E+00  0.00000000E+00  0.00000000E+00
  0.00000000E+00  0.00000000E+00  0.00000000E+00  0.00000000E+00  0.00000000E+00
  0.00000000E+00  0.00000000E+00  0.00000000E+00  0.00000000E+00  0.00000000E+00
  0.00000000E+00  0.00000000E+00  0.00000000E+00  0.00000000E+00
Coordinates of each shell                  R   N=         120
  1.90577217E+01 -1.81470343E+01 -2.58786843E+01  1.90577217E+01 -1.81470343E+01
 -2.58786843E+01  1.90577217E+01 -1.81470343E+01 -2.58786843E+01  1.90577217E+01
 -1.81470343E+01 -2.58786843E+01  1.59711829E+01 -2.00983315E+01 -2.96421136E+01
  1.59711829E+01 -2.00983315E+01 -2.96421136E+01  1.59711829E+01 -2.00983315E+01
 -2.96421136E+01  1.59711829E+01 -2.00983315E+01 -2.96421136E+01  1.60474257E+01
 -2.67578000E+01 -2.96895325E+01  1.60474257E+01 -2.67578000E+01 -2.96895325E+01
  1.60474257E+01 -2.67578000E+01 -2.96895325E+01  1.60474257E+01 -2.67578000E+01
 -2.96895325E+01  2.01732119E+01 -2.25352958E+01 -2.98939423E+01  2.01732119E+01
 -2.25352958E+01 -2.98939423E+01  2.01732119E+01 -2.25352958E+01 -2.98939423E+01
  2.01732119E+01 -2.25352958E+01 -2.98939423E+01  1.85910557E+01 -1.86665521E+01
 -2.75472898E+01  1.85910557E+01 -1.86665521E+01 -2.75472898E+01  1.85910557E+01
 -1.86665521E+01 -2.75472898E+01  1.75122961E+01 -1.81949823E+01 -2.49399156E+01
  1.75122961E+01 -1.81949823E+01 -2.49399156E+01  1.75122961E+01 -1.81949823E+01
 -2.49399156E+01  1.53540909E+01 -1.96661077E+01 -3.12865930E+01  1.53540909E+01
 -1.96661077E+01 -3.12865930E+01  1.53540909E+01 -1.96661077E+01 -3.12865930E+01
  1.75030005E+01 -2.10073446E+01 -2.99570119E+01  1.75030005E+01 -2.10073446E+01
 -2.99570119E+01  1.75030005E+01 -2.10073446E+01 -2.99570119E+01  1.67126282E+01
 -2.84285107E+01 -2.98848829E+01  1.67126282E+01 -2.84285107E+01 -2.98848829E+01
  1.67126282E+01 -2.84285107E+01 -2.98848829E+01  1.68532352E+01 -2.61200080E+01
 -2.82009707E+01  1.68532352E+01 -2.61200080E+01 -2.82009707E+01  1.68532352E+01
 -2.61200080E+01 -2.82009707E+01  2.10617025E+01 -2.31675113E+01 -2.84507471E+01
  2.10617025E+01 -2.31675113E+01 -2.84507471E+01  2.10617025E+01 -2.31675113E+01
 -2.84507471E+01  2.03511466E+01 -2.38337078E+01 -3.11406929E+01  2.03511466E+01
 -2.38337078E+01 -3.11406929E+01  2.03511466E+01 -2.38337078E+01 -3.11406929E+01
Num ILSW                                   I              100
ILSW                                       I   N=         100
           0           0           0           0           2           0
           0           0           0           0           0          -1
           5           0           0           0           0           0
           0           0           0           0           0           0
           1           1           0           0           0           0
           0           0      100000           0          -1           0
           0           0           0           0           0           0
           0           0           0           1           0           0
           0 -2000000000           1           0           0           0
           0           0           4          52           0           0
           0           1           0           0           0           0
           0           0           0          12           0           1
           0           0           0           0           0           0
           0           0           0           0           0           0
           0           0           0           0           0           0
           0           0           0           0           0           0
           0           0           0           0
Num RLSW                                   I               52
RLSW                                       R   N=          52
  1.00000000E+00  1.00000000E+00  1.00000000E+00  1.00000000E+00  1.00000000E+00
  0.00000000E+00  0.00000000E+00  1.00000000E+00  0.00000000E+00  0.00000000E+00
  0.00000000E+00  0.00000000E+00  1.00000000E+00  0.00000000E+00  0.00000000E+00
  0.00000000E+00  0.00000000E+00  1.00000000E+00  0.00000000E+00  0.00000000E+00
  0.00000000E+00  0.00000000E+00  1.00000000E+00  0.00000000E+00  0.00000000E+00
  0.00000000E+00  0.00000000E+00  1.00000000E+00  0.00000000E+00  0.00000000E+00
  0.00000000E+00  0.00000000E+00  1.00000000E+00  0.00000000E+00  0.00000000E+00
  0.00000000E+00  0.00000000E+00  0.00000000E+00  1.00000000E+00  1.00000000E+00
  0.00000000E+00  1.00000000E+00  0.00000000E+00  0.00000000E+00  0.00000000E+00
  0.00000000E+00  0.00000000E+00  0.00000000E+00  0.00000000E+00  0.00000000E+00
  0.00000000E+00  0.00000000E+00
MxBond                                     I                2
NBond                                      I   N=          12
           2           2           2           2           1           1
           1           1           1           1           1           1
IBond                                      I   N=          24
           5           6           7           8           9          10
          11          12           1           0           1           0
           2           0           2           0           3           0
           3           0           4           0           4           0
RBond                                      R   N=          24
  1.00000000E+00  1.00000000E+00  1.00000000E+00  1.00000000E+00  1.00000000E+00
  1.00000000E+00  1.00000000E+00  1.00000000E+00  1.00000000E+00  0.00000000E+00
  1.00000000E+00  0.00000000E+00  1.00000000E+00  0.00000000E+00  1.00000000E+00
  0.00000000E+00  1.00000000E+00  0.00000000E+00  1.00000000E+00  0.00000000E+00
  1.00000000E+00  0.00000000E+00  1.00000000E+00  0.00000000E+00
Virial Ratio                               R      2.046226184441816E+00
SCF Energy                                 R     -3.177490401644990E+02
Total Energy                               R     -3.177490401644990E+02
RMS Density                                R      7.068980626659474E-09
Job Status                                 I                1
Nuclear derivative order                   I                0
External E-field                           R   N=          35
  0.00000000E+00  0.00000000E+00  0.00000000E+00  0.00000000E+00  0.00000000E+00
  0.00000000E+00  0.00000000E+00  0.00000000E+00  0.00000000E+00  0.00000000E+00
  0.00000000E+00  0.00000000E+00  0.00000000E+00  0.00000000E+00  0.00000000E+00
  0.00000000E+00  0.00000000E+00  0.00000000E+00  0.00000000E+00  0.00000000E+00
  0.00000000E+00  0.00000000E+00  0.00000000E+00  0.00000000E+00  0.00000000E+00
  0.00000000E+00  0.00000000E+00  0.00000000E+00  0.00000000E+00  0.00000000E+00
  0.00000000E+00  0.00000000E+00  0.00000000E+00  0.00000000E+00  0.00000000E+00
IOpCl                                      I                0
IROHF                                      I                0
Alpha Orbital Energies                     R   N=          96
 -2.05951297E+01 -2.05449233E+01 -2.05321077E+01 -2.05143140E+01 -1.38426976E+00
 -1.33596283E+00 -1.31386847E+00 -1.29811059E+00 -7.41647696E-01 -7.29455656E-01
 -6.77444528E-01 -6.61283458E-01 -6.16422376E-01 -5.68204242E-01 -5.45085634E-01
 -5.38236460E-01 -5.31385019E-01 -4.84161441E-01 -4.70089208E-01 -4.59409260E-01
  1.81974040E-01  2.45826614E-01  2.68602358E-01  2.82679462E-01  3.20268780E-01
  3.57571242E-01  4.24591980E-01  4.87975571E-01  9.43775104E-01  9.67213206E-01
  1.02959369E+00  1.04578694E+00  1.06335289E+00  1.08665385E+00  1.10314299E+00
  1.13507579E+00  1.14377552E+00  1.15759941E+00  1.19690794E+00  1.22339556E+00
  1.24626785E+00  1.27636647E+00  1.30433687E+00  1.32282546E+00  1.33893549E+00
  1.37009123E+00  1.39284612E+00  1.42681813E+00  1.59514193E+00  1.63904284E+00
  1.69988086E+00  1.77153617E+00  1.78577012E+00  1.79742281E+00  1.82596992E+00
  1.83501055E+00  1.85566069E+00  1.86338103E+00  1.89528680E+00  1.93273619E+00
  1.94927492E+00  1.95741925E+00  2.00860296E+00  2.02781488E+00  2.51755768E+00
  2.56016463E+00  2.60770021E+00  2.61851063E+00  2.62716829E+00  2.65360899E+00
  2.67267925E+00  2.73735530E+00  2.78593210E+00  2.84527153E+00  2.86179836E+00
  2.91088781E+00  2.94808561E+00  2.98238883E+00  3.00947171E+00  3.02508013E+00
  3.03275154E+00  3.03744835E+00  3.06322336E+00  3.11403898E+00  3.35416962E+00
  3.40363344E+00  3.40897972E+00  3.48839046E+00  3.73580786E+00  3.78280373E+00
  3.81858164E+00  3.83855784E+00  3.89565496E+00  3.96311129E+00  4.01701321E+00
  4.12217269E+00
Alpha MO coefficients                      R   N=        9216
  3.99442524E-06  3.07474931E-05  2.37294482E-06 -7.56176019E-06  5.68727669E-06
 -8.29534681E-05  1.46518907E-05  6.21034037E-05  7.89715263E-05 -1.65903164E-05
 -1.83557272E-05 -2.18451758E-05  3.74026844E-06 -9.19207892E-06  1.33495942E-04
  4.29971285E-04  7.58740993E-05 -5.74264388E-05 -1.07635207E-05 -1.59793671E-03
 -7.39673658E-04  4.78827570E-04  9.59744990E-05  3.29653063E-05  2.53371849E-06
  2.18343242E-06 -4.06000224E-05  9.53767900E-05 -4.17051824E-06  3.76794281E-05
 -7.75361271E-06  1.44539659E-05 -9.00522426E-06 -7.80796480E-05 -1.04232210E-05
 -1.30799020E-04 -2.54840149E-05 -6.75360247E-06 -3.51214001E-06 -2.45168014E-06
 -2.04585950E-06 -2.15452488E-05  9.95699120E-01  2.23315717E-02  7.13161395E-04
 -1.64914591E-03  1.84624722E-04 -6.47528638E-03  4.87766757E-04  2.11870616E-04
  5.08656702E-05  3.57767493E-04  2.56219657E-04  1.24651725E-04 -1.90151996E-04
 -8.75985236E-05 -1.24938724E-05 -4.42274611E-07 -2.05228073E-06  3.16349222E-05
  6.42563664E-05  2.18194811E-05 -5.58282965E-05 -9.86830549E-06 -6.62719655E-06
 -2.12002544E-06  1.67093548E-04 -4.36110582E-04  1.27051080E-06 -5.78981308E-06
 -3.20070688E-06  2.53331164E-04  2.40093167E-03  1.05943470E-04 -8.60407322E-05
  8.03216825E-05 -9.85586283E-06 -1.08045242E-04  6.77490638E-06 -1.87095885E-05
 -4.91275748E-06 -6.08446275E-06  1.07460925E-04 -1.94478146E-05 -8.17851017E-06
 -2.62761289E-05 -6.57581358E-04  9.57470301E-04  5.57365663E-04 -4.38793849E-04
  9.88299818E-04 -5.05948319E-04  1.01158658E-03  5.98344260E-05 -8.48784046E-04
 -8.19233213E-04  5.12439598E-05  1.72028322E-04  2.92058963E-05 -1.29637322E-05
 -3.16199240E-05 -5.49499152E-04 -3.54221140E-06  1.20811490E-04  3.25543399E-04
 -2.32811373E-05 -8.06061907E-05 -3.34462701E-05  1.73113388E-05 -2.38455186E-05
  9.95724624E-01  2.25867034E-02  8.28161701E-04 -3.57436726E-04 -1.76078253E-03
 -7.90428811E-03 -1.50388781E-03  7.00359297E-04  7.39451747E-04  2.11406066E-04
  1.81301923E-04 -1.50957006E-04  7.24677721E-05 -1.93775637E-04  5.58646000E-05
  2.24448001E-05 -3.03625905E-06  3.14152487E-05 -1.07500738E-05  1.81297447E-05
  2.32158700E-05 -1.67343808E-04  3.38103323E-06 -1.42353502E-05 -1.25573092E-05
 -2.85607665E-06  5.79909000E-07 -3.06097988E-05 -9.04909480E-05  4.11288873E-04
 -1.55592190E-04  1.27142728E-04 -2.53232574E-05 -9.51098709E-04  1.06403433E-03
 -7.81515411E-04  1.60860536E-04  1.03381338E-04  5.09606109E-06 -2.81150630E-05
 -9.79723049E-05  1.15408148E-04  4.06306099E-05  6.33670451E-04 -1.49695908E-04
  5.20533861E-07  3.34646377E-05 -5.16769312E-05 -5.21238036E-05 -2.52214714E-05
 -1.04183450E-05 -5.32801821E-06 -4.37639200E-04  6.97508822E-04 -3.32180073E-04
  2.62553922E-04 -1.15332414E-03 -1.39997221E-04  3.84373859E-03  8.53550441E-04
 -4.88624967E-04 -1.62475143E-04 -7.39097574E-05 -3.44995774E-05  1.03382555E-05
 -1.91452377E-05 -4.74434817E-06  4.87358790E-05 -6.36165658E-05 -5.21821433E-06
  2.44740905E-06 -8.46926252E-06 -1.02411205E-04 -3.38005597E-04 -1.46906021E-05
  2.67546227E-05  7.66054276E-05  3.67322456E-05 -3.05250996E-04 -7.57599426E-05
  1.80868907E-05 -6.93142979E-05 -1.47104429E-05 -8.69680363E-06 -1.42041084E-06
  1.49717674E-06  7.58176470E-08  2.96515507E-05  1.07188111E-06 -8.64703368E-06
 -1.59240927E-05  3.98900680E-06  1.44549333E-06  2.64123386E-06 -8.51345433E-07
 -6.70279287E-09 -5.49634255E-05  3.14147296E-05  1.63451342E-06 -7.85099862E-06
  4.69115143E-06 -1.01552902E-04 -6.22142204E-05  6.25732616E-05 -1.52306375E-05
  1.52654060E-05  9.11811133E-06 -3.04974174E-06 -3.37330947E-06  1.43471574E-05
  9.95708888E-01  2.19779349E-02  1.43637698E-03 -9.67983871E-04  1.18206332E-03
 -5.96638192E-03 -6.72563894E-04  4.18712023E-04 -5.69132117E-04  9.11076273E-06
  1.98707305E-04  2.82079699E-04 -2.32135882E-04 -1.11623380E-04  9.13688492E-06
  4.39026961E-05 -3.08875612E-06  2.58151254E-06  1.73314015E-06 -1.27774031E-04
  6.81800751E-05  5.18909571E-05  1.00987928E-04  4.04994441E-06  1.40293013E-05
 -9.87445993E-06  6.28906316E-06 -8.84271764E-06 -6.24665631E-06 -3.01941157E-05
 -4.84702915E-06 -1.24640271E-06 -5.45755183E-06  8.75229062E-07  1.73136612E-06
  1.35881683E-08  9.10573708E-07  2.99014521E-07 -7.82165965E-06 -3.10535765E-05
 -7.61816561E-07 -1.98009633E-06 -7.56355367E-06  2.39870734E-05  1.25984186E-04
 -1.43199615E-05  1.17200625E-05  6.26791291E-06 -5.19070421E-04  1.23706876E-03
  4.70383929E-04 -1.07512069E-03 -7.31048966E-05 -5.09343850E-04  1.30894861E-03
  5.46010796E-04  3.50727021E-04  9.50659387E-04  3.80778057E-05 -2.19610055E-04
  1.96719565E-05 -4.55150225E-06  2.29886312E-05 -2.67604821E-05  2.43003032E-04
 -5.67119177E-06  3.38467406E-05  2.85615435E-05  9.95715715E-01  2.22692282E-02
 -1.71990206E-03 -5.31778416E-04 -6.31464892E-04 -7.03338829E-03  8.71006285E-04
  3.93523156E-04  9.57361634E-04  1.69011402E-04 -2.42821149E-04  9.88640147E-05
  2.34477549E-04  3.53132400E-05 -3.61522034E-05  1.50318276E-04  6.14961767E-05
  8.49741235E-05  5.46535672E-05 -1.82780657E-04 -2.68202422E-04 -4.00682865E-04
 -3.51327824E-04  2.69392027E-05 -5.23058878E-05 -3.95281121E-05 -3.74025013E-05
 -6.35444778E-05  1.44310982E-05 -4.91407222E-06  1.72351740E-07 -7.47382904E-06
  3.06183555E-06 -5.27032598E-06 -3.09699155E-06  4.33862419E-05 -3.45031602E-07
  4.29745002E-06  2.71536418E-06  1.00284084E-06  1.84267847E-06  8.26042075E-06
 -1.84863668E-06  1.26596477E-05  2.01459883E-05  4.47867960E-05  2.99025575E-05
  5.54940376E-05 -1.71234511E-04 -1.75240554E-04 -2.90453586E-04 -2.01841235E-05
 -1.94407492E-05  2.28973882E-05  1.32498791E-05  4.58466099E-06 -4.09832725E-04
  2.77649258E-03 -3.45849654E-04 -3.06247406E-04 -8.32515280E-04 -5.17069450E-04
  1.05052455E-03 -1.03426486E-03 -5.10733928E-05  5.27875610E-04 -3.61536501E-05
 -1.20135351E-06  3.49677012E-05  4.31006851E-05 -3.64279249E-06  1.56561958E-04
 -7.56313452E-04  2.20403563E-05 -1.20236814E-05 -2.63695618E-05  1.74255933E-05
  1.55390766E-05 -3.48982491E-06  6.13173825E-06  1.65294339E-06 -1.24140915E-05
  1.03401983E-05  1.40015259E-06 -1.33029104E-06  3.08082619E-06  8.37058790E-05
  9.72077312E-05 -1.07093359E-05  4.13066345E-05 -1.95241527E-05 -1.25739458E-04
 -8.32629388E-05  2.18556280E-05 -2.27361210E-05 -1.67669356E-05 -7.28488534E-03
  1.55980563E-02 -2.50383077E-03 -1.64338143E-03 -2.48782451E-03  1.48387268E-02
 -3.85270151E-04 -1.68346272E-03 -1.61800681E-03  2.42150366E-04  3.39953455E-04
  3.51478658E-04 -4.38870173E-05  1.03173336E-04 -4.71241639E-02  1.01215038E-01
  1.41489877E-02 -7.27245092E-03 -1.47107530E-02  1.04164658E-01  1.01275258E-02
 -5.19362889E-03 -4.97411104E-03 -2.83439090E-04 -5.54845173E-04  4.74581420E-04
  1.16134899E-03 -1.43401303E-03 -6.10973492E-03  1.32759703E-02  2.40381839E-03
 -6.78248209E-05  1.40222840E-03  1.16923711E-02  1.48600386E-03  1.22472490E-03
 -4.64238750E-04 -1.17721836E-04  4.96431146E-05 -7.47795812E-06  8.60060036E-05
  2.54480409E-04 -2.06887317E-01  4.57020103E-01  2.94101424E-02 -6.51282233E-02
  7.35880509E-03  4.35876525E-01  4.42019242E-04 -2.02159810E-02  1.60951342E-03
 -9.38326796E-04  1.42143383E-03  3.48535711E-04 -6.23857733E-04 -5.08878459E-03
  7.67401508E-03  1.84768713E-03  3.15761532E-04 -3.80175362E-04  2.83165549E-04
  4.44892362E-03  6.54973651E-04  7.89671305E-04  3.07542495E-05 -5.58067077E-04
  2.90406691E-02  5.57623610E-03  2.34963790E-03 -1.62002622E-03  4.89796281E-03
  4.34907557E-02 -1.08253200E-02 -3.56573661E-03  2.45023861E-03  3.39674953E-04
  3.83320664E-03  6.78958805E-04 -2.91356374E-04  7.45384331E-04  1.72611919E-04
  4.78642272E-03  2.72205398E-03 -1.27343000E-04 -1.26827199E-04 -8.23638908E-04
  1.37939391E-01  9.33530612E-03 -1.20566902E-02  6.51621435E-03 -2.12648241E-02
  1.37162182E-01  7.55012338E-03 -8.86273995E-04  1.69617554E-02  1.90061861E-02
 -3.65824830E-02  8.00672914E-02 -1.36030780E-02 -5.22827573E-03 -8.19391336E-03
  7.52386849E-02 -4.50039231E-03 -2.73759722E-03 -3.11410822E-03  2.75604734E-04
  7.96338384E-04  4.77154083E-04  5.36812166E-04  4.67062907E-04 -2.03392562E-01
  4.46513886E-01  3.33573715E-02 -1.44590621E-02 -6.65260847E-02  4.34517735E-01
  1.65696061E-02 -5.19651540E-03 -2.19648544E-02  1.88045449E-03 -3.51945597E-04
  7.92405391E-04  2.82911690E-03 -2.05572606E-03 -5.47929457E-05  1.96550789E-04
 -1.85823284E-04 -4.40244811E-05  3.15583573E-05 -6.70492964E-04 -6.85257983E-04
  1.35705552E-03 -2.35475115E-04  8.88958600E-05  3.20601548E-05  1.91752538E-05
 -2.32485000E-06  1.05458854E-04  5.09001183E-02 -1.14176397E-01 -1.86383500E-02
  2.41598308E-02 -1.70877953E-03 -1.04290486E-01 -9.67194535E-03  1.20419938E-02
 -5.85349266E-04 -8.36386268E-05 -4.31166814E-04  4.62215310E-05  7.35874609E-04
  8.89167302E-04  3.17735095E-02  3.54139481E-03  7.91195044E-04  8.00819011E-04
  3.92138653E-03  2.38777141E-02  1.77794197E-03  3.70631820E-03 -1.12625684E-04
 -2.81683488E-03  1.38123255E-01  1.44953832E-02  9.90529520E-03 -6.93987351E-03
  2.17832335E-02  1.30495558E-01 -5.44336318E-03 -2.12762761E-02  1.30887545E-02
  2.11260763E-03  5.32919088E-04  1.98812339E-04 -5.69237952E-05  1.34538266E-04
  3.79389583E-05 -4.54104092E-04  1.31990350E-03 -6.53251234E-05 -1.27764374E-04
 -1.51337703E-05 -3.81569176E-02 -1.66668779E-03  3.21594082E-03 -1.78216219E-03
  5.67114189E-03 -3.78847045E-02 -6.20821641E-04  1.85826692E-04 -4.51105279E-03
 -4.97809591E-03  1.48849951E-03 -3.29847946E-03  5.03759784E-04  1.71615148E-04
  2.53474945E-04 -2.92445109E-03  1.04891403E-04  1.61853200E-04 -9.84875258E-06
 -5.21050369E-06 -1.48590861E-05 -1.65785116E-05 -1.38350817E-05 -1.04457544E-05
  1.43324905E-03 -3.16332058E-03 -4.29219028E-04 -8.74429144E-05  4.69489854E-04
 -3.76228476E-03 -6.88471436E-04 -6.80114468E-04  4.35057077E-04 -7.83949138E-05
  1.03494477E-05  3.94934419E-05 -1.27039395E-04  3.93785559E-05 -2.12289498E-01
  4.70297221E-01  5.64020802E-02 -3.79560544E-02  4.68127740E-02  4.42724223E-01
  2.48005140E-02 -1.30316614E-02  1.61519093E-02 -1.69707687E-04  2.97532348E-03