Atom number=6                                                           
SP        RHF                                                         6-31G(d,p)          
Number of atoms                            I                6
Info1-9                                    I   N=           9
         107         106           0           0           0         111
           1           1           2
Full Title                                 C   N=           2
Atom number=6           
Route                                      C   N=           4
#p hf/6-31g** 5d 7f pop=npa charge nosymm       
Charge                                     I                0
Multiplicity                               I                1
Number of electrons                        I               20
Number of alpha electrons                  I               10
Number of beta electrons                   I               10
Number of basis functions                  I               48
Number of independent functions            I               48
Number of point charges in /Mol/           I                0
Number of translation vectors              I                0
Atomic numbers                             I   N=           6
           8           8           1           1           1           1
Nuclear charges                            R   N=           6
  8.00000000E+00  8.00000000E+00  1.00000000E+00  1.00000000E+00  1.00000000E+00
  1.00000000E+00
Current cartesian coordinates              R   N=          18
  1.05265153E+01 -2.41129828E+01 -2.02839555E+01  1.05661769E+01 -2.93540381E+01
 -1.64410274E+01  8.77344660E+00 -2.42410798E+01 -1.98570305E+01  1.13076525E+01
 -2.34423738E+01 -1.87966655E+01  1.19228094E+01 -3.03692708E+01 -1.58079521E+01
  1.03486278E+01 -2.99029053E+01 -1.81508043E+01
Number of symbols in /Mol/                 I                0
Force Field                                I                0
Atom Types                                 C   N=           6
                                                            
            
Int Atom Types                             I   N=           6
           0           0           0           0           0           0
MM charges                                 R   N=           6
  0.00000000E+00  0.00000000E+00  0.00000000E+00  0.00000000E+00  0.00000000E+00
  0.00000000E+00
Integer atomic weights                     I   N=           6
          16          16           1           1           1           1
Real atomic weights                        R   N=           6
  1.59949146E+01  1.59949146E+01  1.00782504E+00  1.00782504E+00  1.00782504E+00
  1.00782504E+00
Atom fragment info                         I   N=           6
           0           0           0           0           0           0
Atom residue num                           I   N=           6
           0           0           0           0           0           0
Nuclear spins                              I   N=           6
           0           0           1           1           1           1
Nuclear ZEff                               R   N=           6
 -5.60000000E+00 -5.60000000E+00 -1.00000000E+00 -1.00000000E+00 -1.00000000E+00
 -1.00000000E+00
Nuclear ZNuc                               R   N=           6
  8.00000000E+00  8.00000000E+00  1.00000000E+00  1.00000000E+00  1.00000000E+00
  1.00000000E+00
Nuclear QMom                               R   N=           6
  0.00000000E+00  0.00000000E+00  0.00000000E+00  0.00000000E+00  0.00000000E+00
  0.00000000E+00
Nuclear GFac                               R   N=           6
  0.00000000E+00  0.00000000E+00  2.79284600E+00  2.79284600E+00  2.79284600E+00
  2.79284600E+00
MicOpt                                     I   N=           6
          -1          -1          -1          -1          -1          -1
Number of residues                         I                0
Number of secondary structures             I                0
Number of contracted shells                I               20
Number of primitive shells                 I               42
Pure/Cartesian d shells                    I                0
Pure/Cartesian f shells                    I                0
Highest angular momentum                   I                2
Largest degree of contraction              I                6
Shell types                                I   N=          20
           0          -1          -1          -2           0          -1
          -1          -2           0           0           1           0
           0           1           0           0           1           0
           0           1
Number of primitives per shell             I   N=          20
           6           3           1           1           6           3
           1           1           3           1           1           3
           1           1           3           1           1           3
           1           1
Shell to atom map                          I   N=          20
           1           1           1           1           2           2
           2           2           3           3           3           4
           4           4           5           5           5           6
           6           6
Primitive exponents                        R   N=          42
  5.48467166E+03  8.25234946E+02  1.88046958E+02  5.29645000E+01  1.68975704E+01
  5.79963534E+00  1.55396162E+01  3.59993359E+00  1.01376175E+00  2.70005823E-01
  8.00000000E-01  5.48467166E+03  8.25234946E+02  1.88046958E+02  5.29645000E+01
  1.68975704E+01  5.79963534E+00  1.55396162E+01  3.59993359E+00  1.01376175E+00
  2.70005823E-01  8.00000000E-01  1.87311370E+01  2.82539436E+00  6.40121692E-01
  1.61277759E-01  1.10000000E+00  1.87311370E+01  2.82539436E+00  6.40121692E-01
  1.61277759E-01  1.10000000E+00  1.87311370E+01  2.82539436E+00  6.40121692E-01
  1.61277759E-01  1.10000000E+00  1.87311370E+01  2.82539436E+00  6.40121692E-01
  1.61277759E-01  1.10000000E+00
Contraction coefficients                   R   N=          42
  1.83107443E-03  1.39501722E-02  6.84450781E-02  2.32714336E-01  4.70192898E-01
  3.58520853E-01 -1.10777550E-01 -1.48026263E-01  1.13076702E+00  1.00000000E+00
  1.00000000E+00  1.83107443E-03  1.39501722E-02  6.84450781E-02  2.32714336E-01
  4.70192898E-01  3.58520853E-01 -1.10777550E-01 -1.48026263E-01  1.13076702E+00
  1.00000000E+00  1.00000000E+00  3.34946043E-02  2.34726953E-01  8.13757326E-01
  1.00000000E+00  1.00000000E+00  3.34946043E-02  2.34726953E-01  8.13757326E-01
  1.00000000E+00  1.00000000E+00  3.34946043E-02  2.34726953E-01  8.13757326E-01
  1.00000000E+00  1.00000000E+00  3.34946043E-02  2.34726953E-01  8.13757326E-01
  1.00000000E+00  1.00000000E+00
P(S=P) Contraction coefficients            R   N=          42
  0.00000000E+00  0.00000000E+00  0.00000000E+00  0.00000000E+00  0.00000000E+00
  0.00000000E+00  7.08742682E-02  3.39752839E-01  7.27158577E-01  1.00000000E+00
  0.00000000E+00  0.00000000E+00  0.00000000E+00  0.00000000E+00  0.00000000E+00
  0.00000000E+00  0.00000000E+00  7.08742682E-02  3.39752839E-01  7.27158577E-01
  1.00000000E+00  0.00000000E+00  0.00000000E+00  0.00000000E+00  0.00000000E+00
  0.00000000E+00  0.00000000E+00  0.00000000E+00  0.00000000E+00  0.00000000E+00
  0.00000000E+00  0.00000000E+00  0.00000000E+00  0.00000000E+00  0.00000000E+00
  0.00000000E+00  0.00000000E+00  0.00000000E+00  0.00000000E+00  0.00000000E+00
  0.00000000E+00  0.00000000E+00
Coordinates of each shell                  R   N=          60
  1.05265153E+01 -2.41129828E+01 -2.02839555E+01  1.05265153E+01 -2.41129828E+01
 -2.02839555E+01  1.05265153E+01 -2.41129828E+01 -2.02839555E+01  1.05265153E+01
 -2.41129828E+01 -2.02839555E+01  1.05661769E+01 -2.93540381E+01 -1.64410274E+01
  1.05661769E+01 -2.93540381E+01 -1.64410274E+01  1.05661769E+01 -2.93540381E+01
 -1.64410274E+01  1.05661769E+01 -2.93540381E+01 -1.64410274E+01  8.77344660E+00
 -2.42410798E+01 -1.98570305E+01  8.77344660E+00 -2.42410798E+01 -1.98570305E+01
  8.77344660E+00 -2.42410798E+01 -1.98570305E+01  1.13076525E+01 -2.34423738E+01
 -1.87966655E+01  1.13076525E+01 -2.34423738E+01 -1.87966655E+01  1.13076525E+01
 -2.34423738E+01 -1.87966655E+01  1.19228094E+01 -3.03692708E+01 -1.58079521E+01
  1.19228094E+01 -3.03692708E+01 -1.58079521E+01  1.19228094E+01 -3.03692708E+01
 -1.58079521E+01  1.03486278E+01 -2.99029053E+01 -1.81508043E+01  1.03486278E+01
 -2.99029053E+01 -1.81508043E+01  1.03486278E+01 -2.99029053E+01 -1.81508043E+01
Num ILSW                                   I              100
ILSW                                       I   N=         100
           0           0           0           0           2           0
           0           0           0           0           0          -1
           5           0           0           0           0           0
           0           0           0           0           0           0
           1           1           0           0           0           0
           0           0      100000           0          -1           0
           0           0           0           0           0           0
           0           0           0           1           0           0
           0 -2000000000           1           0           0           0
           0           0           4          52           0           0
           0           1           0           0           0           0
           0           0           0           6           0           1
           0           0           0           0           0           0
           0           0           0           0           0           0
           0           0           0           0           0           0
           0           0           0           0           0           0
           0           0           0           0
Num RLSW                                   I               52
RLSW                                       R   N=          52
  1.00000000E+00  1.00000000E+00  1.00000000E+00  1.00000000E+00  1.00000000E+00
  0.00000000E+00  0.00000000E+00  1.00000000E+00  0.00000000E+00  0.00000000E+00
  0.00000000E+00  0.00000000E+00  1.00000000E+00  0.00000000E+00  0.00000000E+00
  0.00000000E+00  0.00000000E+00  1.00000000E+00  0.00000000E+00  0.00000000E+00
  0.00000000E+00  0.00000000E+00  1.00000000E+00  0.00000000E+00  0.00000000E+00
  0.00000000E+00  0.00000000E+00  1.00000000E+00  0.00000000E+00  0.00000000E+00
  0.00000000E+00  0.00000000E+00  1.00000000E+00  0.00000000E+00  0.00000000E+00
  0.00000000E+00  0.00000000E+00  0.00000000E+00  1.00000000E+00  1.00000000E+00
  0.00000000E+00  1.00000000E+00  0.00000000E+00  0.00000000E+00  0.00000000E+00
  0.00000000E+00  0.00000000E+00  0.00000000E+00  0.00000000E+00  0.00000000E+00
  0.00000000E+00  0.00000000E+00
MxBond                                     I                2
NBond                                      I   N=           6
           2           2           1           1           1           1
IBond                                      I   N=          12
           3           4           5           6           1           0
           1           0           2           0           2           0
RBond                                      R   N=          12
  1.00000000E+00  1.00000000E+00  1.00000000E+00  1.00000000E+00  1.00000000E+00
  0.00000000E+00  1.00000000E+00  0.00000000E+00  1.00000000E+00  0.00000000E+00
  1.00000000E+00  0.00000000E+00
Virial Ratio                               R      2.098041239339101E+00
SCF Energy                                 R     -1.666608472363785E+02
Total Energy                               R     -1.666608472363785E+02
RMS Density                                R      1.774224580607516E-09
Job Status                                 I                1
Nuclear derivative order                   I                0
External E-field                           R   N=          35
  0.00000000E+00  0.00000000E+00  0.00000000E+00  0.00000000E+00  0.00000000E+00
  0.00000000E+00  0.00000000E+00  0.00000000E+00  0.00000000E+00  0.00000000E+00
  0.00000000E+00  0.00000000E+00  0.00000000E+00  0.00000000E+00  0.00000000E+00
  0.00000000E+00  0.00000000E+00  0.00000000E+00  0.00000000E+00  0.00000000E+00
  0.00000000E+00  0.00000000E+00  0.00000000E+00  0.00000000E+00  0.00000000E+00
  0.00000000E+00  0.00000000E+00  0.00000000E+00  0.00000000E+00  0.00000000E+00
  0.00000000E+00  0.00000000E+00  0.00000000E+00  0.00000000E+00  0.00000000E+00
IOpCl                                      I                0
IROHF                                      I                0
Alpha Orbital Energies                     R   N=          48
 -2.06197252E+01 -2.05285091E+01 -1.40180621E+00 -1.31145674E+00 -7.63324442E-01
 -6.72148538E-01 -6.40885014E-01 -5.59833434E-01 -5.48958229E-01 -4.73565932E-01
  1.57471742E-01  2.68762800E-01  3.00954413E-01  3.94894599E-01  9.39653755E-01
  1.02255202E+00  1.04167766E+00  1.08960905E+00  1.10777934E+00  1.15488180E+00
  1.19658395E+00  1.22656144E+00  1.25427032E+00  1.33257156E+00  1.54060026E+00
  1.63593289E+00  1.74536768E+00  1.76371179E+00  1.83488996E+00  1.85642299E+00
  1.86178676E+00  1.94866151E+00  2.52219675E+00  2.53253839E+00  2.62179158E+00
  2.62550245E+00  2.75239125E+00  2.84782926E+00  2.91620765E+00  2.94128117E+00
  3.01542572E+00  3.03506026E+00  3.31901313E+00  3.41715695E+00  3.69306660E+00
  3.79430964E+00  3.87048912E+00  3.96735143E+00
Alpha MO coefficients                      R   N=        2304
  3.80090780E-06  2.50211501E-05  1.71499419E-06 -3.75689904E-06 -3.29974706E-06
 -7.48950604E-05 -1.23979095E-05  8.24108667E-06 -1.77185174E-05  1.67699495E-06
 -2.41048470E-06  9.29232262E-07  2.24743056E-06 -1.96737205E-06  9.95704304E-01
  2.19770810E-02  1.09334281E-03 -1.42636325E-03 -9.34027399E-04 -5.93427100E-03
 -5.01818581E-04  6.67343364E-04  4.49219312E-04  2.13188163E-04  2.71332800E-04
  3.94280429E-05  6.45042466E-05 -2.37911052E-04  7.03678985E-06 -1.08996286E-05
  1.39171977E-06 -2.16252272E-07 -2.13554893E-06 -1.06549075E-05  7.23840892E-05
 -4.62363302E-06 -6.01103354E-06 -1.08222898E-05 -5.21289973E-04  1.26785406E-03
  8.83353461E-04 -6.87496039E-04  3.51173547E-04 -5.02301920E-04  1.25060925E-03
 -8.78636712E-05 -3.86600309E-04 -1.06160231E-03  9.95701314E-01  2.19804498E-02
 -8.39148368E-04  3.72904947E-04  1.75423902E-03 -5.92621286E-03  3.99520109E-04
 -1.93352535E-04 -8.21634003E-04  1.86760065E-05  1.10093919E-04  1.86030743E-04
  3.39535155E-04  1.63372670E-04 -9.18225797E-07  2.60333009E-05 -5.34506300E-06
  5.32309736E-06  8.01347067E-07 -7.75022912E-05  2.52451835E-05 -1.50839808E-05
  4.51185691E-05 -6.83051454E-06 -2.63259188E-06 -1.20083397E-06  5.57606971E-06
 -1.51841381E-06 -5.07380893E-04  1.24925650E-03 -1.08870861E-03 -5.66364942E-05
  3.28717195E-04 -5.11891559E-04  1.25839910E-03  4.35095958E-04  4.26883115E-04
  9.70417922E-04  1.68345089E-06 -3.26334552E-05  1.74013276E-06 -1.84654813E-06
  1.47956739E-06 -3.68130561E-06  9.08951512E-05  3.44445488E-07  6.60252447E-06
  1.86176747E-05 -1.51104256E-03  3.12737746E-03 -2.27804957E-04 -1.09242760E-04
  5.91594133E-04  2.81596590E-03  1.96159547E-04 -1.14691738E-03  5.95476130E-04
  4.38605030E-05 -1.73670814E-07 -1.30243120E-04 -6.27783559E-05  2.90366118E-05
 -2.12719948E-01  4.70576354E-01  4.29630741E-02 -5.65702612E-02 -3.79554894E-02
  4.44950065E-01  1.58039498E-02 -1.84116645E-02 -1.37569702E-02  4.17005428E-04
 -2.11891465E-05  2.52274182E-03 -2.35488091E-05 -3.99334384E-03  7.23114959E-04
  1.10731934E-03  2.54503146E-04  6.86762169E-05 -6.95317616E-05  7.96312198E-04
  6.98255452E-04 -1.14737654E-04 -3.13416400E-05 -1.96691033E-04  1.46773930E-01
  1.39845332E-02 -1.91547269E-02  1.37013681E-02 -1.13919944E-02  1.39799952E-01
  3.99780399E-03  4.82868599E-03  6.40554603E-03  2.55520236E-02 -2.13235077E-01
  4.69341626E-01 -3.41628511E-02  1.53004081E-02  7.02928286E-02  4.52437591E-01
 -1.15231023E-02 -3.18407584E-03  2.58445993E-02  1.50685271E-03 -8.23320700E-04
  1.80451144E-03  1.44876764E-03  7.30390271E-04  1.87088440E-03 -4.13721340E-03
 -4.87107986E-04  9.71392717E-04 -1.18975949E-05 -5.26984734E-03 -3.26993547E-04
  2.19134771E-03 -2.33508920E-05  4.16512850E-05 -8.24111965E-05 -1.57969368E-04
 -8.96097981E-05  1.76118160E-04  1.39367472E-01  4.80006915E-03  2.66126759E-02
  1.78469865E-03 -4.05183238E-03  1.41698799E-01  8.32345528E-03 -1.33806040E-02
 -9.86261973E-03 -2.10139468E-02 -1.21045603E-03 -1.58746958E-05  5.31095381E-05
 -1.23348314E-04  6.05078407E-05 -1.44899620E-03  2.85746496E-03  4.49053535E-07
 -1.46281159E-05 -1.88680031E-05 -1.03542967E-03  2.90622689E-03  2.00744982E-03
  6.08308563E-03 -4.76520520E-04  2.79537867E-03  2.74466210E-04  6.08974912E-03
 -1.30887005E-03  3.30097040E-05  1.22190887E-04  5.35768976E-04  2.08559252E-04
 -1.29689558E-04  4.78520735E-03 -9.24000146E-03  2.79610764E-01 -8.24901825E-02
  4.13249845E-01 -3.10421204E-02  1.58805001E-01 -4.35443800E-02  2.37021960E-01
 -2.17936351E-02  5.82568866E-03 -1.57196265E-02  5.91955948E-03 -1.49522980E-02
 -4.58127729E-04 -3.70583215E-03 -2.13284511E-04  1.86090339E-04  1.42307763E-05
  2.38110808E-03  5.80397771E-04 -7.62986778E-05 -4.61785992E-05 -2.70513339E-04
  2.43416985E-01  1.35988463E-01 -1.51111147E-02  1.54964601E-02  4.35924448E-05
 -2.30416714E-01 -1.00183438E-01  3.15614391E-03 -1.15614265E-02 -2.01173155E-02
  1.53583859E-03 -2.46204389E-03  4.48739252E-01  1.45864125E-01  1.92643486E-01
 -1.05630607E-02  2.69026402E-01  9.06353251E-02  1.15994674E-01  1.86374488E-02
  2.03485423E-02  9.95869163E-03 -1.32095453E-02  1.25931348E-04 -3.49989632E-04
  2.23275326E-04 -1.43407112E-03  3.71862751E-03 -3.92647964E-03  3.75071132E-03
 -9.36436529E-06  2.26025705E-03 -3.50965588E-03  2.90144942E-04 -1.06561078E-04
  1.85583082E-04  3.22255484E-05  2.28589183E-04 -2.27057787E-01 -9.54881875E-02
 -1.96905183E-02  3.74046870E-03  1.17679674E-02  2.33952812E-01  1.04899845E-01
 -1.63975702E-03 -8.79994603E-03 -2.12024229E-02 -3.10345878E-03 -6.56981738E-04
  1.99279047E-04 -1.05978394E-04  5.47814217E-05  1.72994305E-03 -3.35904894E-03
 -5.82671056E-05 -1.78681987E-05 -1.26094455E-04  1.65999009E-03 -3.11928168E-03
 -3.56592746E-03 -3.34786194E-03  6.65686548E-03 -1.20514528E-02 -1.58737572E-03
 -5.97276577E-03  5.52303917E-03  4.03629166E-04 -3.52697143E-04 -5.67717056E-04
 -1.01514413E-04  8.88190844E-05 -6.62305498E-02  1.54616101E-01 -2.74024616E-01
  3.89517261E-01  2.79311610E-01  2.86030408E-01 -2.00212346E-01  2.88843451E-01
  2.13238778E-01  5.91922893E-04  7.27808696E-03 -1.40354546E-02  3.48521164E-03
  1.74050784E-02  1.08231014E-03  8.13839345E-03  6.59913948E-04  4.84102082E-05
 -5.85476961E-05 -3.33291396E-04  7.59922594E-03 -3.53593273E-04 -2.02719900E-04
 -3.55167792E-04 -1.42343859E-01 -8.66636258E-02  5.90512544E-03  5.35602008E-04
  1.52624013E-02 -1.41165420E-01 -5.41244576E-02 -9.97580950E-03  4.65884660E-03
 -1.20581334E-02  5.38428201E-03 -1.36616086E-02 -1.22506465E-02 -2.30747895E-02
  3.64607781E-02 -2.40260576E-02 -8.67519833E-03 -2.59182664E-02  2.84739284E-02
  1.32241117E-03 -1.15213352E-03 -1.59736953E-03  1.53120623E-04  3.73796669E-04
  1.30405623E-03 -4.84103813E-03  4.18295821E-01  4.35716991E-01 -1.96693970E-01
 -2.83798618E-03  3.29412556E-01  3.42697374E-01 -1.54059922E-01  5.33153879E-03
 -1.16351330E-02 -2.47006521E-03  2.07699837E-02 -1.59388615E-03  7.39163261E-03
  7.63488791E-03  9.16884834E-04 -3.11826408E-04  5.90304393E-04  3.73724910E-03
  1.55008988E-02 -1.01573558E-03 -1.04940190E-03 -2.78488911E-04 -1.36144946E-03
  4.67657530E-03  1.36850386E-02  1.41878317E-02 -6.41874655E-03  2.00488683E-04
  1.11020999E-03  1.24552039E-02  1.31079272E-02 -5.66860972E-03  6.33388045E-02
 -1.47183464E-01 -2.57863757E-01  1.66918207E-01  4.65111621E-01 -2.69197149E-01
 -1.90200876E-01  1.32027208E-01  3.44340376E-01  1.67806502E-02 -1.53303172E-02
  8.97956172E-03  8.26970945E-03 -1.18204584E-03  9.95977555E-04 -3.69060068E-03
 -1.92536668E-02 -3.14158963E-02  6.31574545E-03  1.07517786E-03 -1.78646889E-02
 -2.44509567E-02  1.19520464E-03  7.19138786E-05  6.56141244E-04  5.78333950E-04
 -1.49192185E-03 -1.19816356E-04  1.44723050E-01  5.51044928E-02  1.37711664E-02
  4.05791797E-03  7.79749997E-03  1.38325736E-01  5.83123850E-02 -1.55684344E-02
 -3.32332876E-03 -3.27236819E-03  2.48959331E-03  4.61581165E-03 -9.63771708E-04
 -6.99694877E-04  6.77066101E-05  2.43565981E-03 -1.07935324E-02 -5.96655528E-04
 -1.21832040E-03 -3.67515279E-04 -7.65459098E-03  2.68678501E-02 -8.48053943E-02
  5.73427191E-01 -2.42147385E-01  1.77408795E-02 -6.92275805E-02  4.66495409E-01
 -1.90316914E-01 -1.02269103E-02  9.51913859E-04  1.89642707E-02  3.91274184E-04
 -8.70341146E-03 -3.38615762E-03  6.68073127E-03  2.10316921E-02  3.92007788E-02
 -2.12106382E-02  2.85086913E-02  1.86630158E-02  1.50806173E-02 -1.74259980E-02
  9.83745131E-04 -2.78814018E-04  1.17970010E-03  2.03007688E-03 -4.15567537E-04
 -9.83558888E-04 -1.45579016E-02 -3.07249358E-03  1.63867252E-02 -6.99720113E-03
 -5.33239565E-03 -9.71624049E-03 -1.86717076E-03  1.75621298E-02 -6.13493216E-03
 -9.58737714E-03 -7.97050948E-03  2.36814099E-03  8.32129349E-04 -1.68824826E-05
  6.89748818E-03 -3.34265940E-02  4.44745296E-04  1.04306705E-03 -1.73365331E-03
  1.14236603E-02 -1.95542767E-02  6.47440402E-03  2.63353758E-02 -2.75930536E-02
 -1.35939088E-01  2.49307670E-02 -1.02858491E-02 -4.78359761E-02 -1.69696081E-03
  3.15681390E-04 -2.68550156E-03 -3.90634386E-03 -9.00257862E-04  8.34082139E-02
 -1.01717169E-01 -1.57830706E-01  1.44950688E-01  1.17098060E-02 -1.15233733E+00
 -3.98946580E-01  3.81088847E-01 -2.83804241E-03  5.31333880E-03 -7.06755783E-03
 -1.82238430E-04 -3.27427033E-03  2.28951936E-02 -2.54258592E-03  1.20705820E-01
  2.72862111E-03  1.35339980E-03 -6.28373317E-04  8.55080255E-04  1.11368393E-01
 -1.78710712E-03  6.14211336E-04 -2.86102024E-03  6.89102844E-02  1.40275653E+00
 -1.53232797E-02  1.10424649E-02 -8.84451275E-03  4.75547823E-02  5.00792704E-01
  1.04334787E-03  3.10457908E-04  5.65719376E-03  5.87053953E-02 -9.37517840E-02
  4.30401356E-02  1.31787881E-02 -1.13669157E-01 -7.43660057E-01  1.17121976E-01
 -8.03930452E-02 -2.72413138E-01 -7.63552317E-03  2.01344924E-03 -6.80889870E-03
 -9.72948567E-03 -2.34665281E-03  1.63981348E-02 -4.57087999E-02  1.22796988E-01
 -4.98057405E-02  2.18936858E-01 -1.49324621E-01  3.03495618E-01 -5.15391240E-02
  5.30237969E-01 -1.55595102E-02  4.25294106E-03 -1.33595373E-02  1.62193710E-03
 -9.35907503E-03  3.06319013E-02  6.04647013E-01  7.79162582E-03  1.04946653E-03
 -6.02768176E-04  4.21069218E-02  6.49594092E-01 -5.25101388E-03 -8.02422417E-04
 -7.96391214E-03 -2.37995341E-02 -9.01210041E-01  4.62592146E-03 -5.64753911E-03
  4.59127795E-03  4.75879824E-02  1.17430863E+00  2.60465277E-03  8.31492233E-04
  1.13641641E-02 -6.61223661E-02  9.16873842E-02 -2.57259029E-02  7.07193653E-02
  1.48542161E-01  9.01824738E-01 -5.07981739E-02  1.30936779E-01  3.60717635E-01
  7.61035275E-03 -5.04689981E-04  6.61056231E-03  1.85655187E-03  1.91059607E-03
  2.45231135E-02 -3.77336710E-02  7.94828358E-02  4.97258337E-02  1.86953284E-01
 -3.38076834E-01  2.03275899E-01  5.78679529E-03  4.68522279E-01 -6.88796682E-03
  3.65442241E-03 -5.72961357E-03  6.02058417E-03 -4.59583469E-03 -5.18123460E-02
 -5.49703951E-01 -4.36749578E-03  1.12392903E-03  8.37899394E-04 -5.84431243E-02
 -9.70072315E-01  4.11200580E-03  4.88599632E-03  7.43576887E-03 -3.31449974E-02
 -5.15447997E-01  7.00387517E-03 -9.17353741E-04  4.89949871E-03  7.93722401E-02
  1.10695994E+00  1.82226674E-03  1.10322119E-03  4.34077472E-03  1.08348783E-02
 -2.11895687E-02  3.10026356E-01  8.92305813E-02  1.02381708E-01 -1.33640474E-01
  7.29790068E-01  2.07851899E-01  2.49792295E-01  1.02727632E-02  1.28319457E-02
  5.65866880E-03 -7.56112767E-03  5.26885326E-04 -4.75838738E-03  1.31411314E-02
  5.27034355E-03 -2.38041019E-03 -3.22564674E-02  5.35395952E-02 -4.88012943E-02
  8.02700364E-04 -8.48848218E-02  5.79778916E-04  7.54871761E-04 -9.61625007E-04
  4.29631309E-04 -2.50699327E-03  8.10832403E-02  1.47911499E+00  9.43608512E-03
 -1.29037639E-03  1.59777697E-03 -5.99385725E-02 -1.24315275E+00  6.46106904E-03
  3.87330674E-03  5.04134107E-03  2.89184578E-02  6.95755742E-02 -4.99232716E-04
  1.50866064E-03 -1.44434016E-03 -2.86526854E-02 -1.81576324E-01  3.80342913E-04
  2.64688566E-03  2.14787912E-04 -7.19948474E-03  1.65545899E-02 -7.32900597E-02
  1.39787965E-01 -1.18466680E-02  3.43175235E-02 -2.91476512E-02 -1.35167204E-01
  3.60595901E-02  1.40974116E-02  1.06595921E-02 -5.07878636E-03 -3.76420512E-02
 -5.11777490E-03  6.06000190E-03 -5.10056055E-02 -9.44297351E-02  2.77318688E-02
 -6.58039586E-02  7.93405696E-02 -2.01660363E-01  7.46112142E-02 -3.41019335E-01
 -1.65999005E-01  5.60393506E-02 -1.28691039E-01  4.69185901E-02 -1.38921941E-01
 -1.73677700E-01  3.59421360E-02  3.09793224E-02  9.61290040E-03 -8.64237346E-03
 -1.22555630E-03 -2.14052668E-02 -1.30392235E-02  6.15786666E-03 -2.13492681E-03
  8.24052822E-01 -6.37396790E-01  9.01656744E-02 -8.46761708E-02  4.43878578E-03
 -6.72991331E-01  4.97331567E-01 -2.92538471E-02  5.53102778E-02  6.24886817E-02
 -1.31931780E-02  5.67956346E-02 -7.97096173E-02  2.49061360E-01  2.50063435E-02
 -2.95666444E-02  8.99829191E-03 -2.28431455E-01  4.64145665E-02  6.63652257E-04
 -1.24075365E-02 -2.97064290E-02 -5.46756227E-02 -2.12140321E-02 -2.39206226E-02
  1.90429906E-01  2.19181474E-01 -5.28648500E-01 -1.89906426E-01 -4.83192223E-01
 -1.97302134E-01  4.72986628E-01  8.85932220E-02 -1.01081852E-01 -1.43822181E-01
 -1.71344904E-02 -3.70552472E-02  1.28355415E-01 -2.09679541E-01  8.73597121E-02
  4.37498200E-02  1.72319279E-02 -1.22357971E-03 -1.50804922E-01  7.78788183E-02
 -3.52133313E-02 -6.82911063E-03 -3.28406474E-02 -4.97329104E-01  6.00992335E-01
 -1.44257005E-01  7.77744488E-02 -1.15015620E-01 -5.29627084E-01  4.65434744E-01
  5.86921071E-02  8.95020590E-03  1.57675193E-01  6.97055657E-03 -4.16248652E-02
 -3.45902800E-02 -8.60762641E-02 -3.79815233E-02  4.14493828E-02 -4.16671943E-01
 -7.18857061E-02 -1.92431707E-01  1.40760088E-01  1.59256938E-01  1.00340270E-01
 -9.48444600E-02  3.87159249E-02 -3.60800932E-03  4.63351646E-02  1.54310524E-01
  1.18225911E-01 -6.90515186E-02 -7.68295809E-02 -1.47862568E-01 -1.28719539E-01
  9.47913075E-02  1.04963125E-02 -1.02331250E-02  1.05676272E-02 -5.47924644E-03
  1.67182026E-02 -6.65595769E-01  4.92974559E-01  4.96946866E-02 -1.45651682E-02
 -5.96394559E-02  8.36562038E-01 -5.98690389E-01  1.11312930E-02  3.60254289E-02
  1.02823615E-01 -8.54700752E-02  1.07944361E-01 -1.30774325E-02  1.67516970E-02
 -7.39566207E-03  3.00646524E-02 -2.60904977E-02  9.05613598E-03  2.74176850E-03
  4.29054863E-03 -1.73599447E-02  1.06089569E-01 -6.16875924E-02  1.89798473E-01
  4.05692961E-02 -1.20417896E-01 -8.76706356E-02 -2.08545775E-01  2.29598479E-04
  3.13815526E-02  1.10783151E-02 -1.91509262E-02 -8.73268605E-02 -2.51053684E-02
  3.52828850E-02 -2.48017404E-01 -3.94326692E-01 -5.65846101E-01  1.58067677E-01
  2.25137016E-01  3.67712657E-01  7.23845019E-01 -2.88892315E-02  1.00488606E-01
  7.54304718E-02  2.63134495E-02  1.69869458E-02 -4.10737589E-02 -4.01572396E-01
  2.83609302E-01  6.35382834E-02  1.64072918E-02 -1.00699236E-02 -5.76854157E-02
  2.76703289E-02 -4.63888182E-02 -1.07364531E-02 -2.32483880E-02  2.66440129E-01
 -1.24856762E-01  2.02108018E-02 -8.66636986E-03  5.62451702E-02  5.08860924E-01
 -3.70503739E-01 -3.21284181E-02 -1.12963472E-02 -5.88361987E-02  9.33391603E-03
 -8.29356771E-02  1.70784040E-02  8.32739448E-02 -4.31661069E-02  1.05818450E-01
 -5.74004560E-02 -1.10813161E-01 -3.21204724E-03  1.13318622E-02  2.26705832E-02
  2.03403887E-02  1.48845781E-02  1.48053038E-02 -5.65402582E-02  3.70170819E-01
 -6.18227908E-01  1.13943772E-01  4.57818089E-01 -5.49288160E-02  8.09480572E-01
 -3.27619356E-01 -6.54951914E-01 -4.40691332E-02 -6.83729285E-02  3.09309688E-03
 -1.13590811E-02  3.82730977E-02  1.28828436E-02 -2.62099866E-02 -2.53088614E-02
 -3.14207075E-03 -6.42153192E-03  1.65833931E-01 -1.25419569E-01  1.30395220E-02
  1.15757885E-02  1.80769642E-02 -3.88150817E-01  6.15474319E-02  8.30375493E-03
 -2.24271329E-02 -1.92976630E-02 -4.02869457E-01  2.68173862E-02  1.10308721E-02
 -2.56236767E-02 -1.37777858E-02  1.02914918E-02 -1.12144974E-01  2.14387386E-01
  1.44393871E-01 -6.68901750E-01  4.92810493E-01 -1.81171788E-01 -1.55384158E-01
  6.80859939E-01  8.03859994E-03  4.92724554E-02  8.06799471E-02  1.60005223E-01
  7.98318314E-02  1.32867607E-02 -8.61161561E-02 -6.80847171E-03 -2.68843136E-01
 -6.52920841E-02 -3.84121448E-02 -3.47996533E-02  3.52967774E-01  9.80149648E-02
 -8.90241632E-03  4.85774382E-03 -9.39709571E-03  1.08856417E-02 -6.08102545E-03
  4.52110896E-01 -5.51375100E-01 -1.65488856E-01 -2.77151072E-02 -1.04906154E-02
  4.01781013E-01 -5.50021695E-01  1.19674474E-01  6.53781635E-02  1.10391541E-01
  8.94521774E-02  4.68721871E-04 -9.20557514E-03  8.95658145E-03 -5.10386440E-03
  1.43466411E-02  1.16427513E-01 -1.63938893E-03  9.67866290E-03  2.43247667E-02
 -5.76300809E-02  3.94849925E-01  2.93156500E-01 -5.22533111E-01 -3.82012625E-01
 -1.13764501E-01 -4.31334925E-01  6.37488075E-01  6.65680345E-01  1.83348524E-02
 -3.21487239E-02 -3.22138088E-02 -7.62834624E-02 -3.89097226E-02 -3.86488703E-03
  1.42336353E-02  1.11943590E-01 -5.47719304E-02  2.67671836E-01 -1.32329892E-04
 -2.49734221E-01  7.99039028E-02 -5.25507448E-01  1.51780068E-02 -2.15146247E-02
  2.13476571E-02 -1.11492249E-02  2.71342876E-02 -4.17689003E-01  1.18063976E-01
  7.36859229E-03  4.08003768E-03  2.33461076E-02 -3.95380330E-01  3.82498879E-02
 -1.80582928E-02  9.86621457E-04  2.73874864E-02  7.07462070E-03  2.97233028E-01
 -5.37324099E-02  3.57354071E-02 -3.66212212E-02 -1.29081526E-01 -2.34661981E-01
 -4.33927539E-03 -2.56153015E-02 -6.27485061E-02  7.88581498E-03 -4.82063717E-02
  1.52786629E-01 -5.67841750E-01  1.98632642E-01  7.91488249E-02 -1.81513533E-01