 Entering Gaussian System, Link 0=g16
 Input=w32_31.gjf
 Output=w32_31.log
 Initial command:
 /home/soft/g16/l1.exe "/tmp/liwei01/gaussian/wsr/Gau-6565.inp" -scrdir="/tmp/liwei01/gaussian/wsr/"
 Entering Link 1 = /home/soft/g16/l1.exe PID=      6569.
  
 Copyright (c) 1988,1990,1992,1993,1995,1998,2003,2009,2016,
            Gaussian, Inc.  All Rights Reserved.
  
 This is part of the Gaussian(R) 16 program.  It is based on
 the Gaussian(R) 09 system (copyright 2009, Gaussian, Inc.),
 the Gaussian(R) 03 system (copyright 2003, Gaussian, Inc.),
 the Gaussian(R) 98 system (copyright 1998, Gaussian, Inc.),
 the Gaussian(R) 94 system (copyright 1995, Gaussian, Inc.),
 the Gaussian 92(TM) system (copyright 1992, Gaussian, Inc.),
 the Gaussian 90(TM) system (copyright 1990, Gaussian, Inc.),
 the Gaussian 88(TM) system (copyright 1988, Gaussian, Inc.),
 the Gaussian 86(TM) system (copyright 1986, Carnegie Mellon
 University), and the Gaussian 82(TM) system (copyright 1983,
 Carnegie Mellon University). Gaussian is a federally registered
 trademark of Gaussian, Inc.
  
 This software contains proprietary and confidential information,
 including trade secrets, belonging to Gaussian, Inc.
  
 This software is provided under written license and may be
 used, copied, transmitted, or stored only in accord with that
 written license.
  
 The following legend is applicable only to US Government
 contracts under FAR:
  
                    RESTRICTED RIGHTS LEGEND
  
 Use, reproduction and disclosure by the US Government is
 subject to restrictions as set forth in subparagraphs (a)
 and (c) of the Commercial Computer Software - Restricted
 Rights clause in FAR 52.227-19.
  
 Gaussian, Inc.
 340 Quinnipiac St., Bldg. 40, Wallingford CT 06492
  
  
 ---------------------------------------------------------------
 Warning -- This program may not be used in any manner that
 competes with the business of Gaussian, Inc. or will provide
 assistance to any competitor of Gaussian, Inc.  The licensee
 of this program is prohibited from giving any competitor of
 Gaussian, Inc. access to this program.  By using this program,
 the user acknowledges that Gaussian, Inc. is engaged in the
 business of creating and licensing software in the field of
 computational chemistry and represents and warrants to the
 licensee that it is not a competitor of Gaussian, Inc. and that
 it will not use this program in any manner prohibited above.
 ---------------------------------------------------------------
  

 Cite this work as:
 Gaussian 16, Revision A.03,
 M. J. Frisch, G. W. Trucks, H. B. Schlegel, G. E. Scuseria, 
 M. A. Robb, J. R. Cheeseman, G. Scalmani, V. Barone, 
 G. A. Petersson, H. Nakatsuji, X. Li, M. Caricato, A. V. Marenich, 
 J. Bloino, B. G. Janesko, R. Gomperts, B. Mennucci, H. P. Hratchian, 
 J. V. Ortiz, A. F. Izmaylov, J. L. Sonnenberg, D. Williams-Young, 
 F. Ding, F. Lipparini, F. Egidi, J. Goings, B. Peng, A. Petrone, 
 T. Henderson, D. Ranasinghe, V. G. Zakrzewski, J. Gao, N. Rega, 
 G. Zheng, W. Liang, M. Hada, M. Ehara, K. Toyota, R. Fukuda, 
 J. Hasegawa, M. Ishida, T. Nakajima, Y. Honda, O. Kitao, H. Nakai, 
 T. Vreven, K. Throssell, J. A. Montgomery, Jr., J. E. Peralta, 
 F. Ogliaro, M. J. Bearpark, J. J. Heyd, E. N. Brothers, K. N. Kudin, 
 V. N. Staroverov, T. A. Keith, R. Kobayashi, J. Normand, 
 K. Raghavachari, A. P. Rendell, J. C. Burant, S. S. Iyengar, 
 J. Tomasi, M. Cossi, J. M. Millam, M. Klene, C. Adamo, R. Cammi, 
 J. W. Ochterski, R. L. Martin, K. Morokuma, O. Farkas, 
 J. B. Foresman, and D. J. Fox, Gaussian, Inc., Wallingford CT, 2016.
 
 ******************************************
 Gaussian 16:  ES64L-G16RevA.03 25-Dec-2016
                15-May-2020 
 ******************************************
 %chk=w32_31.chk
 %nproc=4
 Will use up to    4 processors via shared memory.
 %mem=1gb
 -----------------------------------------
 #p hf/6-31g** 5d 7f pop=npa charge nosymm
 -----------------------------------------
 1/18=10,28=-2,38=1,125=101,172=1/1;
 2/12=2,15=1,17=6,18=5,40=1/2;
 3/5=1,6=6,7=101,8=11,11=9,25=1,30=1/1,2,3;
 4//1;
 5/5=2,38=5/2;
 6/7=2,8=2,9=2,10=2,28=1,40=-1/1,7;
 99/5=1,9=1/99;
 Leave Link    1 at Fri May 15 22:35:34 2020, MaxMem=   134217728 cpu:               0.2 elap:               0.1
 (Enter /home/soft/g16/l101.exe)
 --------------
 Atom number=15
 --------------
 Symbolic Z-matrix:
 Charge =  0 Multiplicity = 1
 o                     8.39232  -11.81294  -11.20048 
 o                     8.69325  -14.06927  -9.54711 
 o                     5.57039  -12.76004  -10.73381 
 o                     6.94264  -11.82938  -8.37104 
 o                     8.80125  -12.42588  -6.49729 
 h                     8.17528  -12.53782  -10.61424 
 h                     9.25215  -11.5141  -10.90447 
 h                     8.22009  -13.73274  -8.78613 
 h                     8.5528   -15.01566  -9.51778 
 h                     4.64271  -12.82783  -10.50789 
 h                     5.98375  -12.40517  -9.94677 
 h                     7.49557  -12.09105  -7.63482 
 h                     7.30746  -10.99284  -8.65973 
 h                     9.05563  -11.74898  -5.87013 
 h                     8.9395   -13.2499  -6.03028 
 
 ITRead=  0  0  0  0  0  0  0  0  0  0  0  0  0  0  0
 MicOpt= -1 -1 -1 -1 -1 -1 -1 -1 -1 -1 -1 -1 -1 -1 -1
 NAtoms=     15 NQM=       15 NQMF=       0 NMMI=      0 NMMIF=      0
                NMic=       0 NMicF=      0.
                    Isotopes and Nuclear Properties:
 (Nuclear quadrupole moments (NQMom) in fm**2, nuclear magnetic moments (NMagM)
  in nuclear magnetons)

  Atom         1           2           3           4           5           6           7           8           9          10
 IAtWgt=          16          16          16          16          16           1           1           1           1           1
 AtmWgt=  15.9949146  15.9949146  15.9949146  15.9949146  15.9949146   1.0078250   1.0078250   1.0078250   1.0078250   1.0078250
 NucSpn=           0           0           0           0           0           1           1           1           1           1
 AtZEff=  -0.0000000  -0.0000000  -0.0000000  -0.0000000  -0.0000000  -0.0000000  -0.0000000  -0.0000000  -0.0000000  -0.0000000
 NQMom=    0.0000000   0.0000000   0.0000000   0.0000000   0.0000000   0.0000000   0.0000000   0.0000000   0.0000000   0.0000000
 NMagM=    0.0000000   0.0000000   0.0000000   0.0000000   0.0000000   2.7928460   2.7928460   2.7928460   2.7928460   2.7928460
 AtZNuc=   8.0000000   8.0000000   8.0000000   8.0000000   8.0000000   1.0000000   1.0000000   1.0000000   1.0000000   1.0000000

  Atom        11          12          13          14          15
 IAtWgt=           1           1           1           1           1
 AtmWgt=   1.0078250   1.0078250   1.0078250   1.0078250   1.0078250
 NucSpn=           1           1           1           1           1
 AtZEff=  -0.0000000  -0.0000000  -0.0000000  -0.0000000  -0.0000000
 NQMom=    0.0000000   0.0000000   0.0000000   0.0000000   0.0000000
 NMagM=    2.7928460   2.7928460   2.7928460   2.7928460   2.7928460
 AtZNuc=   1.0000000   1.0000000   1.0000000   1.0000000   1.0000000
 Background charge distribution read from input stream:
 Point Charges:
 XYZ=   10.7060  -10.8489  -10.0915 Q=   -1.0357 A=    0.0000 R=    0.0000 C=    0.0000
 XYZ=   11.5214  -11.3203   -9.9208 Q=    0.5206 A=    0.0000 R=    0.0000 C=    0.0000
 XYZ=   10.5678  -10.3169   -9.3078 Q=    0.5156 A=    0.0000 R=    0.0000 C=    0.0000
 XYZ=    7.2503   -9.8596  -13.1035 Q=   -1.0243 A=    0.0000 R=    0.0000 C=    0.0000
 XYZ=    7.1207  -10.2215  -13.9801 Q=    0.5152 A=    0.0000 R=    0.0000 C=    0.0000
 XYZ=    7.3415  -10.6267  -12.5383 Q=    0.5154 A=    0.0000 R=    0.0000 C=    0.0000
 XYZ=    6.9662   -9.2478  -10.2743 Q=   -1.0324 A=    0.0000 R=    0.0000 C=    0.0000
 XYZ=    6.9752   -9.8450  -11.0223 Q=    0.5142 A=    0.0000 R=    0.0000 C=    0.0000
 XYZ=    7.6844   -8.6385  -10.4451 Q=    0.5185 A=    0.0000 R=    0.0000 C=    0.0000
 XYZ=    9.7397  -14.5602  -13.0841 Q=   -1.0029 A=    0.0000 R=    0.0000 C=    0.0000
 XYZ=    9.4367  -13.9209  -12.4394 Q=    0.5215 A=    0.0000 R=    0.0000 C=    0.0000
 XYZ=   10.6527  -14.3230  -13.2466 Q=    0.4988 A=    0.0000 R=    0.0000 C=    0.0000
 XYZ=   10.0849   -9.6030  -13.6944 Q=   -1.0549 A=    0.0000 R=    0.0000 C=    0.0000
 XYZ=    9.8380   -9.8779  -14.5774 Q=    0.5180 A=    0.0000 R=    0.0000 C=    0.0000
 XYZ=    9.2671   -9.6284  -13.1976 Q=    0.5226 A=    0.0000 R=    0.0000 C=    0.0000
 XYZ=    9.4738   -7.9972  -10.9180 Q=   -0.9971 A=    0.0000 R=    0.0000 C=    0.0000
 XYZ=    9.9975   -8.7956  -10.8516 Q=    0.5301 A=    0.0000 R=    0.0000 C=    0.0000
 XYZ=    9.6234   -7.5424  -10.0892 Q=    0.4920 A=    0.0000 R=    0.0000 C=    0.0000
 XYZ=    8.4516  -10.6356  -15.6859 Q=   -1.0322 A=    0.0000 R=    0.0000 C=    0.0000
 XYZ=    8.1250  -10.4069  -16.5562 Q=    0.4798 A=    0.0000 R=    0.0000 C=    0.0000
 XYZ=    9.2622  -11.1166  -15.8526 Q=    0.5341 A=    0.0000 R=    0.0000 C=    0.0000
 XYZ=    4.0391  -11.2243  -12.8044 Q=   -0.9921 A=    0.0000 R=    0.0000 C=    0.0000
 XYZ=    4.5248  -12.0476  -12.7552 Q=    0.4802 A=    0.0000 R=    0.0000 C=    0.0000
 XYZ=    4.4321  -10.7575  -13.5420 Q=    0.5046 A=    0.0000 R=    0.0000 C=    0.0000
 XYZ=    5.5848  -15.5922  -11.4699 Q=   -1.0129 A=    0.0000 R=    0.0000 C=    0.0000
 XYZ=    4.6785  -15.3483  -11.6582 Q=    0.5050 A=    0.0000 R=    0.0000 C=    0.0000
 XYZ=    6.0031  -14.7735  -11.2032 Q=    0.5257 A=    0.0000 R=    0.0000 C=    0.0000
 XYZ=   10.5523   -9.0602   -7.7657 Q=   -0.9799 A=    0.0000 R=    0.0000 C=    0.0000
 XYZ=   10.0296   -9.4526   -7.0665 Q=    0.5003 A=    0.0000 R=    0.0000 C=    0.0000
 XYZ=   10.0576   -8.2839   -8.0284 Q=    0.4937 A=    0.0000 R=    0.0000 C=    0.0000
 XYZ=    8.4919  -14.1596  -15.7110 Q=   -0.9823 A=    0.0000 R=    0.0000 C=    0.0000
 XYZ=    8.8439  -15.0437  -15.8144 Q=    0.4799 A=    0.0000 R=    0.0000 C=    0.0000
 XYZ=    8.9183  -13.8221  -14.9233 Q=    0.4950 A=    0.0000 R=    0.0000 C=    0.0000
 XYZ=   10.6752  -11.9252  -15.8192 Q=   -0.9837 A=    0.0000 R=    0.0000 C=    0.0000
 XYZ=   11.1454  -12.2597  -15.0555 Q=    0.5055 A=    0.0000 R=    0.0000 C=    0.0000
 XYZ=   10.7694  -12.6123  -16.4789 Q=    0.5125 A=    0.0000 R=    0.0000 C=    0.0000
 XYZ=    7.7593  -16.5050  -13.2460 Q=   -1.0112 A=    0.0000 R=    0.0000 C=    0.0000
 XYZ=    7.3079  -16.2111  -12.4547 Q=    0.4926 A=    0.0000 R=    0.0000 C=    0.0000
 XYZ=    8.5373  -15.9498  -13.2987 Q=    0.4973 A=    0.0000 R=    0.0000 C=    0.0000
 XYZ=   13.4576  -11.7733   -9.7740 Q=   -0.9993 A=    0.0000 R=    0.0000 C=    0.0000
 XYZ=   13.9089  -10.9962  -10.1037 Q=    0.5128 A=    0.0000 R=    0.0000 C=    0.0000
 XYZ=   14.1508  -12.4236   -9.6612 Q=    0.5076 A=    0.0000 R=    0.0000 C=    0.0000
 XYZ=    5.5914  -15.5335   -8.7002 Q=   -1.0162 A=    0.0000 R=    0.0000 C=    0.0000
 XYZ=    6.3093  -16.0707   -8.3652 Q=    0.4831 A=    0.0000 R=    0.0000 C=    0.0000
 XYZ=    5.4763  -15.8239   -9.6050 Q=    0.5237 A=    0.0000 R=    0.0000 C=    0.0000
 XYZ=    5.3398  -11.2122  -15.4745 Q=   -0.9760 A=    0.0000 R=    0.0000 C=    0.0000
 XYZ=    5.8801  -10.4587  -15.7120 Q=    0.4863 A=    0.0000 R=    0.0000 C=    0.0000
 XYZ=    5.4896  -11.8457  -16.1763 Q=    0.4965 A=    0.0000 R=    0.0000 C=    0.0000
 XYZ=   12.9960  -14.7139  -11.2100 Q=   -0.9778 A=    0.0000 R=    0.0000 C=    0.0000
 XYZ=   12.2864  -15.1619  -10.7497 Q=    0.5059 A=    0.0000 R=    0.0000 C=    0.0000
 XYZ=   13.6357  -14.5124  -10.5270 Q=    0.4638 A=    0.0000 R=    0.0000 C=    0.0000
 XYZ=    4.6413   -8.1383  -12.6711 Q=   -0.9897 A=    0.0000 R=    0.0000 C=    0.0000
 XYZ=    4.5978   -7.2720  -12.2662 Q=    0.4876 A=    0.0000 R=    0.0000 C=    0.0000
 XYZ=    5.5765   -8.3384  -12.7100 Q=    0.4969 A=    0.0000 R=    0.0000 C=    0.0000
 XYZ=    8.9611  -17.0167   -9.2755 Q=   -0.9921 A=    0.0000 R=    0.0000 C=    0.0000
 XYZ=    8.6736  -17.2191   -8.3852 Q=    0.5092 A=    0.0000 R=    0.0000 C=    0.0000
 XYZ=    8.3026  -17.4234   -9.8386 Q=    0.5103 A=    0.0000 R=    0.0000 C=    0.0000
 XYZ=   12.8900   -9.6906  -13.7511 Q=   -0.9984 A=    0.0000 R=    0.0000 C=    0.0000
 XYZ=   13.4884   -9.8459  -13.0204 Q=    0.4670 A=    0.0000 R=    0.0000 C=    0.0000
 XYZ=   12.0171   -9.7427  -13.3618 Q=    0.5160 A=    0.0000 R=    0.0000 C=    0.0000
 XYZ=    4.9070   -7.9100   -9.1300 Q=   -1.0105 A=    0.0000 R=    0.0000 C=    0.0000
 XYZ=    4.0635   -8.0265   -9.5674 Q=    0.4764 A=    0.0000 R=    0.0000 C=    0.0000
 XYZ=    5.4227   -8.6710   -9.3968 Q=    0.5176 A=    0.0000 R=    0.0000 C=    0.0000
 XYZ=    2.9547  -12.7024   -9.8757 Q=   -0.9915 A=    0.0000 R=    0.0000 C=    0.0000
 XYZ=    3.0641  -13.5048   -9.3654 Q=    0.5019 A=    0.0000 R=    0.0000 C=    0.0000
 XYZ=    2.7384  -12.0329   -9.2268 Q=    0.5105 A=    0.0000 R=    0.0000 C=    0.0000
 XYZ=    4.2108  -13.3306   -7.5546 Q=   -1.0293 A=    0.0000 R=    0.0000 C=    0.0000
 XYZ=    4.9638  -12.7453   -7.4735 Q=    0.4979 A=    0.0000 R=    0.0000 C=    0.0000
 XYZ=    4.5835  -14.1618   -7.8486 Q=    0.5197 A=    0.0000 R=    0.0000 C=    0.0000
 XYZ=    8.5389   -6.2611  -12.9484 Q=   -1.0019 A=    0.0000 R=    0.0000 C=    0.0000
 XYZ=    8.8800   -6.8491  -12.2745 Q=    0.5098 A=    0.0000 R=    0.0000 C=    0.0000
 XYZ=    9.2767   -6.1230  -13.5423 Q=    0.4773 A=    0.0000 R=    0.0000 C=    0.0000
 XYZ=   11.4715  -15.3553   -7.5180 Q=   -1.0197 A=    0.0000 R=    0.0000 C=    0.0000
 XYZ=   10.8644  -15.3558   -8.2581 Q=    0.4753 A=    0.0000 R=    0.0000 C=    0.0000
 XYZ=   11.9075  -14.5045   -7.5658 Q=    0.5146 A=    0.0000 R=    0.0000 C=    0.0000
 XYZ=   12.8138  -13.0185   -7.3663 Q=   -0.9959 A=    0.0000 R=    0.0000 C=    0.0000
 XYZ=   12.4819  -12.4171   -6.6996 Q=    0.4994 A=    0.0000 R=    0.0000 C=    0.0000
 XYZ=   12.6552  -12.5682   -8.1960 Q=    0.5110 A=    0.0000 R=    0.0000 C=    0.0000
 XYZ=   11.3245  -17.0116  -10.7628 Q=   -1.0019 A=    0.0000 R=    0.0000 C=    0.0000
 XYZ=   11.7165  -17.8633  -10.5702 Q=    0.4876 A=    0.0000 R=    0.0000 C=    0.0000
 XYZ=   10.4428  -17.0644  -10.3939 Q=    0.5095 A=    0.0000 R=    0.0000 C=    0.0000
 Pt Chg Charge=              0.0219 electrons
 Pt Chg Dipole moment (Debye):
    X=             15.1992    Y=             -7.5778    Z=              4.2305  Tot=             17.5024
 Pt Chg Quadrupole moment (Debye-Ang):
   XX=            221.4449   YY=            156.8044   ZZ=            -74.9267
   XY=           -194.1615   XZ=           -117.3854   YZ=             29.8099
 Pt Chg Traceless Quadrupole moment (Debye-Ang):
   XX=            120.3374   YY=             55.6968   ZZ=           -176.0342
   XY=           -194.1615   XZ=           -117.3854   YZ=             29.8099
 Pt Chg Octapole moment (Debye-Ang**2):
  XXX=           2882.6438  YYY=          -2835.6341  ZZZ=            511.2624  XYY=           2442.0313
  XXY=          -2435.0079  XXZ=          -1917.1807  XZZ=           1013.8370  YZZ=            -33.2868
  YYZ=          -1023.9454  XYZ=           1789.1766
 Pt Chg Hexadecapole moment (Debye-Ang**3):
 XXXX=          39401.2907 YYYY=          51837.1725 ZZZZ=          10175.5594 XXXY=         -29832.5690
 XXXZ=         -25830.8069 YYYX=         -32216.3624 YYYZ=          19139.8622 ZZZX=         -13347.6436
 ZZZY=           4029.5861 XXYY=          26703.7593 XXZZ=          17196.0333 YYZZ=           6024.4989
 XXYZ=          24576.1332 YYXZ=         -24231.6259 ZZXY=         -18464.4418
 Leave Link  101 at Fri May 15 22:35:34 2020, MaxMem=   134217728 cpu:               0.5 elap:               0.1
 (Enter /home/soft/g16/l202.exe)
                          Input orientation:                          
 ---------------------------------------------------------------------
 Center     Atomic      Atomic             Coordinates (Angstroms)
 Number     Number       Type             X           Y           Z
 ---------------------------------------------------------------------
      1          8           0        8.392325  -11.812941  -11.200483
      2          8           0        8.693246  -14.069272   -9.547113
      3          8           0        5.570392  -12.760041  -10.733807
      4          8           0        6.942642  -11.829381   -8.371044
      5          8           0        8.801253  -12.425877   -6.497294
      6          1           0        8.175276  -12.537815  -10.614239
      7          1           0        9.252154  -11.514100  -10.904475
      8          1           0        8.220090  -13.732742   -8.786125
      9          1           0        8.552802  -15.015659   -9.517782
     10          1           0        4.642708  -12.827827  -10.507888
     11          1           0        5.983752  -12.405170   -9.946767
     12          1           0        7.495574  -12.091052   -7.634819
     13          1           0        7.307461  -10.992840   -8.659728
     14          1           0        9.055634  -11.748983   -5.870127
     15          1           0        8.939496  -13.249901   -6.030278
 ---------------------------------------------------------------------
                    Distance matrix (angstroms):
                    1          2          3          4          5
     1  O    0.000000
     2  O    2.813399   0.000000
     3  O    3.012987   3.588112   0.000000
     4  O    3.179241   3.076502   2.886494   0.000000
     5  O    4.760557   3.466094   5.338368   2.705768   0.000000
     6  H    0.957201   1.937114   2.617079   2.655784   4.165767
     7  H    0.957200   2.946814   3.890613   3.442604   4.523040
     8  H    3.089405   0.957200   3.429360   2.329581   2.698962
     9  H    3.621414   0.957201   3.932086   3.749665   3.986483
    10  H    3.945796   4.344092   0.957200   3.294343   5.791366
    11  H    2.779166   3.204733   0.957200   1.932332   4.453943
    12  H    3.687203   3.000773   3.709124   0.957200   1.763765
    13  H    2.881828   3.488880   3.231441   0.957200   2.993515
    14  H    5.371849   4.362945   6.068322   3.275024   0.957201
    15  H    5.394003   3.619411   5.806377   3.388877   0.957199
                    6          7          8          9         10
     6  H    0.000000
     7  H    1.513901   0.000000
     8  H    2.184459   3.236500   0.000000
     9  H    2.735773   3.830526   1.513901   0.000000
    10  H    3.546048   4.809382   4.071978   4.588655   0.000000
    11  H    2.294753   3.520463   2.847937   3.687641   1.513901
    12  H    3.088452   3.756208   2.132035   3.635465   4.115362
    13  H    2.638212   3.015366   2.890663   4.297697   3.726095
    14  H    4.889160   5.043654   3.624428   4.922337   6.492045
    15  H    4.701468   5.183489   2.888836   3.928119   6.220090
                   11         12         13         14         15
    11  H    0.000000
    12  H    2.780176   0.000000
    13  H    2.324511   1.513900   0.000000
    14  H    5.146458   2.380113   3.377830   0.000000
    15  H    4.978843   2.449978   3.830388   1.513899   0.000000
 Symmetry turned off by external request.
 Stoichiometry    H10O5
 Framework group  C1[X(H10O5)]
 Deg. of freedom    39
 Full point group                 C1      NOp   1
 Rotational constants (GHZ):           2.8472712           1.4112459           1.2231283
 Leave Link  202 at Fri May 15 22:35:34 2020, MaxMem=   134217728 cpu:               0.0 elap:               0.0
 (Enter /home/soft/g16/l301.exe)
 Standard basis: 6-31G(d,p) (5D, 7F)
 Ernie: Thresh=  0.10000D-02 Tol=  0.10000D-05 Strict=F.
   120 basis functions,   210 primitive gaussians,   125 cartesian basis functions
    25 alpha electrons       25 beta electrons
       nuclear repulsion energy       204.7374882031 Hartrees.
 IExCor=    0 DFT=F Ex=HF Corr=None ExCW=0 ScaHFX=  1.000000
 ScaDFX=  1.000000  1.000000  1.000000  1.000000 ScalE2=  1.000000  1.000000
 IRadAn=      5 IRanWt=     -1 IRanGd=            0 ICorTp=0 IEmpDi=  4
 NAtoms=   15 NActive=   15 NUniq=   15 SFac= 1.00D+00 NAtFMM=   60 NAOKFM=F Big=F
 Integral buffers will be    131072 words long.
 Raffenetti 1 integral format.
 Two-electron integral symmetry is turned off.
 Background charge distribution read from rwf.
 PtFMM for NChg=        96 BoxLen=    40.00 Levels= 1 LMax=20 SMax=    22.2 ICnFMM=     1:
 Self energy of the charges =       -12.9945748236 a.u.
 MM   energy of the charges =         0.0000000000 a.u.
 Nuclei-charges interaction =         2.2328877162 a.u.
 Nuclear repulsion after external point charges =      193.9758010957 Hartrees.
 Leave Link  301 at Fri May 15 22:35:34 2020, MaxMem=   134217728 cpu:               0.2 elap:               0.1
 (Enter /home/soft/g16/l302.exe)
 NPDir=0 NMtPBC=     1 NCelOv=     1 NCel=       1 NClECP=     1 NCelD=      1
         NCelK=      1 NCelE2=     1 NClLst=     1 CellRange=     0.0.
 One-electron integrals computed using PRISM.
 NBasis=   120 RedAO= T EigKep=  2.15D-02  NBF=   120
 NBsUse=   120 1.00D-06 EigRej= -1.00D+00 NBFU=   120
 Leave Link  302 at Fri May 15 22:35:34 2020, MaxMem=   134217728 cpu:               0.5 elap:               0.1
 (Enter /home/soft/g16/l303.exe)
 DipDrv:  MaxL=1.
 Leave Link  303 at Fri May 15 22:35:34 2020, MaxMem=   134217728 cpu:               0.1 elap:               0.0
 (Enter /home/soft/g16/l401.exe)
 ExpMin= 1.61D-01 ExpMax= 5.48D+03 ExpMxC= 8.25D+02 IAcc=3 IRadAn=         5 AccDes= 0.00D+00
 Harris functional with IExCor=  205 and IRadAn=       5 diagonalized for initial guess.
 HarFok:  IExCor=  205 AccDes= 0.00D+00 IRadAn=         5 IDoV= 1 UseB2=F ITyADJ=14
 ICtDFT=  3500011 ScaDFX=  1.000000  1.000000  1.000000  1.000000
 FoFCou: FMM=F IPFlag=           0 FMFlag=      100000 FMFlg1=           0
         NFxFlg=           0 DoJE=T BraDBF=F KetDBF=T FulRan=T
         wScrn=  0.000000 ICntrl=       500 IOpCl=  0 I1Cent=   200000004 NGrid=           0
         NMat0=    1 NMatS0=      1 NMatT0=    0 NMatD0=    1 NMtDS0=    0 NMtDT0=    0
 Symmetry not used in FoFCou.
 Harris En= -393.684287326896    
 JPrj=0 DoOrth=F DoCkMO=F.
 Leave Link  401 at Fri May 15 22:35:35 2020, MaxMem=   134217728 cpu:               2.5 elap:               0.6
 (Enter /home/soft/g16/l502.exe)
 Keep R1 ints in memory in canonical form, NReq=27358154.
 FoFCou: FMM=F IPFlag=           0 FMFlag=           0 FMFlg1=           0
         NFxFlg=           0 DoJE=F BraDBF=F KetDBF=F FulRan=T
         wScrn=  0.000000 ICntrl=       600 IOpCl=  0 I1Cent=           0 NGrid=           0
         NMat0=    1 NMatS0=   7260 NMatT0=    0 NMatD0=    1 NMtDS0=    0 NMtDT0=    0
 Symmetry not used in FoFCou.
 Two-electron integral symmetry not used.
 Closed shell SCF:
 Using DIIS extrapolation, IDIIS=  1040.
 NGot=   134217728 LenX=   107827096 LenY=   107811030
 Requested convergence on RMS density matrix=1.00D-08 within 128 cycles.
 Requested convergence on MAX density matrix=1.00D-06.
 Requested convergence on             energy=1.00D-06.
 No special actions if energy rises.

 Cycle   1  Pass 1  IDiag  1:
 E= -392.833896727656    
 DIIS: error= 4.84D-02 at cycle   1 NSaved=   1.
 NSaved= 1 IEnMin= 1 EnMin= -392.833896727656     IErMin= 1 ErrMin= 4.84D-02
 ErrMax= 4.84D-02  0.00D+00 EMaxC= 1.00D-01 BMatC= 5.75D-01 BMatP= 5.75D-01
 IDIUse=3 WtCom= 5.16D-01 WtEn= 4.84D-01
 Coeff-Com:  0.100D+01
 Coeff-En:   0.100D+01
 Coeff:      0.100D+01
 Gap=     0.551 Goal=   None    Shift=    0.000
 GapD=    0.551 DampG=2.000 DampE=0.500 DampFc=1.0000 IDamp=-1.
 RMSDP=5.13D-03 MaxDP=1.25D-01              OVMax= 1.15D-01

 Cycle   2  Pass 1  IDiag  1:
 E= -393.102683961902     Delta-E=       -0.268787234246 Rises=F Damp=F
 DIIS: error= 2.57D-02 at cycle   2 NSaved=   2.
 NSaved= 2 IEnMin= 2 EnMin= -393.102683961902     IErMin= 2 ErrMin= 2.57D-02
 ErrMax= 2.57D-02  0.00D+00 EMaxC= 1.00D-01 BMatC= 1.65D-01 BMatP= 5.75D-01
 IDIUse=3 WtCom= 7.43D-01 WtEn= 2.57D-01
 Coeff-Com:  0.336D+00 0.664D+00
 Coeff-En:   0.502D-01 0.950D+00
 Coeff:      0.262D+00 0.738D+00
 Gap=     0.599 Goal=   None    Shift=    0.000
 RMSDP=2.27D-03 MaxDP=5.27D-02 DE=-2.69D-01 OVMax= 4.64D-02

 Cycle   3  Pass 1  IDiag  1:
 E= -393.212456372664     Delta-E=       -0.109772410762 Rises=F Damp=F
 DIIS: error= 5.25D-03 at cycle   3 NSaved=   3.
 NSaved= 3 IEnMin= 3 EnMin= -393.212456372664     IErMin= 3 ErrMin= 5.25D-03
 ErrMax= 5.25D-03  0.00D+00 EMaxC= 1.00D-01 BMatC= 4.20D-03 BMatP= 1.65D-01
 IDIUse=3 WtCom= 9.48D-01 WtEn= 5.25D-02
 Coeff-Com: -0.320D-01 0.913D-01 0.941D+00
 Coeff-En:   0.000D+00 0.000D+00 0.100D+01
 Coeff:     -0.304D-01 0.865D-01 0.944D+00
 Gap=     0.586 Goal=   None    Shift=    0.000
 RMSDP=3.27D-04 MaxDP=8.18D-03 DE=-1.10D-01 OVMax= 8.32D-03

 Cycle   4  Pass 1  IDiag  1:
 E= -393.215726391853     Delta-E=       -0.003270019189 Rises=F Damp=F
 DIIS: error= 3.83D-04 at cycle   4 NSaved=   4.
 NSaved= 4 IEnMin= 4 EnMin= -393.215726391853     IErMin= 4 ErrMin= 3.83D-04
 ErrMax= 3.83D-04  0.00D+00 EMaxC= 1.00D-01 BMatC= 3.78D-05 BMatP= 4.20D-03
 IDIUse=3 WtCom= 9.96D-01 WtEn= 3.83D-03
 Coeff-Com:  0.534D-02-0.395D-01-0.263D+00 0.130D+01
 Coeff-En:   0.000D+00 0.000D+00 0.000D+00 0.100D+01
 Coeff:      0.532D-02-0.393D-01-0.262D+00 0.130D+01
 Gap=     0.589 Goal=   None    Shift=    0.000
 RMSDP=8.35D-05 MaxDP=1.30D-03 DE=-3.27D-03 OVMax= 2.12D-03

 Cycle   5  Pass 1  IDiag  1:
 E= -393.215798115463     Delta-E=       -0.000071723610 Rises=F Damp=F
 DIIS: error= 1.35D-04 at cycle   5 NSaved=   5.
 NSaved= 5 IEnMin= 5 EnMin= -393.215798115463     IErMin= 5 ErrMin= 1.35D-04
 ErrMax= 1.35D-04  0.00D+00 EMaxC= 1.00D-01 BMatC= 2.39D-06 BMatP= 3.78D-05
 IDIUse=3 WtCom= 9.99D-01 WtEn= 1.35D-03
 Coeff-Com:  0.222D-02-0.103D-01-0.795D-01 0.184D+00 0.903D+00
 Coeff-En:   0.000D+00 0.000D+00 0.000D+00 0.000D+00 0.100D+01
 Coeff:      0.222D-02-0.103D-01-0.794D-01 0.184D+00 0.903D+00
 Gap=     0.590 Goal=   None    Shift=    0.000
 RMSDP=1.70D-05 MaxDP=3.11D-04 DE=-7.17D-05 OVMax= 5.64D-04

 Cycle   6  Pass 1  IDiag  1:
 E= -393.215801566963     Delta-E=       -0.000003451500 Rises=F Damp=F
 DIIS: error= 2.96D-05 at cycle   6 NSaved=   6.
 NSaved= 6 IEnMin= 6 EnMin= -393.215801566963     IErMin= 6 ErrMin= 2.96D-05
 ErrMax= 2.96D-05  0.00D+00 EMaxC= 1.00D-01 BMatC= 2.87D-07 BMatP= 2.39D-06
 IDIUse=1 WtCom= 1.00D+00 WtEn= 0.00D+00
 Coeff-Com: -0.138D-03 0.214D-02 0.135D-01-0.108D+00 0.148D+00 0.944D+00
 Coeff:     -0.138D-03 0.214D-02 0.135D-01-0.108D+00 0.148D+00 0.944D+00
 Gap=     0.590 Goal=   None    Shift=    0.000
 RMSDP=6.30D-06 MaxDP=1.37D-04 DE=-3.45D-06 OVMax= 1.82D-04

 Cycle   7  Pass 1  IDiag  1:
 E= -393.215801981236     Delta-E=       -0.000000414273 Rises=F Damp=F
 DIIS: error= 8.22D-06 at cycle   7 NSaved=   7.
 NSaved= 7 IEnMin= 7 EnMin= -393.215801981236     IErMin= 7 ErrMin= 8.22D-06
 ErrMax= 8.22D-06  0.00D+00 EMaxC= 1.00D-01 BMatC= 1.12D-08 BMatP= 2.87D-07
 IDIUse=1 WtCom= 1.00D+00 WtEn= 0.00D+00
 Coeff-Com: -0.156D-03 0.696D-03 0.568D-02-0.113D-01-0.720D-01-0.212D-01
 Coeff-Com:  0.110D+01
 Coeff:     -0.156D-03 0.696D-03 0.568D-02-0.113D-01-0.720D-01-0.212D-01
 Coeff:      0.110D+01
 Gap=     0.590 Goal=   None    Shift=    0.000
 RMSDP=1.64D-06 MaxDP=2.28D-05 DE=-4.14D-07 OVMax= 4.85D-05

 Cycle   8  Pass 1  IDiag  1:
 E= -393.215802003068     Delta-E=       -0.000000021832 Rises=F Damp=F
 DIIS: error= 1.53D-06 at cycle   8 NSaved=   8.
 NSaved= 8 IEnMin= 8 EnMin= -393.215802003068     IErMin= 8 ErrMin= 1.53D-06
 ErrMax= 1.53D-06  0.00D+00 EMaxC= 1.00D-01 BMatC= 4.54D-10 BMatP= 1.12D-08
 IDIUse=1 WtCom= 1.00D+00 WtEn= 0.00D+00
 Coeff-Com:  0.368D-04-0.228D-03-0.175D-02 0.657D-02 0.107D-01-0.277D-01
 Coeff-Com: -0.236D+00 0.125D+01
 Coeff:      0.368D-04-0.228D-03-0.175D-02 0.657D-02 0.107D-01-0.277D-01
 Coeff:     -0.236D+00 0.125D+01
 Gap=     0.590 Goal=   None    Shift=    0.000
 RMSDP=2.84D-07 MaxDP=5.28D-06 DE=-2.18D-08 OVMax= 7.77D-06

 Cycle   9  Pass 1  IDiag  1:
 E= -393.215802004017     Delta-E=       -0.000000000949 Rises=F Damp=F
 DIIS: error= 4.04D-07 at cycle   9 NSaved=   9.
 NSaved= 9 IEnMin= 9 EnMin= -393.215802004017     IErMin= 9 ErrMin= 4.04D-07
 ErrMax= 4.04D-07  0.00D+00 EMaxC= 1.00D-01 BMatC= 4.01D-11 BMatP= 4.54D-10
 IDIUse=1 WtCom= 1.00D+00 WtEn= 0.00D+00
 Coeff-Com:  0.148D-04-0.772D-04-0.613D-03 0.168D-02 0.627D-02-0.267D-02
 Coeff-Com: -0.106D+00 0.205D+00 0.896D+00
 Coeff:      0.148D-04-0.772D-04-0.613D-03 0.168D-02 0.627D-02-0.267D-02
 Coeff:     -0.106D+00 0.205D+00 0.896D+00
 Gap=     0.590 Goal=   None    Shift=    0.000
 RMSDP=5.98D-08 MaxDP=1.77D-06 DE=-9.49D-10 OVMax= 1.53D-06

 Cycle  10  Pass 1  IDiag  1:
 E= -393.215802004068     Delta-E=       -0.000000000051 Rises=F Damp=F
 DIIS: error= 1.90D-07 at cycle  10 NSaved=  10.
 NSaved=10 IEnMin=10 EnMin= -393.215802004068     IErMin=10 ErrMin= 1.90D-07
 ErrMax= 1.90D-07  0.00D+00 EMaxC= 1.00D-01 BMatC= 3.48D-12 BMatP= 4.01D-11
 IDIUse=1 WtCom= 1.00D+00 WtEn= 0.00D+00
 Coeff-Com: -0.169D-05 0.126D-04 0.955D-04-0.466D-03-0.984D-04 0.260D-02
 Coeff-Com:  0.769D-02-0.940D-01 0.120D+00 0.965D+00
 Coeff:     -0.169D-05 0.126D-04 0.955D-04-0.466D-03-0.984D-04 0.260D-02
 Coeff:      0.769D-02-0.940D-01 0.120D+00 0.965D+00
 Gap=     0.590 Goal=   None    Shift=    0.000
 RMSDP=2.00D-08 MaxDP=3.94D-07 DE=-5.09D-11 OVMax= 5.59D-07

 Cycle  11  Pass 1  IDiag  1:
 E= -393.215802004073     Delta-E=       -0.000000000005 Rises=F Damp=F
 DIIS: error= 2.59D-08 at cycle  11 NSaved=  11.
 NSaved=11 IEnMin=11 EnMin= -393.215802004073     IErMin=11 ErrMin= 2.59D-08
 ErrMax= 2.59D-08  0.00D+00 EMaxC= 1.00D-01 BMatC= 1.51D-13 BMatP= 3.48D-12
 IDIUse=1 WtCom= 1.00D+00 WtEn= 0.00D+00
 Coeff-Com: -0.790D-06 0.385D-05 0.311D-04-0.706D-04-0.386D-03-0.948D-04
 Coeff-Com:  0.589D-02-0.141D-02-0.746D-01-0.131D+00 0.120D+01
 Coeff:     -0.790D-06 0.385D-05 0.311D-04-0.706D-04-0.386D-03-0.948D-04
 Coeff:      0.589D-02-0.141D-02-0.746D-01-0.131D+00 0.120D+01
 Gap=     0.590 Goal=   None    Shift=    0.000
 RMSDP=6.99D-09 MaxDP=1.27D-07 DE=-5.00D-12 OVMax= 2.20D-07

 SCF Done:  E(RHF) =  -393.215802004     A.U. after   11 cycles
            NFock= 11  Conv=0.70D-08     -V/T= 2.0359
 KE= 3.795875476220D+02 PE=-1.315601636415D+03 EE= 3.488224856928D+02
 Leave Link  502 at Fri May 15 22:35:36 2020, MaxMem=   134217728 cpu:               2.3 elap:               0.9
 (Enter /home/soft/g16/l601.exe)
 Copying SCF densities to generalized density rwf, IOpCl= 0 IROHF=0.

 **********************************************************************

            Population analysis using the SCF density.

 **********************************************************************

 Alpha  occ. eigenvalues --  -20.66292 -20.60860 -20.59027 -20.54857 -20.52454
 Alpha  occ. eigenvalues --   -1.44816  -1.39461  -1.37861  -1.33420  -1.31004
 Alpha  occ. eigenvalues --   -0.80900  -0.76717  -0.75218  -0.70289  -0.68206
 Alpha  occ. eigenvalues --   -0.67425  -0.62841  -0.61249  -0.59383  -0.57311
 Alpha  occ. eigenvalues --   -0.54663  -0.54282  -0.53331  -0.49419  -0.47167
 Alpha virt. eigenvalues --    0.11822   0.18963   0.22135   0.23688   0.29989
 Alpha virt. eigenvalues --    0.31127   0.32085   0.40549   0.42108   0.46407
 Alpha virt. eigenvalues --    0.88963   0.93641   0.95134   0.97550   0.99909
 Alpha virt. eigenvalues --    1.04462   1.06027   1.06641   1.09111   1.10168
 Alpha virt. eigenvalues --    1.11048   1.12806   1.15256   1.17194   1.18552
 Alpha virt. eigenvalues --    1.20632   1.23361   1.27061   1.27793   1.31485
 Alpha virt. eigenvalues --    1.32232   1.34994   1.38424   1.41330   1.44229
 Alpha virt. eigenvalues --    1.52729   1.60968   1.67130   1.69971   1.71481
 Alpha virt. eigenvalues --    1.74066   1.75978   1.77133   1.80142   1.80966
 Alpha virt. eigenvalues --    1.82916   1.83481   1.84554   1.87338   1.88819
 Alpha virt. eigenvalues --    1.91958   1.94133   1.95105   2.02005   2.11430
 Alpha virt. eigenvalues --    2.46372   2.49247   2.52304   2.54349   2.58452
 Alpha virt. eigenvalues --    2.60847   2.62145   2.65211   2.66552   2.71210
 Alpha virt. eigenvalues --    2.73435   2.78062   2.84118   2.86290   2.87283
 Alpha virt. eigenvalues --    2.90367   2.93048   2.94298   2.95322   2.97964
 Alpha virt. eigenvalues --    3.00673   3.01435   3.02643   3.03127   3.03605
 Alpha virt. eigenvalues --    3.28363   3.34592   3.40109   3.42268   3.43205
 Alpha virt. eigenvalues --    3.66380   3.74529   3.78568   3.81114   3.83061
 Alpha virt. eigenvalues --    3.84099   3.93620   3.98583   4.01166   4.02595
          Condensed to atoms (all electrons):
               1          2          3          4          5          6
     1  O    8.196409  -0.010782  -0.001215  -0.001772  -0.000001   0.308424
     2  O   -0.010782   8.106835  -0.000190  -0.004300  -0.000321   0.019541
     3  O   -0.001215  -0.000190   8.198700  -0.008664  -0.000000   0.003422
     4  O   -0.001772  -0.004300  -0.008664   8.149769  -0.018712   0.003937
     5  O   -0.000001  -0.000321  -0.000000  -0.018712   8.075423  -0.000014
     6  H    0.308424   0.019541   0.003422   0.003937  -0.000014   0.297267
     7  H    0.317585   0.000991   0.000064   0.000235   0.000004  -0.023001
     8  H    0.000676   0.297342   0.000222   0.014544   0.002596  -0.002663
     9  H    0.000427   0.311581   0.000040   0.000007   0.000007  -0.000398
    10  H    0.000059   0.000003   0.315557   0.000339   0.000000  -0.000100
    11  H    0.001341   0.000819   0.307136   0.015715   0.000002  -0.001026
    12  H    0.000068   0.000205   0.000245   0.302992   0.018647  -0.000128
    13  H    0.004099   0.000198   0.000519   0.312944   0.001123  -0.000340
    14  H    0.000000   0.000018   0.000000   0.000895   0.311192  -0.000000
    15  H    0.000000   0.000197   0.000000   0.000618   0.313573  -0.000001
               7          8          9         10         11         12
     1  O    0.317585   0.000676   0.000427   0.000059   0.001341   0.000068
     2  O    0.000991   0.297342   0.311581   0.000003   0.000819   0.000205
     3  O    0.000064   0.000222   0.000040   0.315557   0.307136   0.000245
     4  O    0.000235   0.014544   0.000007   0.000339   0.015715   0.302992
     5  O    0.000004   0.002596   0.000007   0.000000   0.000002   0.018647
     6  H   -0.023001  -0.002663  -0.000398  -0.000100  -0.001026  -0.000128
     7  H    0.304408   0.000042  -0.000019  -0.000002  -0.000054   0.000001
     8  H    0.000042   0.352279  -0.018975   0.000008   0.000139  -0.001165
     9  H   -0.000019  -0.018975   0.339432  -0.000000   0.000008  -0.000008
    10  H   -0.000002   0.000008  -0.000000   0.293428  -0.019107  -0.000010
    11  H   -0.000054   0.000139   0.000008  -0.019107   0.308712  -0.000200
    12  H    0.000001  -0.001165  -0.000008  -0.000010  -0.000200   0.302947
    13  H    0.000103  -0.000543  -0.000000   0.000005  -0.001799  -0.019597
    14  H   -0.000000  -0.000034  -0.000001  -0.000000  -0.000000  -0.001388
    15  H   -0.000000  -0.000193   0.000008  -0.000000  -0.000001  -0.000643
              13         14         15
     1  O    0.004099   0.000000   0.000000
     2  O    0.000198   0.000018   0.000197
     3  O    0.000519   0.000000   0.000000
     4  O    0.312944   0.000895   0.000618
     5  O    0.001123   0.311192   0.313573
     6  H   -0.000340  -0.000000  -0.000001
     7  H    0.000103  -0.000000  -0.000000
     8  H   -0.000543  -0.000034  -0.000193
     9  H   -0.000000  -0.000001   0.000008
    10  H    0.000005  -0.000000  -0.000000
    11  H   -0.001799  -0.000000  -0.000001
    12  H   -0.019597  -0.001388  -0.000643
    13  H    0.325165  -0.000019  -0.000008
    14  H   -0.000019   0.354549  -0.021516
    15  H   -0.000008  -0.021516   0.331582
 Mulliken charges:
               1
     1  O   -0.815316
     2  O   -0.722137
     3  O   -0.815834
     4  O   -0.768547
     5  O   -0.703519
     6  H    0.395081
     7  H    0.399646
     8  H    0.355727
     9  H    0.367891
    10  H    0.409822
    11  H    0.388316
    12  H    0.398034
    13  H    0.378151
    14  H    0.356303
    15  H    0.376384
 Sum of Mulliken charges =  -0.00000
 Mulliken charges with hydrogens summed into heavy atoms:
               1
     1  O   -0.020590
     2  O    0.001481
     3  O   -0.017697
     4  O    0.007638
     5  O    0.029167
 Electronic spatial extent (au):  <R**2>=          55035.5012
 Charge=             -0.0000 electrons
 Dipole moment (field-independent basis, Debye):
    X=              2.0222    Y=             -0.6260    Z=              9.4472  Tot=              9.6815
 Quadrupole moment (field-independent basis, Debye-Ang):
   XX=              6.2706   YY=             -6.0662   ZZ=           -203.0572
   XY=            -28.2832   XZ=             58.8212   YZ=           -112.5854
 Traceless Quadrupole moment (field-independent basis, Debye-Ang):
   XX=             73.8882   YY=             61.5514   ZZ=           -135.4396
   XY=            -28.2832   XZ=             58.8212   YZ=           -112.5854
 Octapole moment (field-independent basis, Debye-Ang**2):
  XXX=           -239.1296  YYY=            514.1330  ZZZ=           3307.7351  XYY=            233.7240
  XXY=            -80.6636  XXZ=            575.1475  XZZ=          -1444.1701  YZZ=           2487.7816
  YYZ=           1550.3661  XYZ=           -710.3100
 Hexadecapole moment (field-independent basis, Debye-Ang**3):
 XXXX=          -6103.9618 YYYY=         -15222.3084 ZZZZ=         -48454.4784 XXXY=           3226.9064
 XXXZ=           7314.1395 YYYX=            493.3765 YYYZ=         -23752.7707 ZZZX=          24146.1113
 ZZZY=         -40859.1933 XXYY=           -177.8493 XXZZ=         -12439.7485 YYZZ=         -32632.2955
 XXYZ=          -7203.9460 YYXZ=          10087.0003 ZZXY=          17840.5735
 N-N= 1.939758010957D+02 E-N=-1.315601636561D+03  KE= 3.795875476220D+02
 No NMR shielding tensors so no spin-rotation constants.
 Leave Link  601 at Fri May 15 22:35:36 2020, MaxMem=   134217728 cpu:               0.6 elap:               0.2
 (Enter /home/soft/g16/l607.exe)
 ******************************Gaussian NBO Version 3.1******************************
             N A T U R A L   A T O M I C   O R B I T A L   A N D
          N A T U R A L   B O N D   O R B I T A L   A N A L Y S I S
 ******************************Gaussian NBO Version 3.1******************************
       /RESON  / : Allow strongly delocalized NBO set

 Analyzing the SCF density

 Job title: Atom number=15                                                  

 Storage needed:     44010 in NPA ( 134216513 available)
 GSVD:  LWork=        6720 too small for GESVD, short by        8100 words or        8100 for optimal perf.


 NATURAL POPULATIONS:  Natural atomic orbital occupancies 
                                                          
   NAO  Atom  No  lang   Type(AO)    Occupancy      Energy
 ----------------------------------------------------------
     1    O    1  S      Cor( 1S)     1.99985     -20.37443
     2    O    1  S      Val( 2S)     1.74910      -1.16025
     3    O    1  S      Ryd( 3S)     0.00059       1.92010
     4    O    1  px     Val( 2p)     1.68753      -0.39057
     5    O    1  px     Ryd( 3p)     0.00145       1.31367
     6    O    1  py     Val( 2p)     1.75937      -0.41880
     7    O    1  py     Ryd( 3p)     0.00144       1.25558
     8    O    1  pz     Val( 2p)     1.85832      -0.45731
     9    O    1  pz     Ryd( 3p)     0.00045       1.19129
    10    O    1  dxy    Ryd( 3d)     0.00053       2.53207
    11    O    1  dxz    Ryd( 3d)     0.00126       2.52660
    12    O    1  dyz    Ryd( 3d)     0.00144       2.74022
    13    O    1  dx2y2  Ryd( 3d)     0.00082       2.69792
    14    O    1  dz2    Ryd( 3d)     0.00133       2.36346

    15    O    2  S      Cor( 1S)     1.99985     -20.44230
    16    O    2  S      Val( 2S)     1.75302      -1.21031
    17    O    2  S      Ryd( 3S)     0.00108       1.78890
    18    O    2  px     Val( 2p)     1.90736      -0.52085
    19    O    2  px     Ryd( 3p)     0.00053       1.14363
    20    O    2  py     Val( 2p)     1.57537      -0.40816
    21    O    2  py     Ryd( 3p)     0.00157       1.35450
    22    O    2  pz     Val( 2p)     1.75875      -0.47270
    23    O    2  pz     Ryd( 3p)     0.00121       1.24127
    24    O    2  dxy    Ryd( 3d)     0.00088       2.39363
    25    O    2  dxz    Ryd( 3d)     0.00171       2.52726
    26    O    2  dyz    Ryd( 3d)     0.00082       2.46703
    27    O    2  dx2y2  Ryd( 3d)     0.00119       2.68581
    28    O    2  dz2    Ryd( 3d)     0.00143       2.52649

    29    O    3  S      Cor( 1S)     1.99985     -20.35237
    30    O    3  S      Val( 2S)     1.75034      -1.13536
    31    O    3  S      Ryd( 3S)     0.00075       1.98199
    32    O    3  px     Val( 2p)     1.58989      -0.33347
    33    O    3  px     Ryd( 3p)     0.00171       1.39935
    34    O    3  py     Val( 2p)     1.94641      -0.45439
    35    O    3  py     Ryd( 3p)     0.00082       1.20256
    36    O    3  pz     Val( 2p)     1.76814      -0.40504
    37    O    3  pz     Ryd( 3p)     0.00046       1.24702
    38    O    3  dxy    Ryd( 3d)     0.00025       2.37615
    39    O    3  dxz    Ryd( 3d)     0.00135       2.76669
    40    O    3  dyz    Ryd( 3d)     0.00150       2.46867
    41    O    3  dx2y2  Ryd( 3d)     0.00069       2.73311
    42    O    3  dz2    Ryd( 3d)     0.00173       2.63770

    43    O    4  S      Cor( 1S)     1.99984     -20.41427
    44    O    4  S      Val( 2S)     1.74234      -1.19941
    45    O    4  S      Ryd( 3S)     0.00073       1.87845
    46    O    4  px     Val( 2p)     1.85816      -0.49906
    47    O    4  px     Ryd( 3p)     0.00039       1.24634
    48    O    4  py     Val( 2p)     1.68115      -0.43128
    49    O    4  py     Ryd( 3p)     0.00159       1.28006
    50    O    4  pz     Val( 2p)     1.75283      -0.45522
    51    O    4  pz     Ryd( 3p)     0.00135       1.39720
    52    O    4  dxy    Ryd( 3d)     0.00141       2.58554
    53    O    4  dxz    Ryd( 3d)     0.00153       2.70445
    54    O    4  dyz    Ryd( 3d)     0.00044       2.51922
    55    O    4  dx2y2  Ryd( 3d)     0.00122       2.47612
    56    O    4  dz2    Ryd( 3d)     0.00081       2.44514

    57    O    5  S      Cor( 1S)     1.99986     -20.50203
    58    O    5  S      Val( 2S)     1.75123      -1.26129
    59    O    5  S      Ryd( 3S)     0.00113       1.63806
    60    O    5  px     Val( 2p)     1.95557      -0.58767
    61    O    5  px     Ryd( 3p)     0.00079       1.17946
    62    O    5  py     Val( 2p)     1.51050      -0.44070
    63    O    5  py     Ryd( 3p)     0.00215       1.22896
    64    O    5  pz     Val( 2p)     1.77192      -0.53530
    65    O    5  pz     Ryd( 3p)     0.00051       1.22321
    66    O    5  dxy    Ryd( 3d)     0.00017       2.28535
    67    O    5  dxz    Ryd( 3d)     0.00147       2.23630
    68    O    5  dyz    Ryd( 3d)     0.00159       2.98632
    69    O    5  dx2y2  Ryd( 3d)     0.00041       2.56551
    70    O    5  dz2    Ryd( 3d)     0.00155       2.25548

    71    H    6  S      Val( 1S)     0.47710       0.37580
    72    H    6  S      Ryd( 2S)     0.00154       0.94177
    73    H    6  px     Ryd( 2p)     0.00054       2.74842
    74    H    6  py     Ryd( 2p)     0.00124       3.11840
    75    H    6  pz     Ryd( 2p)     0.00107       2.94855

    76    H    7  S      Val( 1S)     0.46575       0.40346
    77    H    7  S      Ryd( 2S)     0.00040       0.75805
    78    H    7  px     Ryd( 2p)     0.00162       3.28087
    79    H    7  py     Ryd( 2p)     0.00069       2.73023
    80    H    7  pz     Ryd( 2p)     0.00077       2.72595

    81    H    8  S      Val( 1S)     0.49313       0.29962
    82    H    8  S      Ryd( 2S)     0.00185       0.83674
    83    H    8  px     Ryd( 2p)     0.00109       2.76825
    84    H    8  py     Ryd( 2p)     0.00075       2.74736
    85    H    8  pz     Ryd( 2p)     0.00123       3.11602

    86    H    9  S      Val( 1S)     0.48628       0.31275
    87    H    9  S      Ryd( 2S)     0.00070       0.69018
    88    H    9  px     Ryd( 2p)     0.00081       2.58964
    89    H    9  py     Ryd( 2p)     0.00169       3.35094
    90    H    9  pz     Ryd( 2p)     0.00067       2.60218

    91    H   10  S      Val( 1S)     0.45784       0.44053
    92    H   10  S      Ryd( 2S)     0.00056       0.79398
    93    H   10  px     Ryd( 2p)     0.00175       3.42833
    94    H   10  py     Ryd( 2p)     0.00067       2.65303
    95    H   10  pz     Ryd( 2p)     0.00061       2.73810

    96    H   11  S      Val( 1S)     0.48354       0.39382
    97    H   11  S      Ryd( 2S)     0.00108       0.90969
    98    H   11  px     Ryd( 2p)     0.00067       2.85622
    99    H   11  py     Ryd( 2p)     0.00095       2.74968
   100    H   11  pz     Ryd( 2p)     0.00131       3.20904

   101    H   12  S      Val( 1S)     0.47865       0.33531
   102    H   12  S      Ryd( 2S)     0.00076       0.85260
   103    H   12  px     Ryd( 2p)     0.00113       2.88975
   104    H   12  py     Ryd( 2p)     0.00065       2.71199
   105    H   12  pz     Ryd( 2p)     0.00134       3.08690

   106    H   13  S      Val( 1S)     0.47396       0.34136
   107    H   13  S      Ryd( 2S)     0.00111       0.74796
   108    H   13  px     Ryd( 2p)     0.00077       2.73694
   109    H   13  py     Ryd( 2p)     0.00147       3.20035
   110    H   13  pz     Ryd( 2p)     0.00075       2.73046

   111    H   14  S      Val( 1S)     0.49239       0.24545
   112    H   14  S      Ryd( 2S)     0.00095       0.62840
   113    H   14  px     Ryd( 2p)     0.00091       2.56777
   114    H   14  py     Ryd( 2p)     0.00100       2.96970
   115    H   14  pz     Ryd( 2p)     0.00115       2.86288

   116    H   15  S      Val( 1S)     0.47647       0.27239
   117    H   15  S      Ryd( 2S)     0.00086       0.63778
   118    H   15  px     Ryd( 2p)     0.00080       2.54395
   119    H   15  py     Ryd( 2p)     0.00132       3.14656
   120    H   15  pz     Ryd( 2p)     0.00088       2.73595


 Summary of Natural Population Analysis:                  
                                                          
                                       Natural Population 
                Natural  -----------------------------------------------
    Atom  No    Charge         Core      Valence    Rydberg      Total
 -----------------------------------------------------------------------
      O    1   -1.06348      1.99985     7.05432    0.00931     9.06348
      O    2   -1.00478      1.99985     6.99449    0.01043     9.00478
      O    3   -1.06388      1.99985     7.05478    0.00926     9.06388
      O    4   -1.04379      1.99984     7.03448    0.00947     9.04379
      O    5   -0.99885      1.99986     6.98922    0.00977     8.99885
      H    6    0.51851      0.00000     0.47710    0.00439     0.48149
      H    7    0.53077      0.00000     0.46575    0.00347     0.46923
      H    8    0.50195      0.00000     0.49313    0.00492     0.49805
      H    9    0.50985      0.00000     0.48628    0.00386     0.49015
      H   10    0.53857      0.00000     0.45784    0.00359     0.46143
      H   11    0.51244      0.00000     0.48354    0.00402     0.48756
      H   12    0.51748      0.00000     0.47865    0.00388     0.48252
      H   13    0.52194      0.00000     0.47396    0.00410     0.47806
      H   14    0.50360      0.00000     0.49239    0.00401     0.49640
      H   15    0.51967      0.00000     0.47647    0.00386     0.48033
 =======================================================================
   * Total *   -0.00000      9.99924    39.91241    0.08835    50.00000

                                 Natural Population      
 --------------------------------------------------------
   Core                       9.99924 ( 99.9924% of  10)
   Valence                   39.91241 ( 99.7810% of  40)
   Natural Minimal Basis     49.91165 ( 99.8233% of  50)
   Natural Rydberg Basis      0.08835 (  0.1767% of  50)
 --------------------------------------------------------

    Atom  No          Natural Electron Configuration
 ----------------------------------------------------------------------------
      O    1      [core]2S( 1.75)2p( 5.31)3d( 0.01)
      O    2      [core]2S( 1.75)2p( 5.24)3d( 0.01)
      O    3      [core]2S( 1.75)2p( 5.30)3d( 0.01)
      O    4      [core]2S( 1.74)2p( 5.29)3d( 0.01)
      O    5      [core]2S( 1.75)2p( 5.24)3d( 0.01)
      H    6            1S( 0.48)
      H    7            1S( 0.47)
      H    8            1S( 0.49)
      H    9            1S( 0.49)
      H   10            1S( 0.46)
      H   11            1S( 0.48)
      H   12            1S( 0.48)
      H   13            1S( 0.47)
      H   14            1S( 0.49)
      H   15            1S( 0.48)


 NBO analysis skipped by request.
 Leave Link  607 at Fri May 15 22:35:36 2020, MaxMem=   134217728 cpu:               0.6 elap:               0.2
 (Enter /home/soft/g16/l9999.exe)

 Test job not archived.
 1\1\GINC-MASTER\SP\RHF\6-31G(d,p)\H10O5\LIWEI01\15-May-2020\0\\#p hf/6
 -31g** 5d 7f pop=npa charge nosymm\\Atom number=15\\0,1\O,0,8.392325,-
 11.812941,-11.200483\O,0,8.693246,-14.069272,-9.547113\O,0,5.570392,-1
 2.760041,-10.733807\O,0,6.942642,-11.829381,-8.371044\O,0,8.801253,-12
 .425877,-6.497294\H,0,8.175276,-12.537815,-10.614239\H,0,9.252154,-11.
 5141,-10.904475\H,0,8.22009,-13.732742,-8.786125\H,0,8.552802,-15.0156
 59,-9.517782\H,0,4.642708,-12.827827,-10.507888\H,0,5.983752,-12.40517
 ,-9.946767\H,0,7.495574,-12.091052,-7.634819\H,0,7.307461,-10.99284,-8
 .659728\H,0,9.055634,-11.748983,-5.870127\H,0,8.939496,-13.249901,-6.0
 30278\\Version=ES64L-G16RevA.03\HF=-393.215802\RMSD=6.986e-09\Dipole=0
 .7955772,-0.2462936,3.7168338\Quadrupole=54.9340726,45.7619711,-100.69
 60436,-21.0278588,43.7321056,-83.7044803\PG=C01 [X(H10O5)]\\@


 Fatherhood is pretending the present you love most is soap-on-a-rope.
 -- Bill Cosby
 Job cpu time:       0 days  0 hours  0 minutes  7.8 seconds.
 Elapsed time:       0 days  0 hours  0 minutes  2.4 seconds.
 File lengths (MBytes):  RWF=     72 Int=      0 D2E=      0 Chk=      8 Scr=      8
 Normal termination of Gaussian 16 at Fri May 15 22:35:36 2020.
