#INFO: **** input file is /home/liwei01/wsr/dftpart/test_2body/w32/gfea_c8.py ****
from dftpart import gfea3
from pyscf import lib

par = 8
with lib.with_omp_threads(par):
    fr0 = gfea3.GFEA()
    fr0.inputstyle = 'frg'
    fr0.method = ['hf', '6-31gss','charge']
    fr0.gjfname = 'w32'
    fr0.output = 'w32'
    fr0.verbose = 9
    fr0.showinter = True
    #fr0.do_deriv = True
    fr0.kernel()

#INFO: ******************** input file end ********************


System: uname_result(system='Linux', node='master', release='3.10.0-693.el7.x86_64', version='#1 SMP Tue Aug 22 21:09:27 UTC 2017', machine='x86_64', processor='x86_64')  Threads 8
Python 3.7.6 (default, Jan  8 2020, 19:59:22) 
[GCC 7.3.0]
numpy 1.18.1  scipy 1.4.1
Date: Tue Jun 16 20:56:39 2020
PySCF version 1.6.1
PySCF path  /home/liwei01/zcheng/pyscf/pyscf
GIT HEAD      ref: refs/heads/master
GIT master branch  3adc7fd25839fe674469a52b764c3661e32d7318

[CONFIG] DEBUG = False
[CONFIG] MAX_MEMORY = 4000
[CONFIG] TMPDIR = .
[CONFIG] UNIT = angstrom
[CONFIG] VERBOSE = 3
[CONFIG] conf_file = None
[INPUT] verbose = 9
[INPUT] max_memory = 4000 
[INPUT] num. atoms = 18
[INPUT] num. electrons = 60
[INPUT] charge = 0
[INPUT] spin (= nelec alpha-beta = 2S) = 0
[INPUT] symmetry False subgroup None
[INPUT] Mole.unit = angstrom
[INPUT]  1 O      8.392325000000 -11.812941000000 -11.200483000000 AA   15.859195798340 -22.323223215646 -21.165845332847 Bohr
[INPUT]  2 O      8.693246000000 -14.069272000000  -9.547113000000 AA   16.427854073471 -26.587070852012 -18.041428850275 Bohr
[INPUT]  3 O      9.739714000000 -14.560219000000 -13.084136000000 AA   18.405391991592 -27.514826223689 -24.725433616562 Bohr
[INPUT]  4 O      8.491932000000 -14.159618000000 -15.711024000000 AA   16.047425748430 -26.757800048462 -29.689532496469 Bohr
[INPUT]  5 O     10.675204000000 -11.925165000000 -15.819193000000 AA   20.173211883861 -22.535295840249 -29.893942281637 Bohr
[INPUT]  6 O      7.759345000000 -16.504968000000 -13.246021000000 AA   14.663036956013 -31.189869214710 -25.031351930237 Bohr
[INPUT]  7 H      8.175276000000 -12.537815000000 -10.614239000000 AA   15.449032632730 -23.693036550464 -20.058004730677 Bohr
[INPUT]  8 H      9.252154000000 -11.514100000000 -10.904475000000 AA   17.484037122299 -21.758495570855 -20.606471282167 Bohr
[INPUT]  9 H      8.220090000000 -13.732742000000  -8.786125000000 AA   15.533718819276 -25.951121319312 -16.603369946194 Bohr
[INPUT] 10 H      8.552802000000 -15.015659000000  -9.517782000000 AA   16.162453377632 -28.375483089860 -17.986001293315 Bohr
[INPUT] 11 H      9.436683000000 -13.920876000000 -12.439430000000 AA   17.832746394339 -26.306643054031 -23.507115845698 Bohr
[INPUT] 12 H     10.652707000000 -14.322974000000 -13.246584000000 AA   20.130698715237 -27.066498149266 -25.032415846046 Bohr
[INPUT] 13 H      8.843942000000 -15.043720000000 -15.814399000000 AA   16.712628241538 -28.428510694642 -29.884882934596 Bohr
[INPUT] 14 H      8.918348000000 -13.822113000000 -14.923311000000 AA   16.853235203563 -26.120008032790 -28.200970661709 Bohr
[INPUT] 15 H     11.145373000000 -12.259719000000 -15.055487000000 AA   21.061702526122 -23.167511274127 -28.450747101950 Bohr
[INPUT] 16 H     10.769363000000 -12.612255000000 -16.478945000000 AA   20.351146606024 -23.833707763176 -31.140692871771 Bohr
[INPUT] 17 H      7.307919000000 -16.211137000000 -12.454749000000 AA   13.809965450505 -30.634609097803 -23.536064560201 Bohr
[INPUT] 18 H      8.537292000000 -15.949757000000 -13.298681000000 AA   16.133143725440 -30.140672483364 -25.130864907957 Bohr
[INPUT] ---------------- BASIS SET ---------------- 
[INPUT] l, kappa, [nprim/nctr], expnt,             c_1 c_2 ...
[INPUT] H
[INPUT] 0    0    [3    /1   ]  18.731137         0.0334946
                                2.8253937         0.23472695
                                0.6401217         0.81375733
[INPUT] 0    0    [1    /1   ]  0.1612778            1
[INPUT] 1    0    [1    /1   ]  1.1                  1
[INPUT] O
[INPUT] 0    0    [6    /1   ]  5484.6717         0.0018311
                                825.23495         0.0139501
                                188.04696         0.0684451
                                52.9645           0.2327143
                                16.89757          0.470193
                                5.7996353         0.3585209
[INPUT] 0    0    [3    /1   ]  15.539616         -0.1107775
                                3.5999336         -0.1480263
                                1.0137618         1.130767
[INPUT] 0    0    [1    /1   ]  0.2700058            1
[INPUT] 1    0    [3    /1   ]  15.539616         0.0708743
                                3.5999336         0.3397528
                                1.0137618         0.7271586
[INPUT] 1    0    [1    /1   ]  0.2700058            1
[INPUT] 2    0    [1    /1   ]  0.8                  1

nuclear repulsion = 254.80946336136
number of shells = 72
number of NR pGTOs = 246
number of NR cGTOs = 144
basis = 6-31gss
ecp = {}
bas 0, expnt(s) = [5484.6717     825.23495    188.04696     52.9645      16.89757
    5.7996353]
bas 1, expnt(s) = [15.539616   3.5999336  1.0137618]
bas 2, expnt(s) = [0.2700058]
bas 3, expnt(s) = [15.539616   3.5999336  1.0137618]
bas 4, expnt(s) = [0.2700058]
bas 5, expnt(s) = [0.8]
bas 6, expnt(s) = [5484.6717     825.23495    188.04696     52.9645      16.89757
    5.7996353]
bas 7, expnt(s) = [15.539616   3.5999336  1.0137618]
bas 8, expnt(s) = [0.2700058]
bas 9, expnt(s) = [15.539616   3.5999336  1.0137618]
bas 10, expnt(s) = [0.2700058]
bas 11, expnt(s) = [0.8]
bas 12, expnt(s) = [5484.6717     825.23495    188.04696     52.9645      16.89757
    5.7996353]
bas 13, expnt(s) = [15.539616   3.5999336  1.0137618]
bas 14, expnt(s) = [0.2700058]
bas 15, expnt(s) = [15.539616   3.5999336  1.0137618]
bas 16, expnt(s) = [0.2700058]
bas 17, expnt(s) = [0.8]
bas 18, expnt(s) = [5484.6717     825.23495    188.04696     52.9645      16.89757
    5.7996353]
bas 19, expnt(s) = [15.539616   3.5999336  1.0137618]
bas 20, expnt(s) = [0.2700058]
bas 21, expnt(s) = [15.539616   3.5999336  1.0137618]
bas 22, expnt(s) = [0.2700058]
bas 23, expnt(s) = [0.8]
bas 24, expnt(s) = [5484.6717     825.23495    188.04696     52.9645      16.89757
    5.7996353]
bas 25, expnt(s) = [15.539616   3.5999336  1.0137618]
bas 26, expnt(s) = [0.2700058]
bas 27, expnt(s) = [15.539616   3.5999336  1.0137618]
bas 28, expnt(s) = [0.2700058]
bas 29, expnt(s) = [0.8]
bas 30, expnt(s) = [5484.6717     825.23495    188.04696     52.9645      16.89757
    5.7996353]
bas 31, expnt(s) = [15.539616   3.5999336  1.0137618]
bas 32, expnt(s) = [0.2700058]
bas 33, expnt(s) = [15.539616   3.5999336  1.0137618]
bas 34, expnt(s) = [0.2700058]
bas 35, expnt(s) = [0.8]
bas 36, expnt(s) = [18.731137   2.8253937  0.6401217]
bas 37, expnt(s) = [0.1612778]
bas 38, expnt(s) = [1.1]
bas 39, expnt(s) = [18.731137   2.8253937  0.6401217]
bas 40, expnt(s) = [0.1612778]
bas 41, expnt(s) = [1.1]
bas 42, expnt(s) = [18.731137   2.8253937  0.6401217]
bas 43, expnt(s) = [0.1612778]
bas 44, expnt(s) = [1.1]
bas 45, expnt(s) = [18.731137   2.8253937  0.6401217]
bas 46, expnt(s) = [0.1612778]
bas 47, expnt(s) = [1.1]
bas 48, expnt(s) = [18.731137   2.8253937  0.6401217]
bas 49, expnt(s) = [0.1612778]
bas 50, expnt(s) = [1.1]
bas 51, expnt(s) = [18.731137   2.8253937  0.6401217]
bas 52, expnt(s) = [0.1612778]
bas 53, expnt(s) = [1.1]
bas 54, expnt(s) = [18.731137   2.8253937  0.6401217]
bas 55, expnt(s) = [0.1612778]
bas 56, expnt(s) = [1.1]
bas 57, expnt(s) = [18.731137   2.8253937  0.6401217]
bas 58, expnt(s) = [0.1612778]
bas 59, expnt(s) = [1.1]
bas 60, expnt(s) = [18.731137   2.8253937  0.6401217]
bas 61, expnt(s) = [0.1612778]
bas 62, expnt(s) = [1.1]
bas 63, expnt(s) = [18.731137   2.8253937  0.6401217]
bas 64, expnt(s) = [0.1612778]
bas 65, expnt(s) = [1.1]
bas 66, expnt(s) = [18.731137   2.8253937  0.6401217]
bas 67, expnt(s) = [0.1612778]
bas 68, expnt(s) = [1.1]
bas 69, expnt(s) = [18.731137   2.8253937  0.6401217]
bas 70, expnt(s) = [0.1612778]
bas 71, expnt(s) = [1.1]
CPU time:       538.58
arg.atm = [[ 8 20  1 23  0  0]
 [ 8 24  1 27  0  0]
 [ 8 28  1 31  0  0]
 [ 8 32  1 35  0  0]
 [ 8 36  1 39  0  0]
 [ 8 40  1 43  0  0]
 [ 1 44  1 47  0  0]
 [ 1 48  1 51  0  0]
 [ 1 52  1 55  0  0]
 [ 1 56  1 59  0  0]
 [ 1 60  1 63  0  0]
 [ 1 64  1 67  0  0]
 [ 1 68  1 71  0  0]
 [ 1 72  1 75  0  0]
 [ 1 76  1 79  0  0]
 [ 1 80  1 83  0  0]
 [ 1 84  1 87  0  0]
 [ 1 88  1 91  0  0]]
arg.bas = [[  0   0   6   1   0 102 108   0]
 [  0   0   3   1   0 114 117   0]
 [  0   0   1   1   0 120 121   0]
 [  0   1   3   1   0 122 125   0]
 [  0   1   1   1   0 128 129   0]
 [  0   2   1   1   0 130 131   0]
 [  1   0   6   1   0 102 108   0]
 [  1   0   3   1   0 114 117   0]
 [  1   0   1   1   0 120 121   0]
 [  1   1   3   1   0 122 125   0]
 [  1   1   1   1   0 128 129   0]
 [  1   2   1   1   0 130 131   0]
 [  2   0   6   1   0 102 108   0]
 [  2   0   3   1   0 114 117   0]
 [  2   0   1   1   0 120 121   0]
 [  2   1   3   1   0 122 125   0]
 [  2   1   1   1   0 128 129   0]
 [  2   2   1   1   0 130 131   0]
 [  3   0   6   1   0 102 108   0]
 [  3   0   3   1   0 114 117   0]
 [  3   0   1   1   0 120 121   0]
 [  3   1   3   1   0 122 125   0]
 [  3   1   1   1   0 128 129   0]
 [  3   2   1   1   0 130 131   0]
 [  4   0   6   1   0 102 108   0]
 [  4   0   3   1   0 114 117   0]
 [  4   0   1   1   0 120 121   0]
 [  4   1   3   1   0 122 125   0]
 [  4   1   1   1   0 128 129   0]
 [  4   2   1   1   0 130 131   0]
 [  5   0   6   1   0 102 108   0]
 [  5   0   3   1   0 114 117   0]
 [  5   0   1   1   0 120 121   0]
 [  5   1   3   1   0 122 125   0]
 [  5   1   1   1   0 128 129   0]
 [  5   2   1   1   0 130 131   0]
 [  6   0   3   1   0  92  95   0]
 [  6   0   1   1   0  98  99   0]
 [  6   1   1   1   0 100 101   0]
 [  7   0   3   1   0  92  95   0]
 [  7   0   1   1   0  98  99   0]
 [  7   1   1   1   0 100 101   0]
 [  8   0   3   1   0  92  95   0]
 [  8   0   1   1   0  98  99   0]
 [  8   1   1   1   0 100 101   0]
 [  9   0   3   1   0  92  95   0]
 [  9   0   1   1   0  98  99   0]
 [  9   1   1   1   0 100 101   0]
 [ 10   0   3   1   0  92  95   0]
 [ 10   0   1   1   0  98  99   0]
 [ 10   1   1   1   0 100 101   0]
 [ 11   0   3   1   0  92  95   0]
 [ 11   0   1   1   0  98  99   0]
 [ 11   1   1   1   0 100 101   0]
 [ 12   0   3   1   0  92  95   0]
 [ 12   0   1   1   0  98  99   0]
 [ 12   1   1   1   0 100 101   0]
 [ 13   0   3   1   0  92  95   0]
 [ 13   0   1   1   0  98  99   0]
 [ 13   1   1   1   0 100 101   0]
 [ 14   0   3   1   0  92  95   0]
 [ 14   0   1   1   0  98  99   0]
 [ 14   1   1   1   0 100 101   0]
 [ 15   0   3   1   0  92  95   0]
 [ 15   0   1   1   0  98  99   0]
 [ 15   1   1   1   0 100 101   0]
 [ 16   0   3   1   0  92  95   0]
 [ 16   0   1   1   0  98  99   0]
 [ 16   1   1   1   0 100 101   0]
 [ 17   0   3   1   0  92  95   0]
 [ 17   0   1   1   0  98  99   0]
 [ 17   1   1   1   0 100 101   0]]
arg.env = [ 1.37036000e+02  0.00000000e+00  0.00000000e+00  0.00000000e+00
  0.00000000e+00  0.00000000e+00  0.00000000e+00  0.00000000e+00
  0.00000000e+00  0.00000000e+00  0.00000000e+00  0.00000000e+00
  0.00000000e+00  0.00000000e+00  0.00000000e+00  0.00000000e+00
  0.00000000e+00  0.00000000e+00  0.00000000e+00  0.00000000e+00
  1.58591958e+01 -2.23232232e+01 -2.11658453e+01  0.00000000e+00
  1.64278541e+01 -2.65870709e+01 -1.80414289e+01  0.00000000e+00
  1.84053920e+01 -2.75148262e+01 -2.47254336e+01  0.00000000e+00
  1.60474257e+01 -2.67578000e+01 -2.96895325e+01  0.00000000e+00
  2.01732119e+01 -2.25352958e+01 -2.98939423e+01  0.00000000e+00
  1.46630370e+01 -3.11898692e+01 -2.50313519e+01  0.00000000e+00
  1.54490326e+01 -2.36930366e+01 -2.00580047e+01  0.00000000e+00
  1.74840371e+01 -2.17584956e+01 -2.06064713e+01  0.00000000e+00
  1.55337188e+01 -2.59511213e+01 -1.66033699e+01  0.00000000e+00
  1.61624534e+01 -2.83754831e+01 -1.79860013e+01  0.00000000e+00
  1.78327464e+01 -2.63066431e+01 -2.35071158e+01  0.00000000e+00
  2.01306987e+01 -2.70664981e+01 -2.50324158e+01  0.00000000e+00
  1.67126282e+01 -2.84285107e+01 -2.98848829e+01  0.00000000e+00
  1.68532352e+01 -2.61200080e+01 -2.82009707e+01  0.00000000e+00
  2.10617025e+01 -2.31675113e+01 -2.84507471e+01  0.00000000e+00
  2.03511466e+01 -2.38337078e+01 -3.11406929e+01  0.00000000e+00
  1.38099655e+01 -3.06346091e+01 -2.35360646e+01  0.00000000e+00
  1.61331437e+01 -3.01406725e+01 -2.51308649e+01  0.00000000e+00
  1.87311370e+01  2.82539370e+00  6.40121700e-01  7.61926220e-01
  1.29237100e+00  1.47131900e+00  1.61277800e-01  6.42977783e-01
  1.10000000e+00  3.28643653e+00  5.48467170e+03  8.25234950e+02
  1.88046960e+02  5.29645000e+01  1.68975700e+01  5.79963530e+00
  2.94842455e+00  5.42657124e+00  8.78126489e+00  1.15432129e+01
  9.90055015e+00  3.38516599e+00  1.55396160e+01  3.59993360e+00
  1.01376180e+00 -2.19051792e+00 -9.77405528e-01  2.88629094e+00
  2.70005800e-01  9.46334873e-01  1.55396160e+01  3.59993360e+00
  1.01376180e+00  6.37930734e+00  4.91490975e+00  2.15791055e+00
  2.70005800e-01  5.67807022e-01  8.00000000e-01  1.76578110e+00]
ecpbas  = []


******** <class 'pyscf.qmmm.itrf.mm_charge.<locals>.QMMM'> ********
method = QMMM-RHF
initial guess = minao
damping factor = 0
level shift factor = 0
DIIS = <class 'pyscf.scf.diis.CDIIS'>
DIIS start cycle = 1
DIIS space = 8
SCF tol = 1e-09
SCF gradient tol = None
max. SCF cycles = 50
direct_scf = True
direct_scf_tol = 1e-13
chkfile to save SCF result = /home/liwei01/wsr/dftpart/test_2body/w32/tmpnkl_v82s
max_memory 4000 MB (current use 298 MB)
** Add background charges for <class 'pyscf.scf.hf.RHF'> **
Charge      Location
-1.035697    [ 20.23144001 -20.50137794 -19.07019386]
0.520608    [ 21.7723038  -21.39222885 -18.74761761]
0.515624    [ 19.97024207 -19.49608333 -17.58928542]
-1.024266    [ 13.70105109 -18.63199472 -24.76194313]
0.515186    [ 13.45609723 -19.31578456 -26.41855264]
0.515422    [ 13.87339411 -20.08163576 -23.69387937]
-1.050024    [ 10.52651529 -24.11298283 -20.2839555 ]
0.521386    [  8.7734466  -24.2410798  -19.85703047]
0.506414    [ 11.30765248 -23.44237383 -18.79666545]
-1.032359    [ 13.1641969  -17.47579981 -19.41562257]
0.514165    [ 13.18112696 -18.60438393 -20.82910748]
0.518479    [ 14.52136419 -16.32434621 -19.73837456]
-1.052762    [ 13.11969196 -22.35429031 -15.81898054]
0.521035    [ 14.16458201 -22.84877684 -14.42771692]
0.525545    [ 13.80909996 -20.77345693 -16.36451423]
-1.054902    [ 19.05772167 -18.14703431 -25.87868434]
0.517977    [ 18.59105569 -18.66655214 -27.54728983]
0.522623    [ 17.51229609 -18.19498233 -24.93991564]
-0.997115    [ 17.90283445 -15.11249509 -20.63210731]
0.530073    [ 18.89257472 -16.62132612 -20.50652934]
0.49195    [ 18.18557149 -14.25298717 -19.06582671]
-1.032188    [ 15.97118286 -20.09833149 -29.6421136 ]
0.47982    [ 15.3540909  -19.66610766 -31.28659296]
0.534069    [ 17.50300052 -21.00734455 -29.95701189]
-0.992133    [  7.63287216 -21.21078113 -24.19682809]
0.480184    [  8.55071592 -22.76668147 -24.10379498]
0.504586    [  8.37549106 -20.32880248 -25.59058803]
-1.012936    [ 10.55365553 -29.46492154 -21.67488842]
0.504954    [  8.84108934 -29.00412127 -22.03084479]
0.525721    [ 11.34418277 -27.91794449 -21.17105153]
-0.985176    [ 16.63195772 -23.48150439 -12.27810621]
0.500614    [ 17.11266814 -22.20236011 -11.09293235]
0.508291    [ 16.89319913 -25.03868407 -11.39557387]
-0.979947    [ 19.94097588 -17.12125506 -14.67509908]
0.500341    [ 18.95312155 -17.86288753 -13.35371942]
0.493696    [ 19.00620207 -15.6543646  -15.17143564]
-0.999332    [ 25.43111026 -22.24828235 -18.47023794]
0.512801    [ 26.28398524 -20.77981964 -19.09325419]
0.507583    [ 26.7410892  -23.47726762 -18.25698991]
-1.016163    [ 10.56617686 -29.35403808 -16.44102735]
0.483053    [ 11.92280935 -30.36927076 -15.8079521 ]
0.523726    [ 10.34862781 -29.90290525 -18.15080431]
-0.976012    [ 10.09067452 -21.18806662 -29.24260093]
0.486289    [ 11.11173701 -19.76402949 -29.69146191]
0.496485    [ 10.37375928 -22.38512875 -30.56881072]
-0.977833    [ 24.5589393  -27.80514674 -21.18389789]
0.50587    [ 23.21796885 -28.65180829 -20.31390388]
0.463809    [ 25.76766104 -27.42438582 -19.8931866 ]
-0.989717    [  8.77070649 -15.37911655 -23.94499373]
0.487556    [  8.68859978 -13.74216775 -23.17975481]
0.496916    [ 10.53805395 -15.75730555 -24.01835668]
-0.992057    [ 16.93410036 -32.15697813 -17.52810554]
0.50918    [ 16.39069828 -32.53931319 -15.84570882]
0.510293    [ 15.6895513  -32.92540692 -18.59231236]
-0.998393    [ 24.35861321 -18.31258187 -25.98586582]
0.466984    [ 25.48944989 -18.60606579 -24.60492389]
0.51604    [ 22.70911474 -18.4111103  -25.25008395]
-1.010464    [  9.27281806 -14.9477601  -17.25327322]
0.476424    [  7.6789399  -15.16789619 -18.07972415]
0.517552    [ 10.24747455 -16.38576609 -17.75736144]
-0.991473    [  5.5836248  -24.00414405 -18.66237963]
0.501887    [  5.79022289 -25.52045085 -17.69798247]
0.510487    [  5.17491673 -22.73885336 -17.43603619]
-1.029267    [  7.95719829 -25.19119252 -14.2761212 ]
0.497876    [  9.38018663 -24.0850659  -14.1227926 ]
0.519667    [  8.66153702 -26.76190075 -14.83174226]
-1.001943    [ 16.13613705 -11.83176802 -24.46883904]
0.509813    [ 16.78082846 -12.94299123 -23.1954641 ]
0.477312    [ 17.5304658  -11.57071369 -25.59117007]
-1.019724    [ 21.67798379 -29.0173418  -14.20699124]
0.475311    [ 20.53074618 -29.01816194 -15.60548117]
0.514632    [ 22.50198564 -27.40961194 -14.29731259]
-0.9959    [ 24.21450458 -24.60133719 -13.9203349 ]
0.499354    [ 23.58737251 -23.46499007 -12.66043371]
0.511038    [ 23.91476757 -23.75039163 -15.48812918]
-1.001922    [ 21.40011279 -32.14724982 -20.33868764]
0.487648    [ 22.14106118 -33.75675602 -19.97480576]
0.509505    [ 19.73399418 -32.24696878 -19.64152988]
Set gradient conv threshold to 3.16228e-05
Nelec from initial guess = 59.93256374796102
cond(S) = 145.8468362446118
E1 = -1128.3486796062239  E_coul = 418.5028768708032
init E= -455.223791240543
    CPU time for initialize scf      3.35 sec, wall time      0.43 sec
  HOMO = -0.455150107981864  LUMO = 0.0629163728932522
  mo_energy =
[-20.85384494 -20.81565096 -20.80686541 -20.79429261 -20.79153321
 -20.77753017  -1.66849805  -1.6471534   -1.63928926  -1.61664455
  -1.60038997  -1.58517852  -0.79161311  -0.76767461  -0.76430809
  -0.75254095  -0.73928628  -0.72925993  -0.6527916   -0.62028746
  -0.61539782  -0.59832359  -0.56715158  -0.54252852  -0.52856172
  -0.48899283  -0.48327886  -0.47297192  -0.46639377  -0.45515011
   0.06291637   0.10323244   0.14387396   0.16564521   0.19053131
   0.20831899   0.24485514   0.25206409   0.26273835   0.29401129
   0.32300541   0.33689799   0.86783471   0.89122595   0.91121003
   0.93049411   0.93495981   0.95244965   0.96068908   0.97873137
   0.98059543   0.9915981    1.00208696   1.01367497   1.0219584
   1.03309562   1.04961923   1.07062907   1.08347163   1.1082531
   1.12129444   1.12784493   1.15979742   1.17245646   1.18692184
   1.20791046   1.22168722   1.23706378   1.28394832   1.29404072
   1.32394679   1.37168329   1.46510451   1.49346903   1.54491707
   1.55890304   1.59692196   1.66577283   1.68594027   1.69373974
   1.71203714   1.71906928   1.72358604   1.73438883   1.73988251
   1.74257      1.75460701   1.76608847   1.77664955   1.80534169
   1.81039865   1.81216639   1.83181372   1.85656994   1.89993322
   1.9423536    2.45311945   2.47554078   2.489859     2.51190345
   2.52608032   2.53631686   2.54392323   2.54618851   2.5563937
   2.58503744   2.62131299   2.63332138   2.68759145   2.71545024
   2.72708596   2.75122355   2.77703144   2.81628688   2.87960589
   2.90368369   2.92160916   2.92598262   2.9294602    2.93380597
   2.94569901   2.94718131   2.95442309   2.96042846   2.98382311
   2.99891231   3.28798697   3.3219859    3.32803124   3.35756055
   3.3638281    3.37335015   3.66412321   3.69751519   3.70227446
   3.72842256   3.74336898   3.76797833   3.810993     3.86311882
   3.88159097   3.89203377   3.9088725    3.94314299]
E1 = -1143.0043060748167  E_coul = 432.36447718758734
cycle= 1 E= -456.017817392352  delta_E= -0.794  |g|= 1.07  |ddm|=  2.9
    CPU time for cycle= 1      0.54 sec, wall time      0.07 sec
diis-norm(errvec)=1.93602
diis-c [-3.74818012  1.        ]
  HOMO = -0.35687348924746  LUMO = 0.150861835606077
  mo_energy =
[-20.42465873 -20.41870899 -20.3417184  -20.29420383 -20.27611524
 -20.24639638  -1.35025291  -1.33895407  -1.30160552  -1.25702235
  -1.23465273  -1.21210706  -0.72757698  -0.71384578  -0.68156029
  -0.64203899  -0.62171264  -0.61685909  -0.57359911  -0.54764826
  -0.53422423  -0.50097831  -0.49402019  -0.47405412  -0.44588708
  -0.44233472  -0.42713908  -0.40867269  -0.37779372  -0.35687349
   0.15086184   0.17255979   0.24135038   0.25931265   0.27214562
   0.29221728   0.3258235    0.33462495   0.35255211   0.40619519
   0.42973914   0.48603909   0.93850295   0.98467182   0.99324173
   1.02023085   1.02642543   1.04862328   1.05763812   1.07750482
   1.09451087   1.1412501    1.15181669   1.15877481   1.16875603
   1.18586185   1.19878366   1.20999904   1.24004949   1.25808214
   1.2728714    1.28522136   1.31605242   1.31786693   1.3629357
   1.37852604   1.38989804   1.39863622   1.41547895   1.43218997
   1.47475435   1.49963174   1.59907851   1.62235168   1.67457593
   1.71843661   1.72670995   1.7771109    1.7826153    1.80634298
   1.81935655   1.82848228   1.8441842    1.85109327   1.86249919
   1.88050755   1.89444315   1.90069294   1.91790373   1.93161619
   1.96452509   1.99235422   2.01583026   2.03008024   2.03690406
   2.09174564   2.50084014   2.51530501   2.53529438   2.56199292
   2.57560264   2.60512823   2.61657788   2.62130045   2.65334526
   2.6806273    2.68280282   2.7462397    2.78117466   2.79997712
   2.81433259   2.86635457   2.87505795   2.93490393   2.94224081
   2.96928604   2.97216084   2.97463713   2.98707936   2.99919296
   3.02716537   3.03411457   3.04814865   3.0552608    3.05948314
   3.09341994   3.33895049   3.35751675   3.36100121   3.44110916
   3.44497095   3.47947802   3.70948043   3.73670216   3.76964159
   3.81612552   3.82872328   3.86145625   3.92385219   3.9417164
   3.97436094   4.03599207   4.05406767   4.08815286]
E1 = -1133.9182871739195  E_coul = 423.1091363400437
cycle= 2 E= -456.187139338998  delta_E= -0.169  |g|= 0.523  |ddm|= 0.855
    CPU time for cycle= 2      0.49 sec, wall time      0.06 sec
diis-norm(errvec)=0.872931
diis-c [-0.17020596  0.28911418  0.71088582]
  HOMO = -0.452985074579876  LUMO = 0.151738534708963
  mo_energy =
[-20.63575154 -20.62428273 -20.60784176 -20.57891852 -20.55933703
 -20.53369725  -1.4042688   -1.38325046  -1.38087823  -1.34158103
  -1.32130856  -1.2998998   -0.76582866  -0.74395648  -0.74154941
  -0.70587474  -0.68664266  -0.67780074  -0.63477548  -0.62386271
  -0.60585813  -0.57635676  -0.56060155  -0.55146862  -0.53744035
  -0.52390973  -0.51689363  -0.49836473  -0.4733493   -0.45298507
   0.15173853   0.1736683    0.23562228   0.25402598   0.26622029
   0.28321819   0.31650182   0.32877223   0.3451372    0.38715907
   0.40965114   0.45819396   0.9305753    0.96594062   0.98291186
   0.9954987    0.9991028    1.03312402   1.04149989   1.05568345
   1.07663497   1.09519961   1.10193316   1.1096363    1.12358432
   1.12599508   1.14244141   1.15631135   1.18300295   1.1882418
   1.22227158   1.23155547   1.24839463   1.26283157   1.30575491
   1.31736823   1.32740303   1.34015795   1.3663007    1.37884805
   1.41761796   1.45191511   1.55969098   1.57149908   1.62980267
   1.66649053   1.68235052   1.7536297    1.76523671   1.76926864
   1.77688959   1.79517666   1.80041313   1.81035211   1.82274446
   1.83436146   1.84957705   1.8556559    1.87519763   1.88490405
   1.91104861   1.93811975   1.95803203   1.97712222   1.978318
   2.03984463   2.51402238   2.5293997    2.53405343   2.54467212
   2.55682422   2.55913851   2.60925359   2.61598873   2.6214705
   2.63888097   2.65710346   2.69835734   2.759186     2.77095486
   2.78539128   2.83222257   2.8330154    2.92143581   2.93386066
   2.9454193    2.95348705   2.95659178   2.96980753   2.98415729
   3.0036725    3.00851564   3.02237555   3.03158769   3.03663082
   3.06013641   3.33230496   3.34009593   3.35830936   3.41622533
   3.41731527   3.44953777   3.69861333   3.71223356   3.75873964
   3.78593239   3.79591439   3.82443383   3.88889837   3.89915395
   3.94918541   3.98419545   3.99811824   4.03100717]
E1 = -1137.9913762004846  E_coul = 427.1347951926714
cycle= 3 E= -456.234569512936  delta_E= -0.0474  |g|= 0.0755  |ddm|= 0.339
    CPU time for cycle= 3      0.53 sec, wall time      0.07 sec
diis-norm(errvec)=0.140492
diis-c [-0.00905369 -0.022177    0.07076685  0.95141015]
  HOMO = -0.443498470150882  LUMO = 0.158624100220536
  mo_energy =
[-20.60473558 -20.58480639 -20.58310217 -20.54229373 -20.52345427
 -20.50078066  -1.38932788  -1.36821497  -1.36712023  -1.32690242
  -1.30809635  -1.28754777  -0.75192853  -0.73051125  -0.72826331
  -0.69305466  -0.67515454  -0.66732167  -0.62338001  -0.61234757
  -0.59625011  -0.56544513  -0.55112785  -0.53991169  -0.52526195
  -0.51485533  -0.50779506  -0.48647774  -0.46315873  -0.44349847
   0.1586241    0.18084976   0.24227647   0.26010076   0.27294382
   0.28989485   0.32332249   0.33611399   0.35245029   0.39386828
   0.41716955   0.46426136   0.94008911   0.97519562   0.99202476
   1.00500251   1.00738255   1.04041513   1.05415528   1.06684241
   1.08782067   1.10562104   1.11226506   1.11954718   1.13210759
   1.13565949   1.15069213   1.16568095   1.1920045    1.19604747
   1.23134391   1.24028484   1.25727546   1.27320187   1.31550247
   1.32629201   1.33781583   1.34987378   1.37683474   1.3885751
   1.42672429   1.4612973    1.57099662   1.58338765   1.64025547
   1.67687087   1.6933229    1.76627367   1.77658914   1.78157813
   1.78830529   1.80649948   1.81126712   1.82218412   1.83323471
   1.84461799   1.85934483   1.86651481   1.88642743   1.89580477
   1.9220467    1.94762013   1.96672642   1.98662872   1.98807607
   2.04840468   2.52679097   2.54131913   2.54665827   2.55649979
   2.56912033   2.57068888   2.62005866   2.62522957   2.63146112
   2.65016554   2.66670823   2.70840725   2.77281403   2.78440025
   2.79821507   2.84335401   2.84534752   2.93194406   2.94610897
   2.9565758    2.96552759   2.96710078   2.98110866   2.99531125
   3.01422328   3.0181818    3.03147487   3.04141065   3.04539513
   3.06753905   3.34440962   3.35140795   3.3697431    3.42526809
   3.42705172   3.45777613   3.71444041   3.72799958   3.77342644
   3.79983609   3.80956178   3.83697725   3.90267688   3.91306421
   3.96147799   3.99646503   4.00918813   4.0412984 ]
E1 = -1137.536311076757  E_coul = 426.6784444703027
cycle= 4 E= -456.235855111577  delta_E= -0.00129  |g|= 0.0124  |ddm|= 0.0469
    CPU time for cycle= 4      0.54 sec, wall time      0.07 sec
diis-norm(errvec)=0.0257143
diis-c [-1.72349814e-04 -9.54818452e-03 -4.04736603e-02 -1.71758709e-01
  1.22178055e+00]
  HOMO = -0.444595416588666  LUMO = 0.158668650761672
  mo_energy =
[-20.60512366 -20.58838247 -20.58183399 -20.54423441 -20.52650921
 -20.50132416  -1.38938486  -1.36903933  -1.36733171  -1.32768823
  -1.30954616  -1.28805821  -0.7513297   -0.73042914  -0.72789171
  -0.69321004  -0.67574324  -0.66711842  -0.62332082  -0.61329784
  -0.59591576  -0.56587275  -0.55181007  -0.54064912  -0.52735959
  -0.51535877  -0.508256    -0.48755443  -0.4651598   -0.44459542
   0.15866865   0.18092675   0.24220332   0.26022219   0.27323139
   0.29002491   0.32346843   0.33624262   0.3528074    0.39384811
   0.41744577   0.464678     0.94051958   0.97484651   0.9921775
   1.0047787    1.00719185   1.04039457   1.05445921   1.06652714
   1.08783427   1.10538738   1.11134246   1.11936829   1.13163667
   1.13545859   1.15025137   1.16537653   1.19155663   1.19553721
   1.23125008   1.24023115   1.25696361   1.27285637   1.314831
   1.32553371   1.33778633   1.3498507    1.37669171   1.38884113
   1.42672444   1.46112576   1.57090751   1.58242881   1.64017256
   1.67633571   1.69332767   1.76658565   1.77634426   1.78200913
   1.78802855   1.8067573    1.81102782   1.82205065   1.83302502
   1.84411884   1.85921172   1.86642684   1.88590023   1.89581001
   1.92184293   1.94701213   1.96641499   1.98645182   1.98801056
   2.04842373   2.52758482   2.54204911   2.54714622   2.55643704
   2.56849486   2.57138399   2.6200397    2.6251474    2.63091856
   2.65018777   2.66697943   2.708471     2.77350394   2.78414454
   2.79897629   2.84302266   2.84562612   2.93242384   2.94687537
   2.95637167   2.96614486   2.96788773   2.98097678   2.99572189
   3.01433723   3.01818007   3.03153143   3.04150325   3.04533677
   3.06765499   3.34523537   3.35132236   3.37073307   3.42513236
   3.42721389   3.4580905    3.71519425   3.72766045   3.77396818
   3.79977869   3.80958144   3.83721826   3.90271945   3.91364212
   3.96240002   3.9966876    4.00885306   4.04176554]
E1 = -1137.5495141967428  E_coul = 426.69157918624296
cycle= 5 E= -456.235923515623  delta_E= -6.84e-05  |g|= 0.00247  |ddm|= 0.0157
    CPU time for cycle= 5      0.52 sec, wall time      0.07 sec
diis-norm(errvec)=0.00443327
diis-c [-1.39127172e-05  1.38960827e-03  3.53284045e-03 -6.12584896e-03
 -1.04484608e-01  1.10568801e+00]
  HOMO = -0.445091125653361  LUMO = 0.158597228087587
  mo_energy =
[-20.60548296 -20.58699238 -20.58359929 -20.54386309 -20.52565983
 -20.50218251  -1.3895573   -1.36881939  -1.36782441  -1.32758848
  -1.3093812   -1.28845634  -0.75133477  -0.73024756  -0.72800356
  -0.69305925  -0.67552192  -0.66744549  -0.62345534  -0.61298003
  -0.59645318  -0.56591707  -0.55200933  -0.54089774  -0.5271164
  -0.51579721  -0.50881724  -0.48758044  -0.46515955  -0.44509113
   0.15859723   0.18090275   0.24214011   0.26018906   0.27321704
   0.28999848   0.3234155    0.33621369   0.35273268   0.3938013
   0.41744641   0.46439746   0.94027978   0.97489308   0.99205218
   1.00468694   1.00713918   1.04015113   1.05433234   1.06650041
   1.08771515   1.10536663   1.11139012   1.11921399   1.13170161
   1.1352678    1.14994022   1.16514422   1.19145407   1.1954299
   1.23098669   1.24002669   1.25670019   1.27293679   1.31487229
   1.32541425   1.33771395   1.34979413   1.37660792   1.38841826
   1.42646058   1.46098229   1.57082319   1.58263756   1.64001108
   1.67629951   1.69314353   1.76644821   1.77628391   1.7816623
   1.78798389   1.80657187   1.81101077   1.82202516   1.83287511
   1.84404115   1.85896913   1.86635692   1.88596749   1.89556038
   1.92185629   1.94697552   1.9661823    1.98616335   1.98793804
   2.04806738   2.52748766   2.54180779   2.54698269   2.55647137
   2.56867426   2.57095326   2.62000937   2.62502854   2.63089463
   2.65015849   2.66674268   2.70814846   2.7733356    2.78427026
   2.7986147    2.84301129   2.84559111   2.9320612    2.94675821
   2.95648353   2.96607886   2.967518     2.98102522   2.99554692
   3.01432574   3.01812177   3.03135971   3.0414715    3.04519172
   3.06736028   3.34512855   3.35142492   3.37040508   3.42508795
   3.42718612   3.45780434   3.71505523   3.72781449   3.77374495
   3.79974477   3.80949362   3.83692752   3.90281922   3.91355893
   3.96200352   3.99666071   4.00889008   4.0413863 ]
E1 = -1137.547971292397  E_coul = 426.69003390084197
cycle= 6 E= -456.235925896678  delta_E= -2.38e-06  |g|= 0.00109  |ddm|= 0.00327
    CPU time for cycle= 6      0.59 sec, wall time      0.07 sec
diis-norm(errvec)=0.00196473
diis-c [-1.11428973e-06  1.27873610e-03  4.84956312e-03  1.17766369e-02
 -1.36746735e-01  2.97274688e-01  8.21567112e-01]
  HOMO = -0.445021545442316  LUMO = 0.158606052789738
  mo_energy =
[-20.60521595 -20.58751031 -20.58272859 -20.54393029 -20.52601249
 -20.50177917  -1.3894742   -1.36889607  -1.36766846  -1.32761975
  -1.30951913  -1.28833712  -0.75122947  -0.73022269  -0.72788327
  -0.69304656  -0.67558498  -0.66730651  -0.62340549  -0.6131774
  -0.59625583  -0.5659394   -0.55203574  -0.54087924  -0.52734842
  -0.51571715  -0.50869569  -0.48765045  -0.46533992  -0.44502155
   0.15860605   0.18091047   0.2421376    0.26019564   0.27323285
   0.29000542   0.32342543   0.33622588   0.35276568   0.39378925
   0.41745458   0.46446281   0.94033591   0.97481863   0.99206154
   1.00466611   1.00711608   1.04017958   1.05437142   1.0664599
   1.08772244   1.10533036   1.11127631   1.11922682   1.13160374
   1.1352995    1.14997546   1.16517093   1.19143856   1.19539125
   1.23104201   1.24007144   1.25675052   1.27288041   1.31478892
   1.32537397   1.33773234   1.34980483   1.37663325   1.3885489
   1.426543     1.46100985   1.57086405   1.58253104   1.64005552
   1.67626353   1.69319778   1.76648375   1.77626287   1.78175998
   1.78795221   1.8066218    1.81097065   1.82200977   1.83287209
   1.84399577   1.8589984    1.86635682   1.88589285   1.895616
   1.92183389   1.94691025   1.96621479   1.98621973   1.98794757
   2.04815176   2.52751285   2.54186009   2.54702997   2.55642699
   2.56854222   2.57107773   2.61998917   2.62500856   2.63080855
   2.65013912   2.66677478   2.70821225   2.77338823   2.78417224
   2.79872162   2.84293185   2.84558294   2.93214264   2.94678931
   2.95639151   2.96610699   2.96761553   2.98096786   2.99557426
   3.01430082   3.01807531   3.03137262   3.04146043   3.04518894
   3.06738961   3.3451628    3.35134127   3.37049854   3.42502855
   3.42716651   3.45785043   3.71510928   3.7277252    3.77380767
   3.79971915   3.80948024   3.83699141   3.90274219   3.9135764
   3.96213169   3.99664641   4.00879292   4.04147251]
E1 = -1137.5457862193111  E_coul = 426.6878484981711
cycle= 7 E= -456.235926226263  delta_E= -3.3e-07  |g|= 0.000201  |ddm|= 0.00103
    CPU time for cycle= 7      0.58 sec, wall time      0.07 sec
diis-norm(errvec)=0.000371176
diis-c [-2.73826840e-08 -2.40768527e-04 -7.03547509e-04 -1.83469380e-03
  2.41925585e-02 -1.19730582e-01 -1.03800656e-01  1.20211769e+00]
  HOMO = -0.445036501973727  LUMO = 0.158605106141152
  mo_energy =
[-20.60520127 -20.58745334 -20.58279412 -20.54388896 -20.52595692
 -20.50176171  -1.38946345  -1.36889255  -1.36768616  -1.3276079
  -1.30951433  -1.28833842  -0.75120416  -0.73021104  -0.72787748
  -0.69302601  -0.67557091  -0.667306    -0.6234013   -0.61317199
  -0.59627165  -0.56593753  -0.55204833  -0.54088533  -0.52735096
  -0.51573447  -0.50871941  -0.48765579  -0.46535097  -0.4450365
   0.15860511   0.18091567   0.24213832   0.2601994    0.27324111
   0.2900107    0.32343068   0.33622906   0.35276843   0.39379018
   0.41746801   0.46446431   0.94034077   0.97482369   0.9920688
   1.0046669    1.00712176   1.04018186   1.05438514   1.06646398
   1.0877239    1.1053358    1.11127677   1.11922958   1.13160935
   1.135301     1.14996558   1.16516874   1.19144113   1.19539396
   1.23103794   1.24007546   1.25674975   1.27289088   1.31479532
   1.32537236   1.33774394   1.34981368   1.37664282   1.38854407
   1.4265451    1.46101207   1.57087376   1.58253679   1.64005887
   1.67626605   1.69320137   1.76649449   1.77626429   1.78175147
   1.78795249   1.80662794   1.81097402   1.82201751   1.83287029
   1.84399509   1.8589969    1.86636369   1.88589512   1.89560979
   1.92184244   1.94690901   1.96621128   1.98621645   1.98795568
   2.04814424   2.52753333   2.54186372   2.54704245   2.55642571
   2.56854816   2.57106875   2.61999682   2.62500475   2.63080962
   2.65014823   2.6667763    2.70821172   2.77340266   2.78417963
   2.79871825   2.84293467   2.84559664   2.93214243   2.94680726
   2.9563943    2.96612303   2.96761404   2.98096862   2.99557265
   3.01430677   3.01807624   3.03137098   3.04147008   3.04518734
   3.06739064   3.34518095   3.35134602   3.37049817   3.42502917
   3.42717592   3.45785325   3.71512951   3.72773051   3.77381069
   3.79972565   3.80948309   3.83699549   3.90275265   3.91358981
   3.96212957   3.99665904   4.00879852   4.04147517]
E1 = -1137.545403433751  E_coul = 426.6874656944759
cycle= 8 E= -456.235926244398  delta_E= -1.81e-08  |g|= 2.73e-05  |ddm|= 0.000314
    CPU time for cycle= 8      0.55 sec, wall time      0.07 sec
diis-norm(errvec)=4.95955e-05
diis-c [-1.71979607e-09 -3.16156662e-05 -1.14574141e-04 -3.23585899e-04
  3.40876352e-03 -7.36862278e-03 -1.94125249e-02 -6.52441320e-03
  1.03036657e+00]
  HOMO = -0.445040964200233  LUMO = 0.158606014301126
  mo_energy =
[-20.60519424 -20.58743885 -20.58277808 -20.54388553 -20.52595843
 -20.50177549  -1.38946098  -1.36888641  -1.36768041  -1.32760603
  -1.30951446  -1.28834304  -0.75120111  -0.73020482  -0.7278714
  -0.69302265  -0.67556939  -0.66730676  -0.62339848  -0.613168
  -0.59626885  -0.56593588  -0.55204759  -0.54088322  -0.52734535
  -0.51573478  -0.50871956  -0.48765533  -0.4653522   -0.44504096
   0.15860601   0.18091649   0.24213934   0.26019971   0.27324165
   0.29001166   0.32343092   0.33622992   0.35277012   0.39379143
   0.41746954   0.4644633    0.9403418    0.97482581   0.99206936
   1.00466853   1.00712295   1.040181     1.05438588   1.0664652
   1.08772601   1.10533665   1.11127808   1.11922982   1.13161114
   1.13530134   1.14996604   1.16516821   1.19144171   1.19539412
   1.23103965   1.24007568   1.25674957   1.27289355   1.31479654
   1.32537219   1.33774576   1.34981524   1.37664427   1.38854526
   1.42654414   1.46101387   1.57087552   1.58254026   1.64006015
   1.67626655   1.69320228   1.76649583   1.77626614   1.78175512
   1.78795482   1.8066293    1.81097644   1.82201891   1.83287116
   1.84399496   1.85899554   1.86636487   1.88589815   1.89561228
   1.92184374   1.94690912   1.96621047   1.98621481   1.9879568
   2.04814424   2.52753376   2.54186518   2.54704418   2.55642867
   2.56855216   2.57107199   2.61999826   2.62500565   2.63080938
   2.65014955   2.6667759    2.70820953   2.77340447   2.78418348
   2.79872152   2.84293506   2.84559809   2.93214132   2.94680734
   2.95639762   2.96612494   2.96761554   2.98097129   2.99557464
   3.01430815   3.018076     3.03137025   3.04147141   3.0451869
   3.06738877   3.34518226   3.35134932   3.37050079   3.42502977
   3.42717752   3.45785132   3.71513059   3.72773468   3.77381332
   3.799727     3.80948445   3.83699305   3.90275644   3.91359232
   3.96213274   3.99666068   4.00879885   4.04147268]
E1 = -1137.5453595040194  E_coul = 426.68742176441515
cycle= 9 E= -456.235926244727  delta_E= -3.29e-10  |g|= 1.11e-05  |ddm|= 3.97e-05
    CPU time for cycle= 9      0.57 sec, wall time      0.07 sec
  HOMO = -0.445037364145569  LUMO = 0.158605556233651
  mo_energy =
[-20.60519699 -20.5874457  -20.58278567 -20.54388572 -20.5259564
 -20.50176596  -1.38946165  -1.3688885   -1.36768279  -1.32760598
  -1.30951369  -1.28833977  -0.75120172  -0.73020663  -0.72787335
  -0.69302257  -0.67556889  -0.66730542  -0.62339913  -0.6131702
  -0.59626966  -0.56593612  -0.55204785  -0.54088362  -0.52734691
  -0.51573399  -0.50871919  -0.48765535  -0.46535122  -0.44503736
   0.15860556   0.18091612   0.24213894   0.26019957   0.2732414
   0.2900114    0.32343088   0.3362296    0.35276959   0.39379128
   0.41746956   0.4644638    0.94034121   0.97482507   0.99206908
   1.00466793   1.00712274   1.04018145   1.05438534   1.06646449
   1.08772485   1.10533639   1.11127733   1.11922993   1.13161019
   1.13530155   1.14996594   1.16516873   1.19144171   1.19539435
   1.23103911   1.24007624   1.25675033   1.27289272   1.31479609
   1.32537254   1.33774562   1.34981507   1.37664389   1.38854494
   1.4265451    1.46101333   1.57087514   1.58253922   1.64005988
   1.67626675   1.69320225   1.76649546   1.7762657    1.7817536
   1.78795419   1.8066291    1.81097574   1.82201878   1.83287106
   1.84399538   1.85899653   1.86636476   1.88589715   1.89561148
   1.92184371   1.94690939   1.96621138   1.98621606   1.98795674
   2.0481446    2.52753356   2.54186456   2.54704371   2.55642809
   2.56855078   2.57107058   2.61999821   2.62500559   2.63080973
   2.65014946   2.66677609   2.70821108   2.77340392   2.78418219
   2.79872022   2.84293525   2.84559797   2.93214221   2.94680706
   2.95639661   2.96612469   2.96761499   2.98097059   2.99557398
   3.01430797   3.01807603   3.03137105   3.04147148   3.04518743
   3.06738968   3.34518195   3.35134837   3.3704997    3.42502991
   3.42717749   3.45785242   3.71513009   3.72773335   3.77381232
   3.79972683   3.80948413   3.83699445   3.90275509   3.91359154
   3.96213155   3.99666066   4.00879922   4.04147435]
E1 = -1137.5453801489525  E_coul = 426.6874424093027
Extra cycle  E= -456.235926244772  delta_E= -4.55e-11  |g|= 6.02e-06  |ddm|= 1.5e-05
    CPU time for scf_cycle      8.79 sec, wall time      1.11 sec
    CPU time for SCF      8.90 sec, wall time      1.12 sec
converged SCF energy = -456.235926244772
