#INFO: **** input file is /home/liwei01/wsr/dftpart/test_2body/w32/gfea_c8.py ****
from dftpart import gfea3
from pyscf import lib

par = 8
with lib.with_omp_threads(par):
    fr0 = gfea3.GFEA()
    fr0.inputstyle = 'frg'
    fr0.method = ['hf', '6-31gss','charge']
    fr0.gjfname = 'w32'
    fr0.output = 'w32'
    fr0.verbose = 9
    fr0.showinter = True
    #fr0.do_deriv = True
    fr0.kernel()

#INFO: ******************** input file end ********************


System: uname_result(system='Linux', node='master', release='3.10.0-693.el7.x86_64', version='#1 SMP Tue Aug 22 21:09:27 UTC 2017', machine='x86_64', processor='x86_64')  Threads 8
Python 3.7.6 (default, Jan  8 2020, 19:59:22) 
[GCC 7.3.0]
numpy 1.18.1  scipy 1.4.1
Date: Tue Jun 16 20:57:27 2020
PySCF version 1.6.1
PySCF path  /home/liwei01/zcheng/pyscf/pyscf
GIT HEAD      ref: refs/heads/master
GIT master branch  3adc7fd25839fe674469a52b764c3661e32d7318

[CONFIG] DEBUG = False
[CONFIG] MAX_MEMORY = 4000
[CONFIG] TMPDIR = .
[CONFIG] UNIT = angstrom
[CONFIG] VERBOSE = 3
[CONFIG] conf_file = None
[INPUT] verbose = 9
[INPUT] max_memory = 4000 
[INPUT] num. atoms = 18
[INPUT] num. electrons = 60
[INPUT] charge = 0
[INPUT] spin (= nelec alpha-beta = 2S) = 0
[INPUT] symmetry False subgroup None
[INPUT] Mole.unit = angstrom
[INPUT]  1 O      7.250284000000  -9.859627000000 -13.103456000000 AA   13.701051085316 -18.631994720367 -24.761943125289 Bohr
[INPUT]  2 O     10.084912000000  -9.602997000000 -13.694410000000 AA   19.057721670340 -18.147034305020 -25.878684337505 Bohr
[INPUT]  3 O      8.451586000000 -10.635579000000 -15.685931000000 AA   15.971182858208 -20.098331486176 -29.642113598825 Bohr
[INPUT]  4 O      8.491932000000 -14.159618000000 -15.711024000000 AA   16.047425748430 -26.757800048462 -29.689532496469 Bohr
[INPUT]  5 O     10.675204000000 -11.925165000000 -15.819193000000 AA   20.173211883861 -22.535295840249 -29.893942281637 Bohr
[INPUT]  6 O      5.339755000000 -11.212242000000 -15.474518000000 AA   10.090674522277 -21.188066622346 -29.242600929652 Bohr
[INPUT]  7 H      7.120660000000 -10.221473000000 -13.980096000000 AA   13.456097226145 -19.315784559636 -26.418552635128 Bohr
[INPUT]  8 H      7.341484000000 -10.626744000000 -12.538261000000 AA   13.873394107876 -20.081635755865 -23.693879368315 Bohr
[INPUT]  9 H      9.837963000000  -9.877914000000 -14.577398000000 AA   18.591055693604 -18.666552142007 -27.547289828782 Bohr
[INPUT] 10 H      9.267108000000  -9.628370000000 -13.197635000000 AA   17.512296086766 -18.194982325979 -24.939915641974 Bohr
[INPUT] 11 H      8.125035000000 -10.406856000000 -16.556152000000 AA   15.354090902505 -19.666107657787 -31.286592956670 Bohr
[INPUT] 12 H      9.262189000000 -11.116608000000 -15.852568000000 AA   17.503000523959 -21.007344554149 -29.957011891044 Bohr
[INPUT] 13 H      8.843942000000 -15.043720000000 -15.814399000000 AA   16.712628241538 -28.428510694642 -29.884882934596 Bohr
[INPUT] 14 H      8.918348000000 -13.822113000000 -14.923311000000 AA   16.853235203563 -26.120008032790 -28.200970661709 Bohr
[INPUT] 15 H     11.145373000000 -12.259719000000 -15.055487000000 AA   21.061702526122 -23.167511274127 -28.450747101950 Bohr
[INPUT] 16 H     10.769363000000 -12.612255000000 -16.478945000000 AA   20.351146606024 -23.833707763176 -31.140692871771 Bohr
[INPUT] 17 H      5.880078000000 -10.458674000000 -15.712045000000 AA   11.111737011080 -19.764029486109 -29.691461906842 Bohr
[INPUT] 18 H      5.489557000000 -11.845700000000 -16.176318000000 AA   10.373759275189 -22.385128753760 -30.568810723872 Bohr
[INPUT] ---------------- BASIS SET ---------------- 
[INPUT] l, kappa, [nprim/nctr], expnt,             c_1 c_2 ...
[INPUT] H
[INPUT] 0    0    [3    /1   ]  18.731137         0.0334946
                                2.8253937         0.23472695
                                0.6401217         0.81375733
[INPUT] 0    0    [1    /1   ]  0.1612778            1
[INPUT] 1    0    [1    /1   ]  1.1                  1
[INPUT] O
[INPUT] 0    0    [6    /1   ]  5484.6717         0.0018311
                                825.23495         0.0139501
                                188.04696         0.0684451
                                52.9645           0.2327143
                                16.89757          0.470193
                                5.7996353         0.3585209
[INPUT] 0    0    [3    /1   ]  15.539616         -0.1107775
                                3.5999336         -0.1480263
                                1.0137618         1.130767
[INPUT] 0    0    [1    /1   ]  0.2700058            1
[INPUT] 1    0    [3    /1   ]  15.539616         0.0708743
                                3.5999336         0.3397528
                                1.0137618         0.7271586
[INPUT] 1    0    [1    /1   ]  0.2700058            1
[INPUT] 2    0    [1    /1   ]  0.8                  1

nuclear repulsion = 276.234119499433
number of shells = 72
number of NR pGTOs = 246
number of NR cGTOs = 144
basis = 6-31gss
ecp = {}
bas 0, expnt(s) = [5484.6717     825.23495    188.04696     52.9645      16.89757
    5.7996353]
bas 1, expnt(s) = [15.539616   3.5999336  1.0137618]
bas 2, expnt(s) = [0.2700058]
bas 3, expnt(s) = [15.539616   3.5999336  1.0137618]
bas 4, expnt(s) = [0.2700058]
bas 5, expnt(s) = [0.8]
bas 6, expnt(s) = [5484.6717     825.23495    188.04696     52.9645      16.89757
    5.7996353]
bas 7, expnt(s) = [15.539616   3.5999336  1.0137618]
bas 8, expnt(s) = [0.2700058]
bas 9, expnt(s) = [15.539616   3.5999336  1.0137618]
bas 10, expnt(s) = [0.2700058]
bas 11, expnt(s) = [0.8]
bas 12, expnt(s) = [5484.6717     825.23495    188.04696     52.9645      16.89757
    5.7996353]
bas 13, expnt(s) = [15.539616   3.5999336  1.0137618]
bas 14, expnt(s) = [0.2700058]
bas 15, expnt(s) = [15.539616   3.5999336  1.0137618]
bas 16, expnt(s) = [0.2700058]
bas 17, expnt(s) = [0.8]
bas 18, expnt(s) = [5484.6717     825.23495    188.04696     52.9645      16.89757
    5.7996353]
bas 19, expnt(s) = [15.539616   3.5999336  1.0137618]
bas 20, expnt(s) = [0.2700058]
bas 21, expnt(s) = [15.539616   3.5999336  1.0137618]
bas 22, expnt(s) = [0.2700058]
bas 23, expnt(s) = [0.8]
bas 24, expnt(s) = [5484.6717     825.23495    188.04696     52.9645      16.89757
    5.7996353]
bas 25, expnt(s) = [15.539616   3.5999336  1.0137618]
bas 26, expnt(s) = [0.2700058]
bas 27, expnt(s) = [15.539616   3.5999336  1.0137618]
bas 28, expnt(s) = [0.2700058]
bas 29, expnt(s) = [0.8]
bas 30, expnt(s) = [5484.6717     825.23495    188.04696     52.9645      16.89757
    5.7996353]
bas 31, expnt(s) = [15.539616   3.5999336  1.0137618]
bas 32, expnt(s) = [0.2700058]
bas 33, expnt(s) = [15.539616   3.5999336  1.0137618]
bas 34, expnt(s) = [0.2700058]
bas 35, expnt(s) = [0.8]
bas 36, expnt(s) = [18.731137   2.8253937  0.6401217]
bas 37, expnt(s) = [0.1612778]
bas 38, expnt(s) = [1.1]
bas 39, expnt(s) = [18.731137   2.8253937  0.6401217]
bas 40, expnt(s) = [0.1612778]
bas 41, expnt(s) = [1.1]
bas 42, expnt(s) = [18.731137   2.8253937  0.6401217]
bas 43, expnt(s) = [0.1612778]
bas 44, expnt(s) = [1.1]
bas 45, expnt(s) = [18.731137   2.8253937  0.6401217]
bas 46, expnt(s) = [0.1612778]
bas 47, expnt(s) = [1.1]
bas 48, expnt(s) = [18.731137   2.8253937  0.6401217]
bas 49, expnt(s) = [0.1612778]
bas 50, expnt(s) = [1.1]
bas 51, expnt(s) = [18.731137   2.8253937  0.6401217]
bas 52, expnt(s) = [0.1612778]
bas 53, expnt(s) = [1.1]
bas 54, expnt(s) = [18.731137   2.8253937  0.6401217]
bas 55, expnt(s) = [0.1612778]
bas 56, expnt(s) = [1.1]
bas 57, expnt(s) = [18.731137   2.8253937  0.6401217]
bas 58, expnt(s) = [0.1612778]
bas 59, expnt(s) = [1.1]
bas 60, expnt(s) = [18.731137   2.8253937  0.6401217]
bas 61, expnt(s) = [0.1612778]
bas 62, expnt(s) = [1.1]
bas 63, expnt(s) = [18.731137   2.8253937  0.6401217]
bas 64, expnt(s) = [0.1612778]
bas 65, expnt(s) = [1.1]
bas 66, expnt(s) = [18.731137   2.8253937  0.6401217]
bas 67, expnt(s) = [0.1612778]
bas 68, expnt(s) = [1.1]
bas 69, expnt(s) = [18.731137   2.8253937  0.6401217]
bas 70, expnt(s) = [0.1612778]
bas 71, expnt(s) = [1.1]
CPU time:       655.95
arg.atm = [[ 8 20  1 23  0  0]
 [ 8 24  1 27  0  0]
 [ 8 28  1 31  0  0]
 [ 8 32  1 35  0  0]
 [ 8 36  1 39  0  0]
 [ 8 40  1 43  0  0]
 [ 1 44  1 47  0  0]
 [ 1 48  1 51  0  0]
 [ 1 52  1 55  0  0]
 [ 1 56  1 59  0  0]
 [ 1 60  1 63  0  0]
 [ 1 64  1 67  0  0]
 [ 1 68  1 71  0  0]
 [ 1 72  1 75  0  0]
 [ 1 76  1 79  0  0]
 [ 1 80  1 83  0  0]
 [ 1 84  1 87  0  0]
 [ 1 88  1 91  0  0]]
arg.bas = [[  0   0   6   1   0 102 108   0]
 [  0   0   3   1   0 114 117   0]
 [  0   0   1   1   0 120 121   0]
 [  0   1   3   1   0 122 125   0]
 [  0   1   1   1   0 128 129   0]
 [  0   2   1   1   0 130 131   0]
 [  1   0   6   1   0 102 108   0]
 [  1   0   3   1   0 114 117   0]
 [  1   0   1   1   0 120 121   0]
 [  1   1   3   1   0 122 125   0]
 [  1   1   1   1   0 128 129   0]
 [  1   2   1   1   0 130 131   0]
 [  2   0   6   1   0 102 108   0]
 [  2   0   3   1   0 114 117   0]
 [  2   0   1   1   0 120 121   0]
 [  2   1   3   1   0 122 125   0]
 [  2   1   1   1   0 128 129   0]
 [  2   2   1   1   0 130 131   0]
 [  3   0   6   1   0 102 108   0]
 [  3   0   3   1   0 114 117   0]
 [  3   0   1   1   0 120 121   0]
 [  3   1   3   1   0 122 125   0]
 [  3   1   1   1   0 128 129   0]
 [  3   2   1   1   0 130 131   0]
 [  4   0   6   1   0 102 108   0]
 [  4   0   3   1   0 114 117   0]
 [  4   0   1   1   0 120 121   0]
 [  4   1   3   1   0 122 125   0]
 [  4   1   1   1   0 128 129   0]
 [  4   2   1   1   0 130 131   0]
 [  5   0   6   1   0 102 108   0]
 [  5   0   3   1   0 114 117   0]
 [  5   0   1   1   0 120 121   0]
 [  5   1   3   1   0 122 125   0]
 [  5   1   1   1   0 128 129   0]
 [  5   2   1   1   0 130 131   0]
 [  6   0   3   1   0  92  95   0]
 [  6   0   1   1   0  98  99   0]
 [  6   1   1   1   0 100 101   0]
 [  7   0   3   1   0  92  95   0]
 [  7   0   1   1   0  98  99   0]
 [  7   1   1   1   0 100 101   0]
 [  8   0   3   1   0  92  95   0]
 [  8   0   1   1   0  98  99   0]
 [  8   1   1   1   0 100 101   0]
 [  9   0   3   1   0  92  95   0]
 [  9   0   1   1   0  98  99   0]
 [  9   1   1   1   0 100 101   0]
 [ 10   0   3   1   0  92  95   0]
 [ 10   0   1   1   0  98  99   0]
 [ 10   1   1   1   0 100 101   0]
 [ 11   0   3   1   0  92  95   0]
 [ 11   0   1   1   0  98  99   0]
 [ 11   1   1   1   0 100 101   0]
 [ 12   0   3   1   0  92  95   0]
 [ 12   0   1   1   0  98  99   0]
 [ 12   1   1   1   0 100 101   0]
 [ 13   0   3   1   0  92  95   0]
 [ 13   0   1   1   0  98  99   0]
 [ 13   1   1   1   0 100 101   0]
 [ 14   0   3   1   0  92  95   0]
 [ 14   0   1   1   0  98  99   0]
 [ 14   1   1   1   0 100 101   0]
 [ 15   0   3   1   0  92  95   0]
 [ 15   0   1   1   0  98  99   0]
 [ 15   1   1   1   0 100 101   0]
 [ 16   0   3   1   0  92  95   0]
 [ 16   0   1   1   0  98  99   0]
 [ 16   1   1   1   0 100 101   0]
 [ 17   0   3   1   0  92  95   0]
 [ 17   0   1   1   0  98  99   0]
 [ 17   1   1   1   0 100 101   0]]
arg.env = [ 1.37036000e+02  0.00000000e+00  0.00000000e+00  0.00000000e+00
  0.00000000e+00  0.00000000e+00  0.00000000e+00  0.00000000e+00
  0.00000000e+00  0.00000000e+00  0.00000000e+00  0.00000000e+00
  0.00000000e+00  0.00000000e+00  0.00000000e+00  0.00000000e+00
  0.00000000e+00  0.00000000e+00  0.00000000e+00  0.00000000e+00
  1.37010511e+01 -1.86319947e+01 -2.47619431e+01  0.00000000e+00
  1.90577217e+01 -1.81470343e+01 -2.58786843e+01  0.00000000e+00
  1.59711829e+01 -2.00983315e+01 -2.96421136e+01  0.00000000e+00
  1.60474257e+01 -2.67578000e+01 -2.96895325e+01  0.00000000e+00
  2.01732119e+01 -2.25352958e+01 -2.98939423e+01  0.00000000e+00
  1.00906745e+01 -2.11880666e+01 -2.92426009e+01  0.00000000e+00
  1.34560972e+01 -1.93157846e+01 -2.64185526e+01  0.00000000e+00
  1.38733941e+01 -2.00816358e+01 -2.36938794e+01  0.00000000e+00
  1.85910557e+01 -1.86665521e+01 -2.75472898e+01  0.00000000e+00
  1.75122961e+01 -1.81949823e+01 -2.49399156e+01  0.00000000e+00
  1.53540909e+01 -1.96661077e+01 -3.12865930e+01  0.00000000e+00
  1.75030005e+01 -2.10073446e+01 -2.99570119e+01  0.00000000e+00
  1.67126282e+01 -2.84285107e+01 -2.98848829e+01  0.00000000e+00
  1.68532352e+01 -2.61200080e+01 -2.82009707e+01  0.00000000e+00
  2.10617025e+01 -2.31675113e+01 -2.84507471e+01  0.00000000e+00
  2.03511466e+01 -2.38337078e+01 -3.11406929e+01  0.00000000e+00
  1.11117370e+01 -1.97640295e+01 -2.96914619e+01  0.00000000e+00
  1.03737593e+01 -2.23851288e+01 -3.05688107e+01  0.00000000e+00
  1.87311370e+01  2.82539370e+00  6.40121700e-01  7.61926220e-01
  1.29237100e+00  1.47131900e+00  1.61277800e-01  6.42977783e-01
  1.10000000e+00  3.28643653e+00  5.48467170e+03  8.25234950e+02
  1.88046960e+02  5.29645000e+01  1.68975700e+01  5.79963530e+00
  2.94842455e+00  5.42657124e+00  8.78126489e+00  1.15432129e+01
  9.90055015e+00  3.38516599e+00  1.55396160e+01  3.59993360e+00
  1.01376180e+00 -2.19051792e+00 -9.77405528e-01  2.88629094e+00
  2.70005800e-01  9.46334873e-01  1.55396160e+01  3.59993360e+00
  1.01376180e+00  6.37930734e+00  4.91490975e+00  2.15791055e+00
  2.70005800e-01  5.67807022e-01  8.00000000e-01  1.76578110e+00]
ecpbas  = []


******** <class 'pyscf.qmmm.itrf.mm_charge.<locals>.QMMM'> ********
method = QMMM-RHF
initial guess = minao
damping factor = 0
level shift factor = 0
DIIS = <class 'pyscf.scf.diis.CDIIS'>
DIIS start cycle = 1
DIIS space = 8
SCF tol = 1e-09
SCF gradient tol = None
max. SCF cycles = 50
direct_scf = True
direct_scf_tol = 1e-13
chkfile to save SCF result = /home/liwei01/wsr/dftpart/test_2body/w32/tmpc059hkgb
max_memory 4000 MB (current use 306 MB)
** Add background charges for <class 'pyscf.scf.hf.RHF'> **
Charge      Location
-1.056075    [ 15.8591958  -22.32322322 -21.16584533]
0.523264    [ 15.44903263 -23.69303655 -20.05800473]
0.517699    [ 17.48403712 -21.75849557 -20.60647128]
-1.035697    [ 20.23144001 -20.50137794 -19.07019386]
0.520608    [ 21.7723038  -21.39222885 -18.74761761]
0.515624    [ 19.97024207 -19.49608333 -17.58928542]
-1.009926    [ 16.42785407 -26.58707085 -18.04142885]
0.499922    [ 15.53371882 -25.95112132 -16.60336995]
0.507893    [ 16.16245338 -28.37548309 -17.98600129]
-1.050024    [ 10.52651529 -24.11298283 -20.2839555 ]
0.521386    [  8.7734466  -24.2410798  -19.85703047]
0.506414    [ 11.30765248 -23.44237383 -18.79666545]
-1.032359    [ 13.1641969  -17.47579981 -19.41562257]
0.514165    [ 13.18112696 -18.60438393 -20.82910748]
0.518479    [ 14.52136419 -16.32434621 -19.73837456]
-1.052762    [ 13.11969196 -22.35429031 -15.81898054]
0.521035    [ 14.16458201 -22.84877684 -14.42771692]
0.525545    [ 13.80909996 -20.77345693 -16.36451423]
-1.002885    [ 18.40539199 -27.51482622 -24.72543362]
0.521542    [ 17.83274639 -26.30664305 -23.50711585]
0.49877    [ 20.13069872 -27.06649815 -25.03241585]
-0.997115    [ 17.90283445 -15.11249509 -20.63210731]
0.530073    [ 18.89257472 -16.62132612 -20.50652934]
0.49195    [ 18.18557149 -14.25298717 -19.06582671]
-0.992133    [  7.63287216 -21.21078113 -24.19682809]
0.480184    [  8.55071592 -22.76668147 -24.10379498]
0.504586    [  8.37549106 -20.32880248 -25.59058803]
-1.012936    [ 10.55365553 -29.46492154 -21.67488842]
0.504954    [  8.84108934 -29.00412127 -22.03084479]
0.525721    [ 11.34418277 -27.91794449 -21.17105153]
-0.985176    [ 16.63195772 -23.48150439 -12.27810621]
0.500614    [ 17.11266814 -22.20236011 -11.09293235]
0.508291    [ 16.89319913 -25.03868407 -11.39557387]
-0.979947    [ 19.94097588 -17.12125506 -14.67509908]
0.500341    [ 18.95312155 -17.86288753 -13.35371942]
0.493696    [ 19.00620207 -15.6543646  -15.17143564]
-1.011239    [ 14.66303696 -31.18986921 -25.03135193]
0.492592    [ 13.80996545 -30.6346091  -23.53606456]
0.497341    [ 16.13314373 -30.14067248 -25.13086491]
-0.999332    [ 25.43111026 -22.24828235 -18.47023794]
0.512801    [ 26.28398524 -20.77981964 -19.09325419]
0.507583    [ 26.7410892  -23.47726762 -18.25698991]
-1.016163    [ 10.56617686 -29.35403808 -16.44102735]
0.483053    [ 11.92280935 -30.36927076 -15.8079521 ]
0.523726    [ 10.34862781 -29.90290525 -18.15080431]
-0.977833    [ 24.5589393  -27.80514674 -21.18389789]
0.50587    [ 23.21796885 -28.65180829 -20.31390388]
0.463809    [ 25.76766104 -27.42438582 -19.8931866 ]
-0.989717    [  8.77070649 -15.37911655 -23.94499373]
0.487556    [  8.68859978 -13.74216775 -23.17975481]
0.496916    [ 10.53805395 -15.75730555 -24.01835668]
-0.992057    [ 16.93410036 -32.15697813 -17.52810554]
0.50918    [ 16.39069828 -32.53931319 -15.84570882]
0.510293    [ 15.6895513  -32.92540692 -18.59231236]
-0.998393    [ 24.35861321 -18.31258187 -25.98586582]
0.466984    [ 25.48944989 -18.60606579 -24.60492389]
0.51604    [ 22.70911474 -18.4111103  -25.25008395]
-1.010464    [  9.27281806 -14.9477601  -17.25327322]
0.476424    [  7.6789399  -15.16789619 -18.07972415]
0.517552    [ 10.24747455 -16.38576609 -17.75736144]
-0.991473    [  5.5836248  -24.00414405 -18.66237963]
0.501887    [  5.79022289 -25.52045085 -17.69798247]
0.510487    [  5.17491673 -22.73885336 -17.43603619]
-1.029267    [  7.95719829 -25.19119252 -14.2761212 ]
0.497876    [  9.38018663 -24.0850659  -14.1227926 ]
0.519667    [  8.66153702 -26.76190075 -14.83174226]
-1.001943    [ 16.13613705 -11.83176802 -24.46883904]
0.509813    [ 16.78082846 -12.94299123 -23.1954641 ]
0.477312    [ 17.5304658  -11.57071369 -25.59117007]
-1.019724    [ 21.67798379 -29.0173418  -14.20699124]
0.475311    [ 20.53074618 -29.01816194 -15.60548117]
0.514632    [ 22.50198564 -27.40961194 -14.29731259]
-0.9959    [ 24.21450458 -24.60133719 -13.9203349 ]
0.499354    [ 23.58737251 -23.46499007 -12.66043371]
0.511038    [ 23.91476757 -23.75039163 -15.48812918]
-1.001922    [ 21.40011279 -32.14724982 -20.33868764]
0.487648    [ 22.14106118 -33.75675602 -19.97480576]
0.509505    [ 19.73399418 -32.24696878 -19.64152988]
Set gradient conv threshold to 3.16228e-05
Nelec from initial guess = 59.93630217822409
cond(S) = 218.429342917433
E1 = -1170.3584807748873  E_coul = 439.81548573014675
init E= -455.342874623898
    CPU time for initialize scf      3.91 sec, wall time      0.50 sec
  HOMO = -0.427027515737001  LUMO = 0.0728594262085409
  mo_energy =
[-20.82582851 -20.80229085 -20.79653047 -20.7820628  -20.78141506
 -20.75693288  -1.68162445  -1.63277536  -1.61988205  -1.60334601
  -1.58026001  -1.57038619  -0.79923653  -0.7719525   -0.74930581
  -0.73652179  -0.73455968  -0.70651605  -0.63897955  -0.60639873
  -0.58800127  -0.58553437  -0.54443379  -0.53570067  -0.49786221
  -0.47943977  -0.47551215  -0.46384165  -0.45324749  -0.42702752
   0.07285943   0.12428682   0.16388456   0.18943762   0.20829189
   0.22245253   0.24085606   0.26520769   0.29648518   0.30332576
   0.32629352   0.3967666    0.86194915   0.90140912   0.90993199
   0.94197651   0.95485696   0.97366167   0.97912146   0.9981259
   1.0054323    1.01203068   1.0180056    1.03017356   1.04261
   1.06378156   1.07751383   1.08799662   1.1020527    1.1295726
   1.14995938   1.17232853   1.17772307   1.18723827   1.22813195
   1.23590055   1.24560876   1.26927339   1.29502073   1.31183262
   1.33172552   1.40523414   1.51868961   1.52565197   1.55734574
   1.57099178   1.61413396   1.69196307   1.70365154   1.71093635
   1.73405385   1.73984167   1.74659673   1.75299995   1.76844615
   1.76985379   1.77851561   1.79469235   1.82036499   1.827873
   1.83418035   1.84480065   1.86494551   1.92543982   1.92938364
   1.96726261   2.47160708   2.4975891    2.50350751   2.51872745
   2.53524212   2.53842745   2.5659614    2.57813004   2.59534072
   2.61159909   2.63244873   2.67764679   2.72797601   2.74778455
   2.75136702   2.7553032    2.78250904   2.87877589   2.90590984
   2.91615088   2.91931875   2.93182547   2.93964481   2.94857984
   2.96026115   2.96563543   2.99291032   2.99577087   3.0066366
   3.08616875   3.32833543   3.33502715   3.34273846   3.34735723
   3.37201115   3.41126963   3.70243534   3.71287877   3.72333465
   3.74653592   3.77069456   3.79318218   3.85208567   3.85618401
   3.8948387    3.92362745   3.9409065    4.05793404]
E1 = -1185.1098488257467  E_coul = 453.9117648050785
cycle= 1 E= -455.997963599825  delta_E= -0.655  |g|= 1.04  |ddm|=  2.9
    CPU time for cycle= 1      0.54 sec, wall time      0.07 sec
diis-norm(errvec)=1.86634
diis-c [-3.48321394  1.        ]
  HOMO = -0.355887559332455  LUMO = 0.175990696612982
  mo_energy =
[-20.43237499 -20.33448103 -20.30921894 -20.30651029 -20.29899654
 -20.23536166  -1.34644277  -1.27788478  -1.25972126  -1.25239601
  -1.24977147  -1.20214914  -0.71867348  -0.68714316  -0.64659425
  -0.63461524  -0.62742718  -0.58801917  -0.56541504  -0.5062759
  -0.4841343   -0.48022944  -0.47365047  -0.47026908  -0.44771891
  -0.41074796  -0.39938822  -0.39541032  -0.38284589  -0.35588756
   0.1759907    0.21318279   0.26511232   0.27558059   0.29306946
   0.30277095   0.3451171    0.35984166   0.40221899   0.44739428
   0.48316486   0.5278735    0.9597925    0.98327629   1.03651835
   1.04253425   1.05469661   1.0660652    1.08912312   1.10643449
   1.12253209   1.14266683   1.14724255   1.17409942   1.1931821
   1.20107824   1.22559253   1.25781076   1.27962937   1.28954328
   1.31306806   1.32100708   1.34937873   1.35603188   1.36545348
   1.38425472   1.39425998   1.42448412   1.42738955   1.4726344
   1.48596522   1.5752421    1.64685632   1.67205291   1.67837384
   1.74039839   1.77581198   1.78832678   1.8241458    1.83578133
   1.85585662   1.859073     1.88074685   1.88864496   1.89966886
   1.90390575   1.92235714   1.9376468    1.97804842   1.98315677
   1.98810979   1.9973121    2.02173724   2.05624846   2.11176116
   2.14122432   2.50214327   2.57056658   2.57697117   2.58635823
   2.60283648   2.62448535   2.64778294   2.65532824   2.66774642
   2.70025234   2.7375545    2.76918418   2.79777329   2.86636466
   2.87206206   2.88946469   2.91029932   2.91594214   2.94661114
   2.98766207   3.00740437   3.01621598   3.01981237   3.02613596
   3.04783814   3.06982379   3.07588606   3.08604941   3.10128832
   3.19218004   3.3526168    3.40602132   3.41559858   3.4309612
   3.43934141   3.53943353   3.73094676   3.78685352   3.8006745
   3.82857743   3.86238333   3.8946725    3.92895081   3.98956738
   3.99857896   4.08409061   4.11049497   4.18928971]
E1 = -1176.154310909085  E_coul = 444.79423192926674
cycle= 2 E= -456.159958558976  delta_E= -0.162  |g|= 0.501  |ddm|= 0.838
    CPU time for cycle= 2      0.61 sec, wall time      0.08 sec
diis-norm(errvec)=0.841208
diis-c [-0.17357662  0.286581    0.713419  ]
  HOMO = -0.456138762575703  LUMO = 0.174322499266011
  mo_energy =
[-20.61822767 -20.57870376 -20.5666511  -20.56635482 -20.55878286
 -20.53091167  -1.39374603  -1.34447296  -1.33799238  -1.32620498
  -1.32601386  -1.29755011  -0.75163108  -0.73643657  -0.70520348
  -0.68896404  -0.68787369  -0.66301118  -0.62174843  -0.57467096
  -0.56765924  -0.55976421  -0.55328219  -0.54091258  -0.53112846
  -0.49335213  -0.48326222  -0.47834214  -0.47082156  -0.45613876
   0.1743225    0.20781358   0.26257095   0.27509162   0.28707181
   0.28969728   0.33106654   0.35250756   0.37784439   0.42529643
   0.45154718   0.50163345   0.94093857   0.96180538   1.01542522
   1.02169648   1.04025403   1.04412689   1.06422659   1.07815836
   1.0927924    1.09713646   1.11637912   1.12763236   1.14587212
   1.15372438   1.16785987   1.19124808   1.21531705   1.23136493
   1.24792542   1.26636271   1.28973056   1.30379912   1.31732053
   1.33153946   1.33641896   1.36107423   1.38063323   1.41440052
   1.43257958   1.51808382   1.60319824   1.62231351   1.63159075
   1.68948534   1.73624601   1.76308308   1.78659789   1.79387892
   1.81369688   1.82232239   1.83739856   1.84507329   1.85437862
   1.85646018   1.87564229   1.89310113   1.93044166   1.93332475
   1.94163777   1.94590395   1.96448625   2.00640908   2.05923718
   2.07838454   2.50899233   2.55255883   2.58109642   2.59464388
   2.59820757   2.60143258   2.60939225   2.61247628   2.63344247
   2.67667849   2.68685113   2.74264696   2.7779957    2.8300204
   2.83536479   2.84760672   2.86873431   2.90493041   2.93969221
   2.97348536   2.98578088   2.99584289   3.00070498   3.01594934
   3.01980664   3.04165904   3.04710667   3.05282241   3.07284295
   3.15942488   3.34824385   3.38388561   3.39900893   3.40641543
   3.41588122   3.50451936   3.72445964   3.76046012   3.77545878
   3.79533506   3.83915259   3.8586632    3.89737824   3.93933021
   3.95318089   4.03619621   4.05208387   4.14170718]
E1 = -1180.1109948756714  E_coul = 448.70718295472716
cycle= 3 E= -456.203691500102  delta_E= -0.0437  |g|= 0.0742  |ddm|= 0.329
    CPU time for cycle= 3      0.57 sec, wall time      0.07 sec
diis-norm(errvec)=0.137719
diis-c [-0.00904964 -0.02795321  0.06091363  0.96703957]
  HOMO = -0.448728828470372  LUMO = 0.181303854753059
  mo_energy =
[-20.59051051 -20.53974139 -20.53918447 -20.52764601 -20.52531225
 -20.50249761  -1.38016377  -1.33230318  -1.32256251  -1.31351406
  -1.30895018  -1.28775422  -0.73853189  -0.72582216  -0.69202528
  -0.67594442  -0.67360413  -0.65455058  -0.61184386  -0.56573611
  -0.55617925  -0.55136917  -0.5403551   -0.53160752  -0.52233313
  -0.48259775  -0.47320611  -0.46442537  -0.46183511  -0.44872883
   0.18130385   0.21469351   0.27005574   0.28218268   0.2934865
   0.29581344   0.33773972   0.36041368   0.38298835   0.4315725
   0.45703774   0.50817823   0.94926589   0.97078937   1.02418492
   1.02907627   1.04909286   1.05456245   1.07301229   1.0866958
   1.10215024   1.10851369   1.12754837   1.13650432   1.1560054
   1.16344881   1.17588814   1.19900605   1.22247683   1.24097212
   1.25720117   1.27568761   1.2982975    1.31279693   1.32861814
   1.34205669   1.34623909   1.36977549   1.39007128   1.42298247
   1.4408554    1.52645573   1.61300816   1.6340108    1.64422838
   1.69913698   1.74489582   1.77538209   1.79661394   1.80397721
   1.82304415   1.83579745   1.84891909   1.85663044   1.86506221
   1.86567184   1.88486473   1.90296862   1.94123095   1.94361722
   1.95358805   1.95578598   1.97217425   2.01515172   2.06678035
   2.08637852   2.52047731   2.56448056   2.59268785   2.60641013
   2.61044619   2.6117659    2.62091842   2.62480251   2.64306391
   2.68415905   2.69423985   2.75380218   2.79101233   2.84315671
   2.84984238   2.85816686   2.87745889   2.91630833   2.95113894
   2.98393551   2.99651318   3.00688375   3.01303586   3.02707856
   3.02971933   3.04783817   3.0544822    3.06095895   3.08110913
   3.16893468   3.35995067   3.39510288   3.41131644   3.41528041
   3.42426004   3.51081161   3.73966471   3.77635102   3.79172137
   3.80741573   3.85248446   3.86961315   3.90959895   3.95300222
   3.96818945   4.04679786   4.06049437   4.15117718]
E1 = -1179.6590313682398  E_coul = 448.2539471541337
cycle= 4 E= -456.204963793263  delta_E= -0.00127  |g|= 0.0125  |ddm|= 0.0491
    CPU time for cycle= 4      0.54 sec, wall time      0.07 sec
diis-norm(errvec)=0.0255953
diis-c [-2.20208375e-04 -9.02779289e-03 -3.75799418e-02 -1.43854399e-01
  1.19046213e+00]
  HOMO = -0.449198519165241  LUMO = 0.18134218183212
  mo_energy =
[-20.59127113 -20.54413669 -20.53850272 -20.5304718  -20.5293337
 -20.50159542  -1.38030264  -1.33229492  -1.32428882  -1.31422464
  -1.3110649   -1.28795573  -0.73797801  -0.72537044  -0.69261591
  -0.67628334  -0.67469668  -0.65441894  -0.61160994  -0.56580866
  -0.55748192  -0.55167387  -0.54193802  -0.53203847  -0.52278454
  -0.48412424  -0.47459114  -0.46702829  -0.46321517  -0.44919852
   0.18134218   0.21464544   0.26974653   0.2825474    0.2932716
   0.29591392   0.33783921   0.36036543   0.38292124   0.43174116
   0.45731327   0.50841203   0.94943318   0.97055863   1.02390686
   1.02886147   1.04895465   1.05436657   1.07283652   1.08628284
   1.10199543   1.1080964    1.12672544   1.13627572   1.15533522
   1.16251815   1.17515997   1.19867071   1.22227475   1.24005829
   1.25647476   1.27570806   1.29793751   1.31241785   1.32815798
   1.34130752   1.34581909   1.36943738   1.38974992   1.42293773
   1.44056562   1.52638715   1.61276943   1.63294611   1.64306368
   1.69880154   1.74488223   1.77562564   1.79672811   1.8039087
   1.82291299   1.8349172    1.8481988    1.85607463   1.86473154
   1.8652007    1.88457899   1.90287362   1.9408243    1.94315988
   1.95291113   1.95516045   1.97204692   2.01526018   2.06681678
   2.08608482   2.52108679   2.56487251   2.59269916   2.60576409
   2.61034231   2.61166707   2.62051195   2.62392457   2.64326057
   2.68408825   2.69412037   2.75428134   2.79156617   2.84270464
   2.84916071   2.85813674   2.87756107   2.91699761   2.95162663
   2.98428608   2.9963816    3.00670599   3.01258294   3.0269528
   3.02940834   3.04765122   3.05459768   3.06114682   3.08131203
   3.16929152   3.3606908    3.39493991   3.41097815   3.41541982
   3.42468072   3.51088482   3.74020931   3.77573872   3.79100711
   3.80740188   3.85297463   3.86986658   3.91009727   3.95255837
   3.96751486   4.04691041   4.06080485   4.1518122 ]
E1 = -1179.6756542256467  E_coul = 448.27050148706445
cycle= 5 E= -456.20503231774  delta_E= -6.85e-05  |g|= 0.00324  |ddm|= 0.0165
    CPU time for cycle= 5      0.53 sec, wall time      0.07 sec
diis-norm(errvec)=0.00576076
diis-c [-2.42998547e-05  1.34576133e-04 -2.62407515e-03 -3.59639243e-02
  7.23084822e-02  9.66144941e-01]
  HOMO = -0.450143896170498  LUMO = 0.181299809170179
  mo_energy =
[-20.59153014 -20.54208733 -20.54038356 -20.52935482 -20.52843404
 -20.50378212  -1.38047387  -1.33283385  -1.32376892  -1.31431635
  -1.31043859  -1.28877642  -0.73795534  -0.7257789   -0.69220116
  -0.67606131  -0.67407886  -0.65498246  -0.61194907  -0.56625258
  -0.55699848  -0.55194041  -0.54140149  -0.53247384  -0.52328377
  -0.48421064  -0.47486763  -0.46655476  -0.46350754  -0.4501439
   0.18129981   0.21465549   0.26981928   0.28256776   0.29327214
   0.29587106   0.33790827   0.3604894    0.38271483   0.43165909
   0.45705887   0.50815627   0.94917554   0.97046338   1.02386784
   1.02875149   1.04880145   1.05430467   1.07270241   1.0861379
   1.10179966   1.10811425   1.12688966   1.13605414   1.15527719
   1.16258092   1.17500329   1.19850335   1.22191513   1.24033094
   1.2566408    1.27546941   1.29779741   1.31237636   1.32827768
   1.34146014   1.34577823   1.36929987   1.38952617   1.42254083
   1.44028208   1.52604578   1.61261982   1.63326872   1.64336697
   1.6986377    1.74453776   1.77549562   1.79646372   1.80367168
   1.82266595   1.83514234   1.84843431   1.85615466   1.86454527
   1.86516547   1.88437712   1.90258819   1.94080511   1.94314459
   1.95302648   1.95518367   1.97160838   2.01490103   2.066314
   2.08588653   2.52095356   2.56474375   2.59278727   2.60599442
   2.61035039   2.61166618   2.62059255   2.62417836   2.64302533
   2.68356259   2.69380936   2.75393992   2.79142704   2.84295667
   2.849453     2.8580332    2.87712083   2.91686813   2.95154393
   2.98410331   2.99651754   3.00683949   3.01280438   3.0268892
   3.02947812   3.0472613    3.05430921   3.0608745    3.081011
   3.1689369    3.36059115   3.39516095   3.41116826   3.41534382
   3.42434705   3.51044296   3.74013336   3.776044     3.79131129
   3.80717948   3.85267639   3.86950799   3.90987565   3.95291941
   3.96789786   4.04683799   4.06025431   4.15128488]
E1 = -1179.6731257552049  E_coul = 448.2679697391252
cycle= 6 E= -456.205035595237  delta_E= -3.28e-06  |g|= 0.00134  |ddm|= 0.00357
    CPU time for cycle= 6      0.54 sec, wall time      0.07 sec
diis-norm(errvec)=0.00240359
diis-c [-1.19003507e-06  1.34220314e-03  5.12331467e-03  9.97549727e-03
 -1.42424873e-01  2.00843533e-01  9.25140324e-01]
  HOMO = -0.449997745498262  LUMO = 0.181298778283686
  mo_energy =
[-20.59135606 -20.54263857 -20.53968953 -20.52926631 -20.52896366
 -20.50305641  -1.38043477  -1.33268015  -1.32393685  -1.31430182
  -1.31062386  -1.28858856  -0.73786767  -0.72564278  -0.69225029
  -0.67604946  -0.6741618   -0.65480685  -0.61186675  -0.56617524
  -0.55719531  -0.55192494  -0.5416031   -0.53243685  -0.52322776
  -0.48429158  -0.47491875  -0.46680551  -0.46356373  -0.44999775
   0.18129878   0.21464924   0.26979206   0.28259361   0.29325014
   0.29588622   0.33789397   0.36048064   0.38272297   0.43166499
   0.45709498   0.50818345   0.94918599   0.97044386   1.0238291
   1.02872813   1.04879639   1.05429243   1.07269252   1.08611114
   1.10180345   1.10807384   1.12679007   1.13606098   1.15524311
   1.16250039   1.17495876   1.19848927   1.22194918   1.24020738
   1.25654796   1.275531     1.2977868    1.31234729   1.32824308
   1.34138534   1.34576046   1.36930159   1.38953809   1.42262268
   1.44032824   1.52610871   1.61263776   1.63316514   1.64327839
   1.6986532    1.7445798    1.77550019   1.79648882   1.80370057
   1.82268402   1.83505163   1.84832744   1.85609604   1.86455713
   1.86511709   1.88437937   1.90262833   1.94078625   1.94309834
   1.95296931   1.95513357   1.97166876   2.01495681   2.06640281
   2.08589684   2.5209603    2.56474376   2.59274602   2.60588151
   2.61032396   2.61164221   2.6205229    2.62406359   2.64303629
   2.68362176   2.69381716   2.75401219   2.79144149   2.84284886
   2.84934403   2.85801264   2.8771752    2.91687615   2.9515497
   2.98413924   2.99645117   3.00677577   3.01271769   3.02686904
   3.02943361   3.04728303   3.05432222   3.06089245   3.08103583
   3.16898163   3.36059764   3.39507091   3.41109487   3.41532308
   3.42438698   3.51047959   3.7401478    3.77594311   3.7912136
   3.80720504   3.85274898   3.86954871   3.90990443   3.95278528
   3.96776722   4.0468157    4.06033266   4.15136969]
E1 = -1179.6707468783288  E_coul = 448.2655903157678
cycle= 7 E= -456.205036141718  delta_E= -5.46e-07  |g|= 0.000197  |ddm|= 0.00146
    CPU time for cycle= 7      0.53 sec, wall time      0.07 sec
diis-norm(errvec)=0.000370701
diis-c [-3.07975437e-08 -2.35128040e-04 -6.61310928e-04 -1.20059259e-03
  2.26952385e-02 -7.99101763e-02 -1.81150277e-01  1.24046225e+00]
  HOMO = -0.450023706411931  LUMO = 0.181303301882632
  mo_energy =
[-20.59131793 -20.54258116 -20.53970576 -20.5292364  -20.52890995
 -20.50305654  -1.38042021  -1.33268288  -1.32392441  -1.31429911
  -1.31061058  -1.28859973  -0.73783768  -0.72563328  -0.69223044
  -0.67603069  -0.67413795  -0.65480348  -0.61185863  -0.56617862
  -0.55718781  -0.55193124  -0.54159584  -0.5324421   -0.52323694
  -0.48430237  -0.47493492  -0.46680756  -0.463581    -0.45002371
   0.1813033    0.21465198   0.26979709   0.28260497   0.29325161
   0.29589033   0.33790308   0.36049245   0.38272291   0.43167097
   0.4570989    0.50819489   0.94919725   0.97045203   1.02383538
   1.02873115   1.04879972   1.05429883   1.07269745   1.08611607
   1.10180733   1.10808174   1.12679562   1.13605908   1.15524459
   1.1625049    1.17495864   1.19848798   1.22194708   1.24021836
   1.25655676   1.27553743   1.29779205   1.31235677   1.32825846
   1.34139898   1.34576924   1.36930506   1.38954481   1.42262429
   1.44032544   1.52611343   1.61264425   1.63317624   1.64329016
   1.69865712   1.7445794    1.77551255   1.79649564   1.80370639
   1.82268345   1.83505912   1.84833521   1.85610186   1.8645572
   1.86511988   1.88437921   1.90263018   1.94079202   1.94310521
   1.95297627   1.955137     1.97166357   2.01496275   2.06639872
   2.08589575   2.520975     2.56475877   2.59275353   2.60589068
   2.6103297    2.61164785   2.62052975   2.62407263   2.64304512
   2.68361567   2.69381616   2.75401485   2.79145728   2.84286104
   2.84935687   2.85801753   2.87717255   2.91689366   2.95156048
   2.98414195   2.99645971   3.00678223   3.0127274    3.02687223
   3.02943926   3.0472741    3.05432479   3.06089866   3.08104247
   3.16899118   3.360615     3.39508189   3.41110567   3.41532772
   3.42439391   3.51047799   3.74016424   3.77595578   3.79122609
   3.80720676   3.85275642   3.86955662   3.90991689   3.95280068
   3.9677828    4.04682275   4.06033076   4.1513803 ]
E1 = -1179.6702289496145  E_coul = 448.26507236778144
cycle= 8 E= -456.20503616099  delta_E= -1.93e-08  |g|= 2.91e-05  |ddm|= 0.000336
    CPU time for cycle= 8      0.55 sec, wall time      0.07 sec
diis-norm(errvec)=5.36184e-05
diis-c [-2.02811257e-09 -3.73414769e-05 -1.35882535e-04 -3.06244756e-04
  3.99919951e-03 -5.97088258e-03 -2.58545649e-02  9.63113206e-03
  1.01867458e+00]
  HOMO = -0.450027156870787  LUMO = 0.181303658163205
  mo_energy =
[-20.5913264  -20.54257543 -20.53968735 -20.52923809 -20.52890112
 -20.50306148  -1.38042195  -1.33267918  -1.32392098  -1.31429851
  -1.31060692  -1.28860239  -0.73783764  -0.72563053  -0.69222698
  -0.67602791  -0.67413393  -0.65480415  -0.61185847  -0.56617694
  -0.55718575  -0.55193111  -0.54159348  -0.53244401  -0.52323623
  -0.48429922  -0.47493211  -0.46680447  -0.46358128  -0.45002716
   0.18130366   0.21465325   0.26979728   0.2826057    0.29325235
   0.29589141   0.33790462   0.36049323   0.38272241   0.43167223
   0.45709824   0.50819453   0.94919571   0.97045229   1.02383619
   1.02873197   1.04880029   1.05429954   1.07269766   1.08611569
   1.10180757   1.1080823    1.12679642   1.13605946   1.1552458
   1.16250566   1.17495831   1.19848808   1.22194562   1.24022009
   1.25655867   1.27553959   1.29779218   1.31235671   1.32826023
   1.34140001   1.34577022   1.36930621   1.38954415   1.42262549
   1.44032747   1.52611379   1.61264449   1.63317843   1.64329208
   1.69865747   1.74457843   1.77551195   1.79649527   1.80370653
   1.82268404   1.83506096   1.84833706   1.85610325   1.86455715
   1.86512116   1.88437937   1.9026311    1.94079352   1.94310708
   1.95297794   1.955138     1.97166243   2.01496212   2.06639887
   2.08589674   2.52097551   2.56475802   2.59275574   2.60589263
   2.61033102   2.61164913   2.6205311    2.6240745    2.64304467
   2.68361378   2.6938156    2.75401779   2.79145732   2.84286333
   2.84935903   2.85801834   2.87717183   2.91689327   2.95156152
   2.98414401   2.99646206   3.00678406   3.01272886   3.02687291
   3.02944036   3.04727357   3.05432434   3.06089827   3.08104208
   3.16899121   3.36061522   3.39508429   3.41110736   3.41532921
   3.42439452   3.51047659   3.74016481   3.77595816   3.79122819
   3.80720756   3.85275871   3.86955516   3.90991636   3.95280328
   3.9677852    4.04682396   4.06032943   4.15137984]
E1 = -1179.6702092767273  E_coul = 448.26505269449433
cycle= 9 E= -456.20503616139  delta_E= -4e-10  |g|= 1.18e-05  |ddm|= 4.55e-05
    CPU time for cycle= 9      0.54 sec, wall time      0.07 sec
  HOMO = -0.450025929161625  LUMO = 0.181303798837997
  mo_energy =
[-20.59131906 -20.54257714 -20.53969725 -20.5292354  -20.52890553
 -20.503058    -1.38041946  -1.33268143  -1.32392149  -1.31429781
  -1.31060813  -1.28860128  -0.73783555  -0.72563159  -0.69222708
  -0.6760276   -0.67413495  -0.65480322  -0.61185806  -0.56617709
  -0.55718622  -0.5519303   -0.5415949   -0.53244226  -0.52323597
  -0.48430013  -0.47493345  -0.46680532  -0.46358034  -0.45002593
   0.1813038    0.21465299   0.26979695   0.28260598   0.29325223
   0.29589131   0.33790444   0.36049298   0.38272256   0.43167221
   0.45709852   0.50819466   0.94919637   0.97045198   1.02383596
   1.02873199   1.04880037   1.05429941   1.07269762   1.08611613
   1.10180743   1.10808212   1.12679613   1.13605947   1.15524535
   1.16250554   1.17495853   1.19848819   1.22194632   1.2402193
   1.25655866   1.27553906   1.29779216   1.31235727   1.32825998
   1.34139973   1.34577049   1.3693065    1.38954494   1.42262494
   1.44032677   1.52611385   1.6126449    1.63317821   1.64329142
   1.69865773   1.74457915   1.77551349   1.79649569   1.80370671
   1.82268402   1.83506023   1.84833688   1.85610294   1.86455733
   1.86512103   1.88437975   1.90263072   1.94079301   1.94310654
   1.95297733   1.955138     1.97166303   2.01496253   2.06639851
   2.08589671   2.5209758    2.56475958   2.59275547   2.60589253
   2.61033084   2.61164894   2.62053105   2.62407392   2.64304475
   2.68361447   2.69381564   2.7540165    2.79145846   2.84286302
   2.84935818   2.85801866   2.87717227   2.91689382   2.95156229
   2.98414305   2.99646176   3.00678378   3.01272818   3.02687291
   3.02944007   3.04727388   3.05432456   3.06089829   3.08104207
   3.16899096   3.36061609   3.395084     3.41110671   3.41532935
   3.42439397   3.51047685   3.74016597   3.77595754   3.79122747
   3.80720764   3.8527575    3.86955583   3.90991749   3.95280291
   3.96778426   4.04682433   4.06033003   4.15137927]
E1 = -1179.6702220919185  E_coul = 448.2650655096266
Extra cycle  E= -456.205036161449  delta_E= -5.9e-11  |g|= 6.41e-06  |ddm|= 1.68e-05
    CPU time for scf_cycle      9.37 sec, wall time      1.18 sec
    CPU time for SCF      9.46 sec, wall time      1.20 sec
converged SCF energy = -456.205036161449
