 Entering Gaussian System, Link 0=g16
 Input=w32_73.gjf
 Output=w32_73.log
 Initial command:
 /home/soft/g16/l1.exe "/tmp/liwei01/gaussian/wsr/Gau-8442.inp" -scrdir="/tmp/liwei01/gaussian/wsr/"
 Entering Link 1 = /home/soft/g16/l1.exe PID=      8443.
  
 Copyright (c) 1988,1990,1992,1993,1995,1998,2003,2009,2016,
            Gaussian, Inc.  All Rights Reserved.
  
 This is part of the Gaussian(R) 16 program.  It is based on
 the Gaussian(R) 09 system (copyright 2009, Gaussian, Inc.),
 the Gaussian(R) 03 system (copyright 2003, Gaussian, Inc.),
 the Gaussian(R) 98 system (copyright 1998, Gaussian, Inc.),
 the Gaussian(R) 94 system (copyright 1995, Gaussian, Inc.),
 the Gaussian 92(TM) system (copyright 1992, Gaussian, Inc.),
 the Gaussian 90(TM) system (copyright 1990, Gaussian, Inc.),
 the Gaussian 88(TM) system (copyright 1988, Gaussian, Inc.),
 the Gaussian 86(TM) system (copyright 1986, Carnegie Mellon
 University), and the Gaussian 82(TM) system (copyright 1983,
 Carnegie Mellon University). Gaussian is a federally registered
 trademark of Gaussian, Inc.
  
 This software contains proprietary and confidential information,
 including trade secrets, belonging to Gaussian, Inc.
  
 This software is provided under written license and may be
 used, copied, transmitted, or stored only in accord with that
 written license.
  
 The following legend is applicable only to US Government
 contracts under FAR:
  
                    RESTRICTED RIGHTS LEGEND
  
 Use, reproduction and disclosure by the US Government is
 subject to restrictions as set forth in subparagraphs (a)
 and (c) of the Commercial Computer Software - Restricted
 Rights clause in FAR 52.227-19.
  
 Gaussian, Inc.
 340 Quinnipiac St., Bldg. 40, Wallingford CT 06492
  
  
 ---------------------------------------------------------------
 Warning -- This program may not be used in any manner that
 competes with the business of Gaussian, Inc. or will provide
 assistance to any competitor of Gaussian, Inc.  The licensee
 of this program is prohibited from giving any competitor of
 Gaussian, Inc. access to this program.  By using this program,
 the user acknowledges that Gaussian, Inc. is engaged in the
 business of creating and licensing software in the field of
 computational chemistry and represents and warrants to the
 licensee that it is not a competitor of Gaussian, Inc. and that
 it will not use this program in any manner prohibited above.
 ---------------------------------------------------------------
  

 Cite this work as:
 Gaussian 16, Revision A.03,
 M. J. Frisch, G. W. Trucks, H. B. Schlegel, G. E. Scuseria, 
 M. A. Robb, J. R. Cheeseman, G. Scalmani, V. Barone, 
 G. A. Petersson, H. Nakatsuji, X. Li, M. Caricato, A. V. Marenich, 
 J. Bloino, B. G. Janesko, R. Gomperts, B. Mennucci, H. P. Hratchian, 
 J. V. Ortiz, A. F. Izmaylov, J. L. Sonnenberg, D. Williams-Young, 
 F. Ding, F. Lipparini, F. Egidi, J. Goings, B. Peng, A. Petrone, 
 T. Henderson, D. Ranasinghe, V. G. Zakrzewski, J. Gao, N. Rega, 
 G. Zheng, W. Liang, M. Hada, M. Ehara, K. Toyota, R. Fukuda, 
 J. Hasegawa, M. Ishida, T. Nakajima, Y. Honda, O. Kitao, H. Nakai, 
 T. Vreven, K. Throssell, J. A. Montgomery, Jr., J. E. Peralta, 
 F. Ogliaro, M. J. Bearpark, J. J. Heyd, E. N. Brothers, K. N. Kudin, 
 V. N. Staroverov, T. A. Keith, R. Kobayashi, J. Normand, 
 K. Raghavachari, A. P. Rendell, J. C. Burant, S. S. Iyengar, 
 J. Tomasi, M. Cossi, J. M. Millam, M. Klene, C. Adamo, R. Cammi, 
 J. W. Ochterski, R. L. Martin, K. Morokuma, O. Farkas, 
 J. B. Foresman, and D. J. Fox, Gaussian, Inc., Wallingford CT, 2016.
 
 ******************************************
 Gaussian 16:  ES64L-G16RevA.03 25-Dec-2016
                15-May-2020 
 ******************************************
 %chk=w32_73.chk
 %nproc=4
 Will use up to    4 processors via shared memory.
 %mem=1gb
 -----------------------------------------
 #p hf/6-31g** 5d 7f pop=npa charge nosymm
 -----------------------------------------
 1/18=10,28=-2,38=1,125=101,172=1/1;
 2/12=2,15=1,17=6,18=5,40=1/2;
 3/5=1,6=6,7=101,8=11,11=9,25=1,30=1/1,2,3;
 4//1;
 5/5=2,38=5/2;
 6/7=2,8=2,9=2,10=2,28=1,40=-1/1,7;
 99/5=1,9=1/99;
 Leave Link    1 at Fri May 15 22:36:16 2020, MaxMem=   134217728 cpu:               0.2 elap:               0.1
 (Enter /home/soft/g16/l101.exe)
 -------------
 Atom number=6
 -------------
 Symbolic Z-matrix:
 Charge =  0 Multiplicity = 1
 o                     9.73971  -14.56022  -13.08414 
 o                     10.08491  -9.603    -13.69441 
 h                     9.43668  -13.92088  -12.43943 
 h                     10.65271  -14.32297  -13.24658 
 h                     9.83796  -9.87791  -14.5774 
 h                     9.26711  -9.62837  -13.19764 
 
 ITRead=  0  0  0  0  0  0
 MicOpt= -1 -1 -1 -1 -1 -1
 NAtoms=      6 NQM=        6 NQMF=       0 NMMI=      0 NMMIF=      0
                NMic=       0 NMicF=      0.
                    Isotopes and Nuclear Properties:
 (Nuclear quadrupole moments (NQMom) in fm**2, nuclear magnetic moments (NMagM)
  in nuclear magnetons)

  Atom         1           2           3           4           5           6
 IAtWgt=          16          16           1           1           1           1
 AtmWgt=  15.9949146  15.9949146   1.0078250   1.0078250   1.0078250   1.0078250
 NucSpn=           0           0           1           1           1           1
 AtZEff=  -0.0000000  -0.0000000  -0.0000000  -0.0000000  -0.0000000  -0.0000000
 NQMom=    0.0000000   0.0000000   0.0000000   0.0000000   0.0000000   0.0000000
 NMagM=    0.0000000   0.0000000   2.7928460   2.7928460   2.7928460   2.7928460
 AtZNuc=   8.0000000   8.0000000   1.0000000   1.0000000   1.0000000   1.0000000
 Background charge distribution read from input stream:
 Point Charges:
 XYZ=    8.3923  -11.8129  -11.2005 Q=   -1.0561 A=    0.0000 R=    0.0000 C=    0.0000
 XYZ=    8.1753  -12.5378  -10.6142 Q=    0.5233 A=    0.0000 R=    0.0000 C=    0.0000
 XYZ=    9.2522  -11.5141  -10.9045 Q=    0.5177 A=    0.0000 R=    0.0000 C=    0.0000
 XYZ=   10.7060  -10.8489  -10.0915 Q=   -1.0357 A=    0.0000 R=    0.0000 C=    0.0000
 XYZ=   11.5214  -11.3203   -9.9208 Q=    0.5206 A=    0.0000 R=    0.0000 C=    0.0000
 XYZ=   10.5678  -10.3169   -9.3078 Q=    0.5156 A=    0.0000 R=    0.0000 C=    0.0000
 XYZ=    8.6932  -14.0693   -9.5471 Q=   -1.0099 A=    0.0000 R=    0.0000 C=    0.0000
 XYZ=    8.2201  -13.7327   -8.7861 Q=    0.4999 A=    0.0000 R=    0.0000 C=    0.0000
 XYZ=    8.5528  -15.0157   -9.5178 Q=    0.5079 A=    0.0000 R=    0.0000 C=    0.0000
 XYZ=    7.2503   -9.8596  -13.1035 Q=   -1.0243 A=    0.0000 R=    0.0000 C=    0.0000
 XYZ=    7.1207  -10.2215  -13.9801 Q=    0.5152 A=    0.0000 R=    0.0000 C=    0.0000
 XYZ=    7.3415  -10.6267  -12.5383 Q=    0.5154 A=    0.0000 R=    0.0000 C=    0.0000
 XYZ=    5.5704  -12.7600  -10.7338 Q=   -1.0500 A=    0.0000 R=    0.0000 C=    0.0000
 XYZ=    4.6427  -12.8278  -10.5079 Q=    0.5214 A=    0.0000 R=    0.0000 C=    0.0000
 XYZ=    5.9838  -12.4052   -9.9468 Q=    0.5064 A=    0.0000 R=    0.0000 C=    0.0000
 XYZ=    6.9662   -9.2478  -10.2743 Q=   -1.0324 A=    0.0000 R=    0.0000 C=    0.0000
 XYZ=    6.9752   -9.8450  -11.0223 Q=    0.5142 A=    0.0000 R=    0.0000 C=    0.0000
 XYZ=    7.6844   -8.6385  -10.4451 Q=    0.5185 A=    0.0000 R=    0.0000 C=    0.0000
 XYZ=    6.9426  -11.8294   -8.3710 Q=   -1.0528 A=    0.0000 R=    0.0000 C=    0.0000
 XYZ=    7.4956  -12.0911   -7.6348 Q=    0.5210 A=    0.0000 R=    0.0000 C=    0.0000
 XYZ=    7.3075  -10.9928   -8.6597 Q=    0.5255 A=    0.0000 R=    0.0000 C=    0.0000
 XYZ=    9.4738   -7.9972  -10.9180 Q=   -0.9971 A=    0.0000 R=    0.0000 C=    0.0000
 XYZ=    9.9975   -8.7956  -10.8516 Q=    0.5301 A=    0.0000 R=    0.0000 C=    0.0000
 XYZ=    9.6234   -7.5424  -10.0892 Q=    0.4920 A=    0.0000 R=    0.0000 C=    0.0000
 XYZ=    8.4516  -10.6356  -15.6859 Q=   -1.0322 A=    0.0000 R=    0.0000 C=    0.0000
 XYZ=    8.1250  -10.4069  -16.5562 Q=    0.4798 A=    0.0000 R=    0.0000 C=    0.0000
 XYZ=    9.2622  -11.1166  -15.8526 Q=    0.5341 A=    0.0000 R=    0.0000 C=    0.0000
 XYZ=    4.0391  -11.2243  -12.8044 Q=   -0.9921 A=    0.0000 R=    0.0000 C=    0.0000
 XYZ=    4.5248  -12.0476  -12.7552 Q=    0.4802 A=    0.0000 R=    0.0000 C=    0.0000
 XYZ=    4.4321  -10.7575  -13.5420 Q=    0.5046 A=    0.0000 R=    0.0000 C=    0.0000
 XYZ=    5.5848  -15.5922  -11.4699 Q=   -1.0129 A=    0.0000 R=    0.0000 C=    0.0000
 XYZ=    4.6785  -15.3483  -11.6582 Q=    0.5050 A=    0.0000 R=    0.0000 C=    0.0000
 XYZ=    6.0031  -14.7735  -11.2032 Q=    0.5257 A=    0.0000 R=    0.0000 C=    0.0000
 XYZ=    8.8013  -12.4259   -6.4973 Q=   -0.9852 A=    0.0000 R=    0.0000 C=    0.0000
 XYZ=    9.0556  -11.7490   -5.8701 Q=    0.5006 A=    0.0000 R=    0.0000 C=    0.0000
 XYZ=    8.9395  -13.2499   -6.0303 Q=    0.5083 A=    0.0000 R=    0.0000 C=    0.0000
 XYZ=   10.5523   -9.0602   -7.7657 Q=   -0.9799 A=    0.0000 R=    0.0000 C=    0.0000
 XYZ=   10.0296   -9.4526   -7.0665 Q=    0.5003 A=    0.0000 R=    0.0000 C=    0.0000
 XYZ=   10.0576   -8.2839   -8.0284 Q=    0.4937 A=    0.0000 R=    0.0000 C=    0.0000
 XYZ=    8.4919  -14.1596  -15.7110 Q=   -0.9823 A=    0.0000 R=    0.0000 C=    0.0000
 XYZ=    8.8439  -15.0437  -15.8144 Q=    0.4799 A=    0.0000 R=    0.0000 C=    0.0000
 XYZ=    8.9183  -13.8221  -14.9233 Q=    0.4950 A=    0.0000 R=    0.0000 C=    0.0000
 XYZ=   10.6752  -11.9252  -15.8192 Q=   -0.9837 A=    0.0000 R=    0.0000 C=    0.0000
 XYZ=   11.1454  -12.2597  -15.0555 Q=    0.5055 A=    0.0000 R=    0.0000 C=    0.0000
 XYZ=   10.7694  -12.6123  -16.4789 Q=    0.5125 A=    0.0000 R=    0.0000 C=    0.0000
 XYZ=    7.7593  -16.5050  -13.2460 Q=   -1.0112 A=    0.0000 R=    0.0000 C=    0.0000
 XYZ=    7.3079  -16.2111  -12.4547 Q=    0.4926 A=    0.0000 R=    0.0000 C=    0.0000
 XYZ=    8.5373  -15.9498  -13.2987 Q=    0.4973 A=    0.0000 R=    0.0000 C=    0.0000
 XYZ=   13.4576  -11.7733   -9.7740 Q=   -0.9993 A=    0.0000 R=    0.0000 C=    0.0000
 XYZ=   13.9089  -10.9962  -10.1037 Q=    0.5128 A=    0.0000 R=    0.0000 C=    0.0000
 XYZ=   14.1508  -12.4236   -9.6612 Q=    0.5076 A=    0.0000 R=    0.0000 C=    0.0000
 XYZ=    5.5914  -15.5335   -8.7002 Q=   -1.0162 A=    0.0000 R=    0.0000 C=    0.0000
 XYZ=    6.3093  -16.0707   -8.3652 Q=    0.4831 A=    0.0000 R=    0.0000 C=    0.0000
 XYZ=    5.4763  -15.8239   -9.6050 Q=    0.5237 A=    0.0000 R=    0.0000 C=    0.0000
 XYZ=    5.3398  -11.2122  -15.4745 Q=   -0.9760 A=    0.0000 R=    0.0000 C=    0.0000
 XYZ=    5.8801  -10.4587  -15.7120 Q=    0.4863 A=    0.0000 R=    0.0000 C=    0.0000
 XYZ=    5.4896  -11.8457  -16.1763 Q=    0.4965 A=    0.0000 R=    0.0000 C=    0.0000
 XYZ=   12.9960  -14.7139  -11.2100 Q=   -0.9778 A=    0.0000 R=    0.0000 C=    0.0000
 XYZ=   12.2864  -15.1619  -10.7497 Q=    0.5059 A=    0.0000 R=    0.0000 C=    0.0000
 XYZ=   13.6357  -14.5124  -10.5270 Q=    0.4638 A=    0.0000 R=    0.0000 C=    0.0000
 XYZ=    4.6413   -8.1383  -12.6711 Q=   -0.9897 A=    0.0000 R=    0.0000 C=    0.0000
 XYZ=    4.5978   -7.2720  -12.2662 Q=    0.4876 A=    0.0000 R=    0.0000 C=    0.0000
 XYZ=    5.5765   -8.3384  -12.7100 Q=    0.4969 A=    0.0000 R=    0.0000 C=    0.0000
 XYZ=    8.9611  -17.0167   -9.2755 Q=   -0.9921 A=    0.0000 R=    0.0000 C=    0.0000
 XYZ=    8.6736  -17.2191   -8.3852 Q=    0.5092 A=    0.0000 R=    0.0000 C=    0.0000
 XYZ=    8.3026  -17.4234   -9.8386 Q=    0.5103 A=    0.0000 R=    0.0000 C=    0.0000
 XYZ=   12.8900   -9.6906  -13.7511 Q=   -0.9984 A=    0.0000 R=    0.0000 C=    0.0000
 XYZ=   13.4884   -9.8459  -13.0204 Q=    0.4670 A=    0.0000 R=    0.0000 C=    0.0000
 XYZ=   12.0171   -9.7427  -13.3618 Q=    0.5160 A=    0.0000 R=    0.0000 C=    0.0000
 XYZ=    4.9070   -7.9100   -9.1300 Q=   -1.0105 A=    0.0000 R=    0.0000 C=    0.0000
 XYZ=    4.0635   -8.0265   -9.5674 Q=    0.4764 A=    0.0000 R=    0.0000 C=    0.0000
 XYZ=    5.4227   -8.6710   -9.3968 Q=    0.5176 A=    0.0000 R=    0.0000 C=    0.0000
 XYZ=    2.9547  -12.7024   -9.8757 Q=   -0.9915 A=    0.0000 R=    0.0000 C=    0.0000
 XYZ=    3.0641  -13.5048   -9.3654 Q=    0.5019 A=    0.0000 R=    0.0000 C=    0.0000
 XYZ=    2.7384  -12.0329   -9.2268 Q=    0.5105 A=    0.0000 R=    0.0000 C=    0.0000
 XYZ=    4.2108  -13.3306   -7.5546 Q=   -1.0293 A=    0.0000 R=    0.0000 C=    0.0000
 XYZ=    4.9638  -12.7453   -7.4735 Q=    0.4979 A=    0.0000 R=    0.0000 C=    0.0000
 XYZ=    4.5835  -14.1618   -7.8486 Q=    0.5197 A=    0.0000 R=    0.0000 C=    0.0000
 XYZ=    8.5389   -6.2611  -12.9484 Q=   -1.0019 A=    0.0000 R=    0.0000 C=    0.0000
 XYZ=    8.8800   -6.8491  -12.2745 Q=    0.5098 A=    0.0000 R=    0.0000 C=    0.0000
 XYZ=    9.2767   -6.1230  -13.5423 Q=    0.4773 A=    0.0000 R=    0.0000 C=    0.0000
 XYZ=   11.4715  -15.3553   -7.5180 Q=   -1.0197 A=    0.0000 R=    0.0000 C=    0.0000
 XYZ=   10.8644  -15.3558   -8.2581 Q=    0.4753 A=    0.0000 R=    0.0000 C=    0.0000
 XYZ=   11.9075  -14.5045   -7.5658 Q=    0.5146 A=    0.0000 R=    0.0000 C=    0.0000
 XYZ=   12.8138  -13.0185   -7.3663 Q=   -0.9959 A=    0.0000 R=    0.0000 C=    0.0000
 XYZ=   12.4819  -12.4171   -6.6996 Q=    0.4994 A=    0.0000 R=    0.0000 C=    0.0000
 XYZ=   12.6552  -12.5682   -8.1960 Q=    0.5110 A=    0.0000 R=    0.0000 C=    0.0000
 XYZ=   11.3245  -17.0116  -10.7628 Q=   -1.0019 A=    0.0000 R=    0.0000 C=    0.0000
 XYZ=   11.7165  -17.8633  -10.5702 Q=    0.4876 A=    0.0000 R=    0.0000 C=    0.0000
 XYZ=   10.4428  -17.0644  -10.3939 Q=    0.5095 A=    0.0000 R=    0.0000 C=    0.0000
 Pt Chg Charge=             -0.0032 electrons
 Pt Chg Dipole moment (Debye):
    X=             17.8708    Y=             -7.9571    Z=             16.0231  Tot=             25.2868
 Pt Chg Quadrupole moment (Debye-Ang):
   XX=            282.0848   YY=            210.9139   ZZ=           -278.4719
   XY=           -231.3344   XZ=            -59.9601   YZ=            -93.0075
 Pt Chg Traceless Quadrupole moment (Debye-Ang):
   XX=            210.5759   YY=            139.4049   ZZ=           -349.9808
   XY=           -231.3344   XZ=            -59.9601   YZ=            -93.0075
 Pt Chg Octapole moment (Debye-Ang**2):
  XXX=           3730.3651  YYY=          -4470.2715  ZZZ=           3390.4908  XYY=           3202.7976
  XXY=          -3091.9377  XXZ=          -1854.9991  XZZ=           -190.8078  YZZ=           2164.6032
  YYZ=            -68.8469  XYZ=           1130.3991
 Pt Chg Hexadecapole moment (Debye-Ang**3):
 XXXX=          49367.2680 YYYY=          88946.7201 ZZZZ=         -28524.9041 XXXY=         -38104.4786
 XXXZ=         -28983.9305 YYYX=         -48619.9339 YYYZ=          18042.1616 ZZZX=           4609.4364
 ZZZY=         -26847.7626 XXYY=          36076.0668 XXZZ=          12006.3399 YYZZ=         -14101.6557
 XXYZ=          22630.9006 YYXZ=         -19452.6321 ZZXY=          -4487.7532
 Leave Link  101 at Fri May 15 22:36:16 2020, MaxMem=   134217728 cpu:               0.7 elap:               0.2
 (Enter /home/soft/g16/l202.exe)
                          Input orientation:                          
 ---------------------------------------------------------------------
 Center     Atomic      Atomic             Coordinates (Angstroms)
 Number     Number       Type             X           Y           Z
 ---------------------------------------------------------------------
      1          8           0        9.739714  -14.560219  -13.084136
      2          8           0       10.084912   -9.602997  -13.694410
      3          1           0        9.436683  -13.920876  -12.439430
      4          1           0       10.652707  -14.322974  -13.246584
      5          1           0        9.837963   -9.877914  -14.577398
      6          1           0        9.267108   -9.628370  -13.197635
 ---------------------------------------------------------------------
                    Distance matrix (angstroms):
                    1          2          3          4          5
     1  O    0.000000
     2  O    5.006560   0.000000
     3  H    0.957201   4.543045   0.000000
     4  H    0.957199   4.775052   1.513901   0.000000
     5  H    4.915635   0.957200   4.591021   4.710991   0.000000
     6  H    4.955741   0.957200   4.362252   4.895057   1.513900
                    6
     6  H    0.000000
 Symmetry turned off by external request.
 Stoichiometry    H4O2
 Framework group  C1[X(H4O2)]
 Deg. of freedom    12
 Full point group                 C1      NOp   1
 Rotational constants (GHZ):         159.9738341           2.2835816           2.2715966
 Leave Link  202 at Fri May 15 22:36:16 2020, MaxMem=   134217728 cpu:               0.0 elap:               0.0
 (Enter /home/soft/g16/l301.exe)
 Standard basis: 6-31G(d,p) (5D, 7F)
 Ernie: Thresh=  0.10000D-02 Tol=  0.10000D-05 Strict=F.
    48 basis functions,    84 primitive gaussians,    50 cartesian basis functions
    10 alpha electrons       10 beta electrons
       nuclear repulsion energy        29.1454027838 Hartrees.
 IExCor=    0 DFT=F Ex=HF Corr=None ExCW=0 ScaHFX=  1.000000
 ScaDFX=  1.000000  1.000000  1.000000  1.000000 ScalE2=  1.000000  1.000000
 IRadAn=      5 IRanWt=     -1 IRanGd=            0 ICorTp=0 IEmpDi=  4
 NAtoms=    6 NActive=    6 NUniq=    6 SFac= 1.00D+00 NAtFMM=   60 NAOKFM=F Big=F
 Integral buffers will be    131072 words long.
 Raffenetti 1 integral format.
 Two-electron integral symmetry is turned off.
 Background charge distribution read from rwf.
 PtFMM for NChg=        96 BoxLen=    40.00 Levels= 1 LMax=20 SMax=    22.2 ICnFMM=     1:
 Self energy of the charges =       -14.5416339521 a.u.
 MM   energy of the charges =         0.0000000000 a.u.
 Nuclei-charges interaction =        -0.1213556317 a.u.
 Nuclear repulsion after external point charges =       14.4824132001 Hartrees.
 Leave Link  301 at Fri May 15 22:36:16 2020, MaxMem=   134217728 cpu:               0.3 elap:               0.1
 (Enter /home/soft/g16/l302.exe)
 NPDir=0 NMtPBC=     1 NCelOv=     1 NCel=       1 NClECP=     1 NCelD=      1
         NCelK=      1 NCelE2=     1 NClLst=     1 CellRange=     0.0.
 One-electron integrals computed using PRISM.
 NBasis=    48 RedAO= T EigKep=  4.29D-02  NBF=    48
 NBsUse=    48 1.00D-06 EigRej= -1.00D+00 NBFU=    48
 Leave Link  302 at Fri May 15 22:36:17 2020, MaxMem=   134217728 cpu:               0.5 elap:               0.2
 (Enter /home/soft/g16/l303.exe)
 DipDrv:  MaxL=1.
 Leave Link  303 at Fri May 15 22:36:17 2020, MaxMem=   134217728 cpu:               0.1 elap:               0.1
 (Enter /home/soft/g16/l401.exe)
 ExpMin= 1.61D-01 ExpMax= 5.48D+03 ExpMxC= 8.25D+02 IAcc=3 IRadAn=         5 AccDes= 0.00D+00
 Harris functional with IExCor=  205 and IRadAn=       5 diagonalized for initial guess.
 HarFok:  IExCor=  205 AccDes= 0.00D+00 IRadAn=         5 IDoV= 1 UseB2=F ITyADJ=14
 ICtDFT=  3500011 ScaDFX=  1.000000  1.000000  1.000000  1.000000
 FoFCou: FMM=F IPFlag=           0 FMFlag=      100000 FMFlg1=           0
         NFxFlg=           0 DoJE=T BraDBF=F KetDBF=T FulRan=T
         wScrn=  0.000000 ICntrl=       500 IOpCl=  0 I1Cent=   200000004 NGrid=           0
         NMat0=    1 NMatS0=      1 NMatT0=    0 NMatD0=    1 NMtDS0=    0 NMtDT0=    0
 Symmetry not used in FoFCou.
 Harris En= -166.846577734008    
 JPrj=0 DoOrth=F DoCkMO=F.
 Leave Link  401 at Fri May 15 22:36:17 2020, MaxMem=   134217728 cpu:               0.9 elap:               0.3
 (Enter /home/soft/g16/l502.exe)
 Keep R1 ints in memory in canonical form, NReq=1528752.
 FoFCou: FMM=F IPFlag=           0 FMFlag=           0 FMFlg1=           0
         NFxFlg=           0 DoJE=F BraDBF=F KetDBF=F FulRan=T
         wScrn=  0.000000 ICntrl=       600 IOpCl=  0 I1Cent=           0 NGrid=           0
         NMat0=    1 NMatS0=   1176 NMatT0=    0 NMatD0=    1 NMtDS0=    0 NMtDT0=    0
 Symmetry not used in FoFCou.
 Two-electron integral symmetry not used.
 Closed shell SCF:
 Using DIIS extrapolation, IDIIS=  1040.
 NGot=   134217728 LenX=   133519768 LenY=   133516827
 Requested convergence on RMS density matrix=1.00D-08 within 128 cycles.
 Requested convergence on MAX density matrix=1.00D-06.
 Requested convergence on             energy=1.00D-06.
 No special actions if energy rises.

 Cycle   1  Pass 1  IDiag  1:
 E= -166.469957693741    
 DIIS: error= 6.40D-02 at cycle   1 NSaved=   1.
 NSaved= 1 IEnMin= 1 EnMin= -166.469957693741     IErMin= 1 ErrMin= 6.40D-02
 ErrMax= 6.40D-02  0.00D+00 EMaxC= 1.00D-01 BMatC= 2.67D-01 BMatP= 2.67D-01
 IDIUse=3 WtCom= 3.60D-01 WtEn= 6.40D-01
 Coeff-Com:  0.100D+01
 Coeff-En:   0.100D+01
 Coeff:      0.100D+01
 Gap=     0.544 Goal=   None    Shift=    0.000
 GapD=    0.544 DampG=2.000 DampE=0.500 DampFc=1.0000 IDamp=-1.
 RMSDP=8.73D-03 MaxDP=1.26D-01              OVMax= 1.32D-01

 Cycle   2  Pass 1  IDiag  1:
 E= -166.595233422833     Delta-E=       -0.125275729092 Rises=F Damp=F
 DIIS: error= 3.29D-02 at cycle   2 NSaved=   2.
 NSaved= 2 IEnMin= 2 EnMin= -166.595233422833     IErMin= 2 ErrMin= 3.29D-02
 ErrMax= 3.29D-02  0.00D+00 EMaxC= 1.00D-01 BMatC= 8.40D-02 BMatP= 2.67D-01
 IDIUse=3 WtCom= 6.71D-01 WtEn= 3.29D-01
 Coeff-Com:  0.349D+00 0.651D+00
 Coeff-En:   0.858D-01 0.914D+00
 Coeff:      0.262D+00 0.738D+00
 Gap=     0.682 Goal=   None    Shift=    0.000
 RMSDP=3.91D-03 MaxDP=5.58D-02 DE=-1.25D-01 OVMax= 4.73D-02

 Cycle   3  Pass 1  IDiag  1:
 E= -166.650596176353     Delta-E=       -0.055362753520 Rises=F Damp=F
 DIIS: error= 6.75D-03 at cycle   3 NSaved=   3.
 NSaved= 3 IEnMin= 3 EnMin= -166.650596176353     IErMin= 3 ErrMin= 6.75D-03
 ErrMax= 6.75D-03  0.00D+00 EMaxC= 1.00D-01 BMatC= 2.21D-03 BMatP= 8.40D-02
 IDIUse=3 WtCom= 9.33D-01 WtEn= 6.75D-02
 Coeff-Com: -0.311D-01 0.975D-01 0.934D+00
 Coeff-En:   0.000D+00 0.000D+00 0.100D+01
 Coeff:     -0.290D-01 0.909D-01 0.938D+00
 Gap=     0.666 Goal=   None    Shift=    0.000
 RMSDP=5.62D-04 MaxDP=8.56D-03 DE=-5.54D-02 OVMax= 9.64D-03

 Cycle   4  Pass 1  IDiag  1:
 E= -166.652290805328     Delta-E=       -0.001694628975 Rises=F Damp=F
 DIIS: error= 6.06D-04 at cycle   4 NSaved=   4.
 NSaved= 4 IEnMin= 4 EnMin= -166.652290805328     IErMin= 4 ErrMin= 6.06D-04
 ErrMax= 6.06D-04  0.00D+00 EMaxC= 1.00D-01 BMatC= 1.79D-05 BMatP= 2.21D-03
 IDIUse=3 WtCom= 9.94D-01 WtEn= 6.06D-03
 Coeff-Com:  0.586D-02-0.456D-01-0.273D+00 0.131D+01
 Coeff-En:   0.000D+00 0.000D+00 0.000D+00 0.100D+01
 Coeff:      0.582D-02-0.453D-01-0.271D+00 0.131D+01
 Gap=     0.668 Goal=   None    Shift=    0.000
 RMSDP=9.88D-05 MaxDP=1.20D-03 DE=-1.69D-03 OVMax= 1.54D-03

 Cycle   5  Pass 1  IDiag  1:
 E= -166.652316126580     Delta-E=       -0.000025321252 Rises=F Damp=F
 DIIS: error= 8.69D-05 at cycle   5 NSaved=   5.
 NSaved= 5 IEnMin= 5 EnMin= -166.652316126580     IErMin= 5 ErrMin= 8.69D-05
 ErrMax= 8.69D-05  0.00D+00 EMaxC= 1.00D-01 BMatC= 3.34D-07 BMatP= 1.79D-05
 IDIUse=1 WtCom= 1.00D+00 WtEn= 0.00D+00
 Coeff-Com:  0.685D-03-0.110D-02-0.144D-01-0.816D-01 0.110D+01
 Coeff:      0.685D-03-0.110D-02-0.144D-01-0.816D-01 0.110D+01
 Gap=     0.669 Goal=   None    Shift=    0.000
 RMSDP=2.01D-05 MaxDP=2.60D-04 DE=-2.53D-05 OVMax= 3.36D-04

 Cycle   6  Pass 1  IDiag  1:
 E= -166.652316820823     Delta-E=       -0.000000694243 Rises=F Damp=F
 DIIS: error= 2.11D-05 at cycle   6 NSaved=   6.
 NSaved= 6 IEnMin= 6 EnMin= -166.652316820823     IErMin= 6 ErrMin= 2.11D-05
 ErrMax= 2.11D-05  0.00D+00 EMaxC= 1.00D-01 BMatC= 2.81D-08 BMatP= 3.34D-07
 IDIUse=1 WtCom= 1.00D+00 WtEn= 0.00D+00
 Coeff-Com: -0.146D-03 0.171D-02 0.958D-02-0.660D-01 0.111D+00 0.943D+00
 Coeff:     -0.146D-03 0.171D-02 0.958D-02-0.660D-01 0.111D+00 0.943D+00
 Gap=     0.668 Goal=   None    Shift=    0.000
 RMSDP=4.64D-06 MaxDP=5.12D-05 DE=-6.94D-07 OVMax= 7.59D-05

 Cycle   7  Pass 1  IDiag  1:
 E= -166.652316859778     Delta-E=       -0.000000038955 Rises=F Damp=F
 DIIS: error= 5.16D-06 at cycle   7 NSaved=   7.
 NSaved= 7 IEnMin= 7 EnMin= -166.652316859778     IErMin= 7 ErrMin= 5.16D-06
 ErrMax= 5.16D-06  0.00D+00 EMaxC= 1.00D-01 BMatC= 3.18D-09 BMatP= 2.81D-08
 IDIUse=1 WtCom= 1.00D+00 WtEn= 0.00D+00
 Coeff-Com: -0.102D-03 0.408D-03 0.326D-02-0.138D-02-0.115D+00 0.168D+00
 Coeff-Com:  0.945D+00
 Coeff:     -0.102D-03 0.408D-03 0.326D-02-0.138D-02-0.115D+00 0.168D+00
 Coeff:      0.945D+00
 Gap=     0.669 Goal=   None    Shift=    0.000
 RMSDP=1.52D-06 MaxDP=2.16D-05 DE=-3.90D-08 OVMax= 2.95D-05

 Cycle   8  Pass 1  IDiag  1:
 E= -166.652316863927     Delta-E=       -0.000000004149 Rises=F Damp=F
 DIIS: error= 1.34D-06 at cycle   8 NSaved=   8.
 NSaved= 8 IEnMin= 8 EnMin= -166.652316863927     IErMin= 8 ErrMin= 1.34D-06
 ErrMax= 1.34D-06  0.00D+00 EMaxC= 1.00D-01 BMatC= 8.59D-11 BMatP= 3.18D-09
 IDIUse=1 WtCom= 1.00D+00 WtEn= 0.00D+00
 Coeff-Com:  0.398D-04-0.208D-03-0.153D-02 0.330D-02 0.376D-01-0.941D-01
 Coeff-Com: -0.331D+00 0.139D+01
 Coeff:      0.398D-04-0.208D-03-0.153D-02 0.330D-02 0.376D-01-0.941D-01
 Coeff:     -0.331D+00 0.139D+01
 Gap=     0.668 Goal=   None    Shift=    0.000
 RMSDP=2.87D-07 MaxDP=3.69D-06 DE=-4.15D-09 OVMax= 5.55D-06

 Cycle   9  Pass 1  IDiag  1:
 E= -166.652316864108     Delta-E=       -0.000000000181 Rises=F Damp=F
 DIIS: error= 2.10D-07 at cycle   9 NSaved=   9.
 NSaved= 9 IEnMin= 9 EnMin= -166.652316864108     IErMin= 9 ErrMin= 2.10D-07
 ErrMax= 2.10D-07  0.00D+00 EMaxC= 1.00D-01 BMatC= 1.76D-12 BMatP= 8.59D-11
 IDIUse=1 WtCom= 1.00D+00 WtEn= 0.00D+00
 Coeff-Com: -0.808D-05 0.474D-04 0.343D-03-0.104D-02-0.631D-02 0.209D-01
 Coeff-Com:  0.609D-01-0.373D+00 0.130D+01
 Coeff:     -0.808D-05 0.474D-04 0.343D-03-0.104D-02-0.631D-02 0.209D-01
 Coeff:      0.609D-01-0.373D+00 0.130D+01
 Gap=     0.668 Goal=   None    Shift=    0.000
 RMSDP=4.53D-08 MaxDP=4.01D-07 DE=-1.81D-10 OVMax= 9.96D-07

 Cycle  10  Pass 1  IDiag  1:
 E= -166.652316864111     Delta-E=       -0.000000000004 Rises=F Damp=F
 DIIS: error= 2.12D-08 at cycle  10 NSaved=  10.
 NSaved=10 IEnMin=10 EnMin= -166.652316864111     IErMin=10 ErrMin= 2.12D-08
 ErrMax= 2.12D-08  0.00D+00 EMaxC= 1.00D-01 BMatC= 4.15D-14 BMatP= 1.76D-12
 IDIUse=1 WtCom= 1.00D+00 WtEn= 0.00D+00
 Coeff-Com:  0.118D-05-0.758D-05-0.542D-04 0.203D-03 0.739D-03-0.333D-02
 Coeff-Com: -0.800D-02 0.680D-01-0.377D+00 0.132D+01
 Coeff:      0.118D-05-0.758D-05-0.542D-04 0.203D-03 0.739D-03-0.333D-02
 Coeff:     -0.800D-02 0.680D-01-0.377D+00 0.132D+01
 Gap=     0.668 Goal=   None    Shift=    0.000
 RMSDP=1.07D-08 MaxDP=1.05D-07 DE=-3.98D-12 OVMax= 2.03D-07

 Cycle  11  Pass 1  IDiag  1:
 E= -166.652316864112     Delta-E=       -0.000000000000 Rises=F Damp=F
 DIIS: error= 3.41D-09 at cycle  11 NSaved=  11.
 NSaved=11 IEnMin=11 EnMin= -166.652316864112     IErMin=11 ErrMin= 3.41D-09
 ErrMax= 3.41D-09  0.00D+00 EMaxC= 1.00D-01 BMatC= 8.35D-16 BMatP= 4.15D-14
 IDIUse=1 WtCom= 1.00D+00 WtEn= 0.00D+00
 Coeff-Com:  0.148D-06-0.783D-06-0.562D-05 0.108D-04 0.143D-03-0.342D-03
 Coeff-Com: -0.122D-02 0.503D-02-0.723D-02-0.981D-01 0.110D+01
 Coeff:      0.148D-06-0.783D-06-0.562D-05 0.108D-04 0.143D-03-0.342D-03
 Coeff:     -0.122D-02 0.503D-02-0.723D-02-0.981D-01 0.110D+01
 Gap=     0.668 Goal=   None    Shift=    0.000
 RMSDP=1.29D-09 MaxDP=1.52D-08 DE=-4.26D-13 OVMax= 2.12D-08

 SCF Done:  E(RHF) =  -166.652316864     A.U. after   11 cycles
            NFock= 11  Conv=0.13D-08     -V/T= 2.0980
 KE= 1.517785201306D+02 PE=-4.195381985101D+02 EE= 8.662494831529D+01
 Leave Link  502 at Fri May 15 22:36:17 2020, MaxMem=   134217728 cpu:               0.6 elap:               0.2
 (Enter /home/soft/g16/l601.exe)
 Copying SCF densities to generalized density rwf, IOpCl= 0 IROHF=0.

 **********************************************************************

            Population analysis using the SCF density.

 **********************************************************************

 Alpha  occ. eigenvalues --  -20.58246 -20.51222  -1.36420  -1.29401  -0.72546
 Alpha  occ. eigenvalues --   -0.65651  -0.60376  -0.53560  -0.52458  -0.45608
 Alpha virt. eigenvalues --    0.21242   0.29471   0.31051   0.38854   0.98544
 Alpha virt. eigenvalues --    1.05574   1.07355   1.13839   1.14576   1.14987
 Alpha virt. eigenvalues --    1.20465   1.21788   1.27187   1.34012   1.57701
 Alpha virt. eigenvalues --    1.65056   1.78236   1.80130   1.85142   1.87033
 Alpha virt. eigenvalues --    1.89647   1.96516   2.56240   2.56930   2.63793
 Alpha virt. eigenvalues --    2.63980   2.78713   2.85856   2.95916   2.97340
 Alpha virt. eigenvalues --    3.03084   3.04336   3.35741   3.43043   3.72897
 Alpha virt. eigenvalues --    3.80313   3.90487   3.97593
          Condensed to atoms (all electrons):
               1          2          3          4          5          6
     1  O    8.119354  -0.000000   0.316584   0.317894   0.000001   0.000000
     2  O   -0.000000   8.145106   0.000008   0.000001   0.320052   0.319436
     3  H    0.316584   0.000008   0.320702  -0.024253   0.000000   0.000002
     4  H    0.317894   0.000001  -0.024253   0.339501   0.000000  -0.000000
     5  H    0.000001   0.320052   0.000000   0.000000   0.311360  -0.023860
     6  H    0.000000   0.319436   0.000002  -0.000000  -0.023860   0.312247
 Mulliken charges:
               1
     1  O   -0.753833
     2  O   -0.784603
     3  H    0.386958
     4  H    0.366856
     5  H    0.392447
     6  H    0.392175
 Sum of Mulliken charges =  -0.00000
 Mulliken charges with hydrogens summed into heavy atoms:
               1
     1  O   -0.000019
     2  O    0.000019
 Electronic spatial extent (au):  <R**2>=          30671.2163
 Charge=             -0.0000 electrons
 Dipole moment (field-independent basis, Debye):
    X=             -1.1321    Y=              1.2203    Z=              0.2178  Tot=              1.6788
 Quadrupole moment (field-independent basis, Debye-Ang):
   XX=            -33.4419   YY=            -54.4988   ZZ=            -14.7561
   XY=             16.4341   XZ=             16.5517   YZ=            -21.5152
 Traceless Quadrupole moment (field-independent basis, Debye-Ang):
   XX=              0.7903   YY=            -20.2665   ZZ=             19.4762
   XY=             16.4341   XZ=             16.5517   YZ=            -21.5152
 Octapole moment (field-independent basis, Debye-Ang**2):
  XXX=           -660.5175  YYY=           1455.4843  ZZZ=            473.2680  XYY=           -484.7268
  XXY=            336.9348  XXZ=            454.8801  XZZ=           -329.8827  YZZ=            469.3206
  YYZ=            821.2394  XYZ=           -260.8043
 Hexadecapole moment (field-independent basis, Debye-Ang**3):
 XXXX=         -10896.9705 YYYY=         -31845.4435 ZZZZ=         -11580.0581 XXXY=           6344.3476
 XXXZ=           8858.5862 YYYX=          12441.8379 YYYZ=         -20883.4217 ZZZX=           7044.9239
 ZZZY=         -10161.2676 XXYY=          -5888.3680 XXZZ=          -7090.6187 YYZZ=         -13693.0048
 XXYZ=          -4812.0821 YYXZ=           7253.1226 ZZXY=           5158.1525
 N-N= 1.448241320006D+01 E-N=-4.195381985748D+02  KE= 1.517785201306D+02
 No NMR shielding tensors so no spin-rotation constants.
 Leave Link  601 at Fri May 15 22:36:17 2020, MaxMem=   134217728 cpu:               0.5 elap:               0.1
 (Enter /home/soft/g16/l607.exe)
 ******************************Gaussian NBO Version 3.1******************************
             N A T U R A L   A T O M I C   O R B I T A L   A N D
          N A T U R A L   B O N D   O R B I T A L   A N A L Y S I S
 ******************************Gaussian NBO Version 3.1******************************
       /RESON  / : Allow strongly delocalized NBO set

 Analyzing the SCF density

 Job title: Atom number=6                                                   

 Storage needed:      7158 in NPA ( 134217512 available)
 GSVD:  LWork=         960 too small for GESVD, short by        1512 words or        1512 for optimal perf.


 NATURAL POPULATIONS:  Natural atomic orbital occupancies 
                                                          
   NAO  Atom  No  lang   Type(AO)    Occupancy      Energy
 ----------------------------------------------------------
     1    O    1  S      Cor( 1S)     1.99987     -20.42038
     2    O    1  S      Val( 2S)     1.75798      -1.18520
     3    O    1  S      Ryd( 3S)     0.00106       1.65395
     4    O    1  px     Val( 2p)     1.61055      -0.39488
     5    O    1  px     Ryd( 3p)     0.00162       1.23642
     6    O    1  py     Val( 2p)     1.82982      -0.47360
     7    O    1  py     Ryd( 3p)     0.00063       1.16294
     8    O    1  pz     Val( 2p)     1.81897      -0.46411
     9    O    1  pz     Ryd( 3p)     0.00096       1.18199
    10    O    1  dxy    Ryd( 3d)     0.00110       2.50393
    11    O    1  dxz    Ryd( 3d)     0.00047       2.42808
    12    O    1  dyz    Ryd( 3d)     0.00168       2.63698
    13    O    1  dx2y2  Ryd( 3d)     0.00139       2.67996
    14    O    1  dz2    Ryd( 3d)     0.00077       2.40148

    15    O    2  S      Cor( 1S)     1.99987     -20.35023
    16    O    2  S      Val( 2S)     1.75806      -1.11876
    17    O    2  S      Ryd( 3S)     0.00096       1.72983
    18    O    2  px     Val( 2p)     1.74264      -0.38202
    19    O    2  px     Ryd( 3p)     0.00066       1.24011
    20    O    2  py     Val( 2p)     1.96815      -0.44291
    21    O    2  py     Ryd( 3p)     0.00050       1.21294
    22    O    2  pz     Val( 2p)     1.57355      -0.31348
    23    O    2  pz     Ryd( 3p)     0.00170       1.32635
    24    O    2  dxy    Ryd( 3d)     0.00127       2.30541
    25    O    2  dxz    Ryd( 3d)     0.00119       2.88313
    26    O    2  dyz    Ryd( 3d)     0.00041       2.45602
    27    O    2  dx2y2  Ryd( 3d)     0.00150       2.56919
    28    O    2  dz2    Ryd( 3d)     0.00060       2.77192

    29    H    3  S      Val( 1S)     0.47519       0.35744
    30    H    3  S      Ryd( 2S)     0.00066       0.71138
    31    H    3  px     Ryd( 2p)     0.00058       2.71857
    32    H    3  py     Ryd( 2p)     0.00115       2.94790
    33    H    3  pz     Ryd( 2p)     0.00121       2.94784

    34    H    4  S      Val( 1S)     0.49056       0.32966
    35    H    4  S      Ryd( 2S)     0.00081       0.69913
    36    H    4  px     Ryd( 2p)     0.00156       3.30886
    37    H    4  py     Ryd( 2p)     0.00075       2.65171
    38    H    4  pz     Ryd( 2p)     0.00069       2.62080

    39    H    5  S      Val( 1S)     0.47046       0.43132
    40    H    5  S      Ryd( 2S)     0.00059       0.77682
    41    H    5  px     Ryd( 2p)     0.00060       2.75856
    42    H    5  py     Ryd( 2p)     0.00087       2.71392
    43    H    5  pz     Ryd( 2p)     0.00139       3.35063

    44    H    6  S      Val( 1S)     0.47143       0.43073
    45    H    6  S      Ryd( 2S)     0.00064       0.77781
    46    H    6  px     Ryd( 2p)     0.00152       3.25277
    47    H    6  py     Ryd( 2p)     0.00079       2.65359
    48    H    6  pz     Ryd( 2p)     0.00062       2.91728


 Summary of Natural Population Analysis:                  
                                                          
                                       Natural Population 
                Natural  -----------------------------------------------
    Atom  No    Charge         Core      Valence    Rydberg      Total
 -----------------------------------------------------------------------
      O    1   -1.02685      1.99987     7.01731    0.00967     9.02685
      O    2   -1.05107      1.99987     7.04241    0.00880     9.05107
      H    3    0.52121      0.00000     0.47519    0.00360     0.47879
      H    4    0.50563      0.00000     0.49056    0.00381     0.49437
      H    5    0.52607      0.00000     0.47046    0.00346     0.47393
      H    6    0.52501      0.00000     0.47143    0.00356     0.47499
 =======================================================================
   * Total *   -0.00000      3.99973    15.96736    0.03291    20.00000

                                 Natural Population      
 --------------------------------------------------------
   Core                       3.99973 ( 99.9933% of   4)
   Valence                   15.96736 ( 99.7960% of  16)
   Natural Minimal Basis     19.96709 ( 99.8355% of  20)
   Natural Rydberg Basis      0.03291 (  0.1645% of  20)
 --------------------------------------------------------

    Atom  No          Natural Electron Configuration
 ----------------------------------------------------------------------------
      O    1      [core]2S( 1.76)2p( 5.26)3d( 0.01)
      O    2      [core]2S( 1.76)2p( 5.28)
      H    3            1S( 0.48)
      H    4            1S( 0.49)
      H    5            1S( 0.47)
      H    6            1S( 0.47)


 NBO analysis skipped by request.
 Leave Link  607 at Fri May 15 22:36:17 2020, MaxMem=   134217728 cpu:               0.8 elap:               0.2
 (Enter /home/soft/g16/l9999.exe)

 Test job not archived.
 1\1\GINC-MASTER\SP\RHF\6-31G(d,p)\H4O2\LIWEI01\15-May-2020\0\\#p hf/6-
 31g** 5d 7f pop=npa charge nosymm\\Atom number=6\\0,1\O,0,9.739714,-14
 .560219,-13.084136\O,0,10.084912,-9.602997,-13.69441\H,0,9.436683,-13.
 920876,-12.43943\H,0,10.652707,-14.322974,-13.246584\H,0,9.837963,-9.8
 77914,-14.577398\H,0,9.267108,-9.62837,-13.197635\\Version=ES64L-G16Re
 vA.03\HF=-166.6523169\RMSD=1.289e-09\Dipole=-0.4454043,0.4801169,0.085
 697\Quadrupole=0.5875972,-15.0676465,14.4800493,12.2183673,12.3057683,
 -15.9960076\PG=C01 [X(H4O2)]\\@


 THE SCIENTIFIC THEORIST IS NOT TO BE ENVIED. FOR NATURE, OR MORE
 PRECISELY EXPERIMENT, IS AN INEXORABLE AND NOT VERY FRIENDLY JUDGE OF HIS
 WORK.  IT NEVER SAYS "YES" TO A THEORY. IN THE MOST FAVORABLE CASES
 IT SAYS "MAYBE", AND IN THE GREAT MAJORITY OF CASES SIMPLY "NO"...
 PROBABLY EVERY THEORY WILL SOME DAY EXPERIENCE ITS "NO" - MOST
 THEORIES, SOON AFTER CONCEPTION.  -- A.EINSTEIN, NOV 11, 1922.
 Job cpu time:       0 days  0 hours  0 minutes  4.9 seconds.
 Elapsed time:       0 days  0 hours  0 minutes  1.4 seconds.
 File lengths (MBytes):  RWF=     72 Int=      0 D2E=      0 Chk=      8 Scr=      8
 Normal termination of Gaussian 16 at Fri May 15 22:36:17 2020.
