#INFO: **** input file is /home/liwei01/wsr/dftpart/test_2body/w32/gfea_c8.py ****
from dftpart import gfea3
from pyscf import lib

par = 8
with lib.with_omp_threads(par):
    fr0 = gfea3.GFEA()
    fr0.inputstyle = 'frg'
    fr0.method = ['hf', '6-31gss','charge']
    fr0.gjfname = 'w32'
    fr0.output = 'w32'
    fr0.verbose = 9
    fr0.showinter = True
    #fr0.do_deriv = True
    fr0.kernel()

#INFO: ******************** input file end ********************


System: uname_result(system='Linux', node='master', release='3.10.0-693.el7.x86_64', version='#1 SMP Tue Aug 22 21:09:27 UTC 2017', machine='x86_64', processor='x86_64')  Threads 8
Python 3.7.6 (default, Jan  8 2020, 19:59:22) 
[GCC 7.3.0]
numpy 1.18.1  scipy 1.4.1
Date: Tue Jun 16 20:56:48 2020
PySCF version 1.6.1
PySCF path  /home/liwei01/zcheng/pyscf/pyscf
GIT HEAD      ref: refs/heads/master
GIT master branch  3adc7fd25839fe674469a52b764c3661e32d7318

[CONFIG] DEBUG = False
[CONFIG] MAX_MEMORY = 4000
[CONFIG] TMPDIR = .
[CONFIG] UNIT = angstrom
[CONFIG] VERBOSE = 3
[CONFIG] conf_file = None
[INPUT] verbose = 9
[INPUT] max_memory = 4000 
[INPUT] num. atoms = 24
[INPUT] num. electrons = 80
[INPUT] charge = 0
[INPUT] spin (= nelec alpha-beta = 2S) = 0
[INPUT] symmetry False subgroup None
[INPUT] Mole.unit = angstrom
[INPUT]  1 O      8.392325000000 -11.812941000000 -11.200483000000 AA   15.859195798340 -22.323223215646 -21.165845332847 Bohr
[INPUT]  2 O      7.250284000000  -9.859627000000 -13.103456000000 AA   13.701051085316 -18.631994720367 -24.761943125289 Bohr
[INPUT]  3 O     10.084912000000  -9.602997000000 -13.694410000000 AA   19.057721670340 -18.147034305020 -25.878684337505 Bohr
[INPUT]  4 O      9.473772000000  -7.997188000000 -10.918041000000 AA   17.902834446573 -15.112495086658 -20.632107306772 Bohr
[INPUT]  5 O      8.451586000000 -10.635579000000 -15.685931000000 AA   15.971182858208 -20.098331486176 -29.642113598825 Bohr
[INPUT]  6 O     10.675204000000 -11.925165000000 -15.819193000000 AA   20.173211883861 -22.535295840249 -29.893942281637 Bohr
[INPUT]  7 O     12.890023000000  -9.690601000000 -13.751128000000 AA   24.358613209345 -18.312581872436 -25.985865823838 Bohr
[INPUT]  8 O      8.538876000000  -6.261102000000 -12.948352000000 AA   16.136137051622 -11.831768017967 -24.468839044464 Bohr
[INPUT]  9 H      8.175276000000 -12.537815000000 -10.614239000000 AA   15.449032632730 -23.693036550464 -20.058004730677 Bohr
[INPUT] 10 H      9.252154000000 -11.514100000000 -10.904475000000 AA   17.484037122299 -21.758495570855 -20.606471282167 Bohr
[INPUT] 11 H      7.120660000000 -10.221473000000 -13.980096000000 AA   13.456097226145 -19.315784559636 -26.418552635128 Bohr
[INPUT] 12 H      7.341484000000 -10.626744000000 -12.538261000000 AA   13.873394107876 -20.081635755865 -23.693879368315 Bohr
[INPUT] 13 H      9.837963000000  -9.877914000000 -14.577398000000 AA   18.591055693604 -18.666552142007 -27.547289828782 Bohr
[INPUT] 14 H      9.267108000000  -9.628370000000 -13.197635000000 AA   17.512296086766 -18.194982325979 -24.939915641974 Bohr
[INPUT] 15 H      9.997520000000  -8.795627000000 -10.851588000000 AA   18.892574724862 -16.621326123830 -20.506529336617 Bohr
[INPUT] 16 H      9.623390000000  -7.542356000000 -10.089201000000 AA   18.185571489878 -14.252987173970 -19.065826705688 Bohr
[INPUT] 17 H      8.125035000000 -10.406856000000 -16.556152000000 AA   15.354090902505 -19.666107657787 -31.286592956670 Bohr
[INPUT] 18 H      9.262189000000 -11.116608000000 -15.852568000000 AA   17.503000523959 -21.007344554149 -29.957011891044 Bohr
[INPUT] 19 H     11.145373000000 -12.259719000000 -15.055487000000 AA   21.061702526122 -23.167511274127 -28.450747101950 Bohr
[INPUT] 20 H     10.769363000000 -12.612255000000 -16.478945000000 AA   20.351146606024 -23.833707763176 -31.140692871771 Bohr
[INPUT] 21 H     13.488436000000  -9.845906000000 -13.020365000000 AA   25.489449888724 -18.606065788212 -24.604923891873 Bohr
[INPUT] 22 H     12.017146000000  -9.742740000000 -13.361769000000 AA   22.709114738913 -18.411110302845 -25.250083949704 Bohr
[INPUT] 23 H      8.880032000000  -6.849136000000 -12.274511000000 AA   16.780828457374 -12.942991229899 -23.195464102961 Bohr
[INPUT] 24 H      9.276723000000  -6.122958000000 -13.542264000000 AA   17.530465803454 -11.570713692215 -25.591170066557 Bohr
[INPUT] ---------------- BASIS SET ---------------- 
[INPUT] l, kappa, [nprim/nctr], expnt,             c_1 c_2 ...
[INPUT] H
[INPUT] 0    0    [3    /1   ]  18.731137         0.0334946
                                2.8253937         0.23472695
                                0.6401217         0.81375733
[INPUT] 0    0    [1    /1   ]  0.1612778            1
[INPUT] 1    0    [1    /1   ]  1.1                  1
[INPUT] O
[INPUT] 0    0    [6    /1   ]  5484.6717         0.0018311
                                825.23495         0.0139501
                                188.04696         0.0684451
                                52.9645           0.2327143
                                16.89757          0.470193
                                5.7996353         0.3585209
[INPUT] 0    0    [3    /1   ]  15.539616         -0.1107775
                                3.5999336         -0.1480263
                                1.0137618         1.130767
[INPUT] 0    0    [1    /1   ]  0.2700058            1
[INPUT] 1    0    [3    /1   ]  15.539616         0.0708743
                                3.5999336         0.3397528
                                1.0137618         0.7271586
[INPUT] 1    0    [1    /1   ]  0.2700058            1
[INPUT] 2    0    [1    /1   ]  0.8                  1

nuclear repulsion = 447.373086572499
number of shells = 96
number of NR pGTOs = 328
number of NR cGTOs = 192
basis = 6-31gss
ecp = {}
bas 0, expnt(s) = [5484.6717     825.23495    188.04696     52.9645      16.89757
    5.7996353]
bas 1, expnt(s) = [15.539616   3.5999336  1.0137618]
bas 2, expnt(s) = [0.2700058]
bas 3, expnt(s) = [15.539616   3.5999336  1.0137618]
bas 4, expnt(s) = [0.2700058]
bas 5, expnt(s) = [0.8]
bas 6, expnt(s) = [5484.6717     825.23495    188.04696     52.9645      16.89757
    5.7996353]
bas 7, expnt(s) = [15.539616   3.5999336  1.0137618]
bas 8, expnt(s) = [0.2700058]
bas 9, expnt(s) = [15.539616   3.5999336  1.0137618]
bas 10, expnt(s) = [0.2700058]
bas 11, expnt(s) = [0.8]
bas 12, expnt(s) = [5484.6717     825.23495    188.04696     52.9645      16.89757
    5.7996353]
bas 13, expnt(s) = [15.539616   3.5999336  1.0137618]
bas 14, expnt(s) = [0.2700058]
bas 15, expnt(s) = [15.539616   3.5999336  1.0137618]
bas 16, expnt(s) = [0.2700058]
bas 17, expnt(s) = [0.8]
bas 18, expnt(s) = [5484.6717     825.23495    188.04696     52.9645      16.89757
    5.7996353]
bas 19, expnt(s) = [15.539616   3.5999336  1.0137618]
bas 20, expnt(s) = [0.2700058]
bas 21, expnt(s) = [15.539616   3.5999336  1.0137618]
bas 22, expnt(s) = [0.2700058]
bas 23, expnt(s) = [0.8]
bas 24, expnt(s) = [5484.6717     825.23495    188.04696     52.9645      16.89757
    5.7996353]
bas 25, expnt(s) = [15.539616   3.5999336  1.0137618]
bas 26, expnt(s) = [0.2700058]
bas 27, expnt(s) = [15.539616   3.5999336  1.0137618]
bas 28, expnt(s) = [0.2700058]
bas 29, expnt(s) = [0.8]
bas 30, expnt(s) = [5484.6717     825.23495    188.04696     52.9645      16.89757
    5.7996353]
bas 31, expnt(s) = [15.539616   3.5999336  1.0137618]
bas 32, expnt(s) = [0.2700058]
bas 33, expnt(s) = [15.539616   3.5999336  1.0137618]
bas 34, expnt(s) = [0.2700058]
bas 35, expnt(s) = [0.8]
bas 36, expnt(s) = [5484.6717     825.23495    188.04696     52.9645      16.89757
    5.7996353]
bas 37, expnt(s) = [15.539616   3.5999336  1.0137618]
bas 38, expnt(s) = [0.2700058]
bas 39, expnt(s) = [15.539616   3.5999336  1.0137618]
bas 40, expnt(s) = [0.2700058]
bas 41, expnt(s) = [0.8]
bas 42, expnt(s) = [5484.6717     825.23495    188.04696     52.9645      16.89757
    5.7996353]
bas 43, expnt(s) = [15.539616   3.5999336  1.0137618]
bas 44, expnt(s) = [0.2700058]
bas 45, expnt(s) = [15.539616   3.5999336  1.0137618]
bas 46, expnt(s) = [0.2700058]
bas 47, expnt(s) = [0.8]
bas 48, expnt(s) = [18.731137   2.8253937  0.6401217]
bas 49, expnt(s) = [0.1612778]
bas 50, expnt(s) = [1.1]
bas 51, expnt(s) = [18.731137   2.8253937  0.6401217]
bas 52, expnt(s) = [0.1612778]
bas 53, expnt(s) = [1.1]
bas 54, expnt(s) = [18.731137   2.8253937  0.6401217]
bas 55, expnt(s) = [0.1612778]
bas 56, expnt(s) = [1.1]
bas 57, expnt(s) = [18.731137   2.8253937  0.6401217]
bas 58, expnt(s) = [0.1612778]
bas 59, expnt(s) = [1.1]
bas 60, expnt(s) = [18.731137   2.8253937  0.6401217]
bas 61, expnt(s) = [0.1612778]
bas 62, expnt(s) = [1.1]
bas 63, expnt(s) = [18.731137   2.8253937  0.6401217]
bas 64, expnt(s) = [0.1612778]
bas 65, expnt(s) = [1.1]
bas 66, expnt(s) = [18.731137   2.8253937  0.6401217]
bas 67, expnt(s) = [0.1612778]
bas 68, expnt(s) = [1.1]
bas 69, expnt(s) = [18.731137   2.8253937  0.6401217]
bas 70, expnt(s) = [0.1612778]
bas 71, expnt(s) = [1.1]
bas 72, expnt(s) = [18.731137   2.8253937  0.6401217]
bas 73, expnt(s) = [0.1612778]
bas 74, expnt(s) = [1.1]
bas 75, expnt(s) = [18.731137   2.8253937  0.6401217]
bas 76, expnt(s) = [0.1612778]
bas 77, expnt(s) = [1.1]
bas 78, expnt(s) = [18.731137   2.8253937  0.6401217]
bas 79, expnt(s) = [0.1612778]
bas 80, expnt(s) = [1.1]
bas 81, expnt(s) = [18.731137   2.8253937  0.6401217]
bas 82, expnt(s) = [0.1612778]
bas 83, expnt(s) = [1.1]
bas 84, expnt(s) = [18.731137   2.8253937  0.6401217]
bas 85, expnt(s) = [0.1612778]
bas 86, expnt(s) = [1.1]
bas 87, expnt(s) = [18.731137   2.8253937  0.6401217]
bas 88, expnt(s) = [0.1612778]
bas 89, expnt(s) = [1.1]
bas 90, expnt(s) = [18.731137   2.8253937  0.6401217]
bas 91, expnt(s) = [0.1612778]
bas 92, expnt(s) = [1.1]
bas 93, expnt(s) = [18.731137   2.8253937  0.6401217]
bas 94, expnt(s) = [0.1612778]
bas 95, expnt(s) = [1.1]
CPU time:       562.09
arg.atm = [[  8  20   1  23   0   0]
 [  8  24   1  27   0   0]
 [  8  28   1  31   0   0]
 [  8  32   1  35   0   0]
 [  8  36   1  39   0   0]
 [  8  40   1  43   0   0]
 [  8  44   1  47   0   0]
 [  8  48   1  51   0   0]
 [  1  52   1  55   0   0]
 [  1  56   1  59   0   0]
 [  1  60   1  63   0   0]
 [  1  64   1  67   0   0]
 [  1  68   1  71   0   0]
 [  1  72   1  75   0   0]
 [  1  76   1  79   0   0]
 [  1  80   1  83   0   0]
 [  1  84   1  87   0   0]
 [  1  88   1  91   0   0]
 [  1  92   1  95   0   0]
 [  1  96   1  99   0   0]
 [  1 100   1 103   0   0]
 [  1 104   1 107   0   0]
 [  1 108   1 111   0   0]
 [  1 112   1 115   0   0]]
arg.bas = [[  0   0   6   1   0 126 132   0]
 [  0   0   3   1   0 138 141   0]
 [  0   0   1   1   0 144 145   0]
 [  0   1   3   1   0 146 149   0]
 [  0   1   1   1   0 152 153   0]
 [  0   2   1   1   0 154 155   0]
 [  1   0   6   1   0 126 132   0]
 [  1   0   3   1   0 138 141   0]
 [  1   0   1   1   0 144 145   0]
 [  1   1   3   1   0 146 149   0]
 [  1   1   1   1   0 152 153   0]
 [  1   2   1   1   0 154 155   0]
 [  2   0   6   1   0 126 132   0]
 [  2   0   3   1   0 138 141   0]
 [  2   0   1   1   0 144 145   0]
 [  2   1   3   1   0 146 149   0]
 [  2   1   1   1   0 152 153   0]
 [  2   2   1   1   0 154 155   0]
 [  3   0   6   1   0 126 132   0]
 [  3   0   3   1   0 138 141   0]
 [  3   0   1   1   0 144 145   0]
 [  3   1   3   1   0 146 149   0]
 [  3   1   1   1   0 152 153   0]
 [  3   2   1   1   0 154 155   0]
 [  4   0   6   1   0 126 132   0]
 [  4   0   3   1   0 138 141   0]
 [  4   0   1   1   0 144 145   0]
 [  4   1   3   1   0 146 149   0]
 [  4   1   1   1   0 152 153   0]
 [  4   2   1   1   0 154 155   0]
 [  5   0   6   1   0 126 132   0]
 [  5   0   3   1   0 138 141   0]
 [  5   0   1   1   0 144 145   0]
 [  5   1   3   1   0 146 149   0]
 [  5   1   1   1   0 152 153   0]
 [  5   2   1   1   0 154 155   0]
 [  6   0   6   1   0 126 132   0]
 [  6   0   3   1   0 138 141   0]
 [  6   0   1   1   0 144 145   0]
 [  6   1   3   1   0 146 149   0]
 [  6   1   1   1   0 152 153   0]
 [  6   2   1   1   0 154 155   0]
 [  7   0   6   1   0 126 132   0]
 [  7   0   3   1   0 138 141   0]
 [  7   0   1   1   0 144 145   0]
 [  7   1   3   1   0 146 149   0]
 [  7   1   1   1   0 152 153   0]
 [  7   2   1   1   0 154 155   0]
 [  8   0   3   1   0 116 119   0]
 [  8   0   1   1   0 122 123   0]
 [  8   1   1   1   0 124 125   0]
 [  9   0   3   1   0 116 119   0]
 [  9   0   1   1   0 122 123   0]
 [  9   1   1   1   0 124 125   0]
 [ 10   0   3   1   0 116 119   0]
 [ 10   0   1   1   0 122 123   0]
 [ 10   1   1   1   0 124 125   0]
 [ 11   0   3   1   0 116 119   0]
 [ 11   0   1   1   0 122 123   0]
 [ 11   1   1   1   0 124 125   0]
 [ 12   0   3   1   0 116 119   0]
 [ 12   0   1   1   0 122 123   0]
 [ 12   1   1   1   0 124 125   0]
 [ 13   0   3   1   0 116 119   0]
 [ 13   0   1   1   0 122 123   0]
 [ 13   1   1   1   0 124 125   0]
 [ 14   0   3   1   0 116 119   0]
 [ 14   0   1   1   0 122 123   0]
 [ 14   1   1   1   0 124 125   0]
 [ 15   0   3   1   0 116 119   0]
 [ 15   0   1   1   0 122 123   0]
 [ 15   1   1   1   0 124 125   0]
 [ 16   0   3   1   0 116 119   0]
 [ 16   0   1   1   0 122 123   0]
 [ 16   1   1   1   0 124 125   0]
 [ 17   0   3   1   0 116 119   0]
 [ 17   0   1   1   0 122 123   0]
 [ 17   1   1   1   0 124 125   0]
 [ 18   0   3   1   0 116 119   0]
 [ 18   0   1   1   0 122 123   0]
 [ 18   1   1   1   0 124 125   0]
 [ 19   0   3   1   0 116 119   0]
 [ 19   0   1   1   0 122 123   0]
 [ 19   1   1   1   0 124 125   0]
 [ 20   0   3   1   0 116 119   0]
 [ 20   0   1   1   0 122 123   0]
 [ 20   1   1   1   0 124 125   0]
 [ 21   0   3   1   0 116 119   0]
 [ 21   0   1   1   0 122 123   0]
 [ 21   1   1   1   0 124 125   0]
 [ 22   0   3   1   0 116 119   0]
 [ 22   0   1   1   0 122 123   0]
 [ 22   1   1   1   0 124 125   0]
 [ 23   0   3   1   0 116 119   0]
 [ 23   0   1   1   0 122 123   0]
 [ 23   1   1   1   0 124 125   0]]
arg.env = [ 1.37036000e+02  0.00000000e+00  0.00000000e+00  0.00000000e+00
  0.00000000e+00  0.00000000e+00  0.00000000e+00  0.00000000e+00
  0.00000000e+00  0.00000000e+00  0.00000000e+00  0.00000000e+00
  0.00000000e+00  0.00000000e+00  0.00000000e+00  0.00000000e+00
  0.00000000e+00  0.00000000e+00  0.00000000e+00  0.00000000e+00
  1.58591958e+01 -2.23232232e+01 -2.11658453e+01  0.00000000e+00
  1.37010511e+01 -1.86319947e+01 -2.47619431e+01  0.00000000e+00
  1.90577217e+01 -1.81470343e+01 -2.58786843e+01  0.00000000e+00
  1.79028344e+01 -1.51124951e+01 -2.06321073e+01  0.00000000e+00
  1.59711829e+01 -2.00983315e+01 -2.96421136e+01  0.00000000e+00
  2.01732119e+01 -2.25352958e+01 -2.98939423e+01  0.00000000e+00
  2.43586132e+01 -1.83125819e+01 -2.59858658e+01  0.00000000e+00
  1.61361371e+01 -1.18317680e+01 -2.44688390e+01  0.00000000e+00
  1.54490326e+01 -2.36930366e+01 -2.00580047e+01  0.00000000e+00
  1.74840371e+01 -2.17584956e+01 -2.06064713e+01  0.00000000e+00
  1.34560972e+01 -1.93157846e+01 -2.64185526e+01  0.00000000e+00
  1.38733941e+01 -2.00816358e+01 -2.36938794e+01  0.00000000e+00
  1.85910557e+01 -1.86665521e+01 -2.75472898e+01  0.00000000e+00
  1.75122961e+01 -1.81949823e+01 -2.49399156e+01  0.00000000e+00
  1.88925747e+01 -1.66213261e+01 -2.05065293e+01  0.00000000e+00
  1.81855715e+01 -1.42529872e+01 -1.90658267e+01  0.00000000e+00
  1.53540909e+01 -1.96661077e+01 -3.12865930e+01  0.00000000e+00
  1.75030005e+01 -2.10073446e+01 -2.99570119e+01  0.00000000e+00
  2.10617025e+01 -2.31675113e+01 -2.84507471e+01  0.00000000e+00
  2.03511466e+01 -2.38337078e+01 -3.11406929e+01  0.00000000e+00
  2.54894499e+01 -1.86060658e+01 -2.46049239e+01  0.00000000e+00
  2.27091147e+01 -1.84111103e+01 -2.52500839e+01  0.00000000e+00
  1.67808285e+01 -1.29429912e+01 -2.31954641e+01  0.00000000e+00
  1.75304658e+01 -1.15707137e+01 -2.55911701e+01  0.00000000e+00
  1.87311370e+01  2.82539370e+00  6.40121700e-01  7.61926220e-01
  1.29237100e+00  1.47131900e+00  1.61277800e-01  6.42977783e-01
  1.10000000e+00  3.28643653e+00  5.48467170e+03  8.25234950e+02
  1.88046960e+02  5.29645000e+01  1.68975700e+01  5.79963530e+00
  2.94842455e+00  5.42657124e+00  8.78126489e+00  1.15432129e+01
  9.90055015e+00  3.38516599e+00  1.55396160e+01  3.59993360e+00
  1.01376180e+00 -2.19051792e+00 -9.77405528e-01  2.88629094e+00
  2.70005800e-01  9.46334873e-01  1.55396160e+01  3.59993360e+00
  1.01376180e+00  6.37930734e+00  4.91490975e+00  2.15791055e+00
  2.70005800e-01  5.67807022e-01  8.00000000e-01  1.76578110e+00]
ecpbas  = []


******** <class 'pyscf.qmmm.itrf.mm_charge.<locals>.QMMM'> ********
method = QMMM-RHF
initial guess = minao
damping factor = 0
level shift factor = 0
DIIS = <class 'pyscf.scf.diis.CDIIS'>
DIIS start cycle = 1
DIIS space = 8
SCF tol = 1e-09
SCF gradient tol = None
max. SCF cycles = 50
direct_scf = True
direct_scf_tol = 1e-13
chkfile to save SCF result = /home/liwei01/wsr/dftpart/test_2body/w32/tmp2xtu7gqt
max_memory 4000 MB (current use 326 MB)
** Add background charges for <class 'pyscf.scf.hf.RHF'> **
Charge      Location
-1.035697    [ 20.23144001 -20.50137794 -19.07019386]
0.520608    [ 21.7723038  -21.39222885 -18.74761761]
0.515624    [ 19.97024207 -19.49608333 -17.58928542]
-1.009926    [ 16.42785407 -26.58707085 -18.04142885]
0.499922    [ 15.53371882 -25.95112132 -16.60336995]
0.507893    [ 16.16245338 -28.37548309 -17.98600129]
-1.050024    [ 10.52651529 -24.11298283 -20.2839555 ]
0.521386    [  8.7734466  -24.2410798  -19.85703047]
0.506414    [ 11.30765248 -23.44237383 -18.79666545]
-1.032359    [ 13.1641969  -17.47579981 -19.41562257]
0.514165    [ 13.18112696 -18.60438393 -20.82910748]
0.518479    [ 14.52136419 -16.32434621 -19.73837456]
-1.052762    [ 13.11969196 -22.35429031 -15.81898054]
0.521035    [ 14.16458201 -22.84877684 -14.42771692]
0.525545    [ 13.80909996 -20.77345693 -16.36451423]
-1.002885    [ 18.40539199 -27.51482622 -24.72543362]
0.521542    [ 17.83274639 -26.30664305 -23.50711585]
0.49877    [ 20.13069872 -27.06649815 -25.03241585]
-0.992133    [  7.63287216 -21.21078113 -24.19682809]
0.480184    [  8.55071592 -22.76668147 -24.10379498]
0.504586    [  8.37549106 -20.32880248 -25.59058803]
-1.012936    [ 10.55365553 -29.46492154 -21.67488842]
0.504954    [  8.84108934 -29.00412127 -22.03084479]
0.525721    [ 11.34418277 -27.91794449 -21.17105153]
-0.985176    [ 16.63195772 -23.48150439 -12.27810621]
0.500614    [ 17.11266814 -22.20236011 -11.09293235]
0.508291    [ 16.89319913 -25.03868407 -11.39557387]
-0.979947    [ 19.94097588 -17.12125506 -14.67509908]
0.500341    [ 18.95312155 -17.86288753 -13.35371942]
0.493696    [ 19.00620207 -15.6543646  -15.17143564]
-0.982261    [ 16.04742575 -26.75780005 -29.6895325 ]
0.479882    [ 16.71262824 -28.42851069 -29.88488293]
0.495008    [ 16.8532352  -26.12000803 -28.20097066]
-1.011239    [ 14.66303696 -31.18986921 -25.03135193]
0.492592    [ 13.80996545 -30.6346091  -23.53606456]
0.497341    [ 16.13314373 -30.14067248 -25.13086491]
-0.999332    [ 25.43111026 -22.24828235 -18.47023794]
0.512801    [ 26.28398524 -20.77981964 -19.09325419]
0.507583    [ 26.7410892  -23.47726762 -18.25698991]
-1.016163    [ 10.56617686 -29.35403808 -16.44102735]
0.483053    [ 11.92280935 -30.36927076 -15.8079521 ]
0.523726    [ 10.34862781 -29.90290525 -18.15080431]
-0.976012    [ 10.09067452 -21.18806662 -29.24260093]
0.486289    [ 11.11173701 -19.76402949 -29.69146191]
0.496485    [ 10.37375928 -22.38512875 -30.56881072]
-0.977833    [ 24.5589393  -27.80514674 -21.18389789]
0.50587    [ 23.21796885 -28.65180829 -20.31390388]
0.463809    [ 25.76766104 -27.42438582 -19.8931866 ]
-0.989717    [  8.77070649 -15.37911655 -23.94499373]
0.487556    [  8.68859978 -13.74216775 -23.17975481]
0.496916    [ 10.53805395 -15.75730555 -24.01835668]
-0.992057    [ 16.93410036 -32.15697813 -17.52810554]
0.50918    [ 16.39069828 -32.53931319 -15.84570882]
0.510293    [ 15.6895513  -32.92540692 -18.59231236]
-1.010464    [  9.27281806 -14.9477601  -17.25327322]
0.476424    [  7.6789399  -15.16789619 -18.07972415]
0.517552    [ 10.24747455 -16.38576609 -17.75736144]
-0.991473    [  5.5836248  -24.00414405 -18.66237963]
0.501887    [  5.79022289 -25.52045085 -17.69798247]
0.510487    [  5.17491673 -22.73885336 -17.43603619]
-1.029267    [  7.95719829 -25.19119252 -14.2761212 ]
0.497876    [  9.38018663 -24.0850659  -14.1227926 ]
0.519667    [  8.66153702 -26.76190075 -14.83174226]
-1.019724    [ 21.67798379 -29.0173418  -14.20699124]
0.475311    [ 20.53074618 -29.01816194 -15.60548117]
0.514632    [ 22.50198564 -27.40961194 -14.29731259]
-0.9959    [ 24.21450458 -24.60133719 -13.9203349 ]
0.499354    [ 23.58737251 -23.46499007 -12.66043371]
0.511038    [ 23.91476757 -23.75039163 -15.48812918]
-1.001922    [ 21.40011279 -32.14724982 -20.33868764]
0.487648    [ 22.14106118 -33.75675602 -19.97480576]
0.509505    [ 19.73399418 -32.24696878 -19.64152988]
Set gradient conv threshold to 3.16228e-05
Nelec from initial guess = 79.91582171496913
cond(S) = 209.00156861871875
E1 = -1720.548987789615  E_coul = 665.2929515786385
init E= -607.126845530109
    CPU time for initialize scf      8.32 sec, wall time      1.04 sec
  HOMO = -0.459770652491437  LUMO = 0.038157320967432
  mo_energy =
[-20.85573312 -20.84391939 -20.83764266 -20.81709146 -20.81154374
 -20.81081714 -20.80353381 -20.77716704  -1.70365071  -1.68894293
  -1.66279788  -1.6455394   -1.64338481  -1.61804498  -1.6005806
  -1.59058094  -0.81958901  -0.81044547  -0.80559179  -0.79323831
  -0.78469193  -0.76239471  -0.74555819  -0.71724327  -0.66059077
  -0.65469374  -0.63668526  -0.61370085  -0.60736895  -0.59145595
  -0.56329746  -0.55774473  -0.53701101  -0.5118105   -0.50985973
  -0.49673137  -0.49282886  -0.48410332  -0.47507227  -0.45977065
   0.03815732   0.07905842   0.11772069   0.12678583   0.13230555
   0.1532589    0.18279519   0.20802941   0.22563413   0.22847469
   0.2631968    0.27887251   0.28834086   0.29270237   0.34036081
   0.37698333   0.81363265   0.86820221   0.87931893   0.88443543
   0.91880212   0.93979533   0.94563466   0.95188526   0.9590758
   0.96527768   0.96907351   0.98596919   0.9948145    1.0033568
   1.00560561   1.02299314   1.03161531   1.04140206   1.0461719
   1.05520285   1.06753636   1.07223242   1.07996479   1.09593705
   1.0992142    1.11072645   1.11678792   1.14331459   1.1602337
   1.1659613    1.19248601   1.19620351   1.21728413   1.23623482
   1.24509609   1.2768109    1.28425914   1.29806366   1.33933824
   1.39938528   1.4442983    1.50066381   1.52198752   1.55936223
   1.6047323    1.61784263   1.66136665   1.66705307   1.67667106
   1.68448281   1.68796832   1.69555356   1.70219302   1.7092991
   1.71835974   1.72807602   1.73548804   1.74032644   1.74781232
   1.75427143   1.75863843   1.7813329    1.78709377   1.80523084
   1.81724383   1.82638642   1.84770881   1.86739986   1.87775533
   1.88782897   1.89865039   1.955813     2.43879883   2.45451114
   2.48156763   2.49437769   2.50153434   2.50602037   2.51916323
   2.52296165   2.53932088   2.54171734   2.57131155   2.58096489
   2.59985353   2.61473888   2.61822044   2.64141616   2.68370498
   2.70089981   2.71117977   2.73453831   2.75011119   2.76420985
   2.78381245   2.85092996   2.85653779   2.88827119   2.88949843
   2.89672187   2.89902914   2.9038008    2.90866285   2.9139456
   2.92048764   2.92686847   2.93926688   2.95490778   2.96120252
   2.98265199   2.98604869   3.04583285   3.28507078   3.28998153
   3.29679998   3.32390576   3.3323097    3.33406166   3.38728552
   3.41488907   3.66269106   3.67204074   3.68338438   3.69376798
   3.71284759   3.74660943   3.76904452   3.77309884   3.82021261
   3.83857196   3.84773714   3.85718233   3.87590884   3.90415809
   3.97334632   4.02758714]
E1 = -1742.2422558659741  E_coul = 686.1017058125586
cycle= 1 E= -608.011359372548  delta_E= -0.885  |g|= 1.19  |ddm|= 3.34
    CPU time for cycle= 1      1.38 sec, wall time      0.17 sec
diis-norm(errvec)=2.13439
diis-c [-4.55560427  1.        ]
  HOMO = -0.348164148154107  LUMO = 0.163665274169419
  mo_energy =
[-20.43093375 -20.40629308 -20.32968717 -20.32607063 -20.29244827
 -20.28672152 -20.28057342 -20.24062883  -1.34719114  -1.34221639
  -1.27564354  -1.2744713   -1.24379911  -1.2408845   -1.22174392
  -1.20242112  -0.72000704  -0.71849389  -0.6851215   -0.65142172
  -0.62933862  -0.62846543  -0.61098936  -0.60103296  -0.56492386
  -0.54159354  -0.51053397  -0.49900893  -0.49008547  -0.47893156
  -0.47320963  -0.45867943  -0.44504895  -0.42688139  -0.41912125
  -0.40971723  -0.3886673   -0.37967615  -0.37724873  -0.34816415
   0.16366527   0.18316367   0.23295668   0.2414091    0.25010179
   0.28041588   0.29078395   0.29964202   0.3382802    0.38946966
   0.39489389   0.44425588   0.45323184   0.47613261   0.50188406
   0.52250951   0.92736171   0.96839362   1.0012899    1.02403675
   1.03790236   1.05436958   1.05474781   1.07496826   1.08051583
   1.09735604   1.11762135   1.12446528   1.13603071   1.14345627
   1.16068742   1.17250434   1.17610532   1.20157888   1.21215396
   1.22989001   1.26141621   1.27263286   1.27938207   1.29948959
   1.3044446    1.31703      1.32538029   1.33125215   1.34157696
   1.35139432   1.36125303   1.37623717   1.39801954   1.40109615
   1.43229012   1.45729902   1.46974111   1.48034204   1.53679682
   1.58824432   1.61611428   1.65073011   1.69050724   1.72697439
   1.76885995   1.77522614   1.78615076   1.80065356   1.81219893
   1.8332199    1.83720572   1.85151964   1.86538838   1.87282782
   1.88741721   1.89303921   1.907959     1.91050431   1.91162244
   1.92400122   1.9303703    1.95720264   1.96873967   1.98596671
   2.00125691   2.01431992   2.02717148   2.03879354   2.0538213
   2.06828916   2.08708875   2.17561188   2.50106406   2.50794014
   2.56825667   2.57324912   2.58387392   2.60981938   2.62201715
   2.63411984   2.63784578   2.64531164   2.6950147    2.70552178
   2.72406416   2.74477064   2.75885205   2.78593755   2.79035864
   2.79849533   2.85817285   2.88230998   2.89623986   2.90844867
   2.92092306   2.92785692   2.93055463   2.94269691   2.99150431
   3.00326348   3.00760303   3.01119787   3.0132964    3.0487477
   3.05518581   3.05803557   3.06446093   3.07328583   3.08225393
   3.09686838   3.11082815   3.17722649   3.34661527   3.34855879
   3.41505978   3.4389401    3.44387991   3.45783837   3.468852
   3.5537317    3.72811217   3.72975299   3.80455887   3.82043947
   3.83505997   3.85632809   3.86501885   3.89785449   3.91765233
   3.96493222   3.9930462    4.02848514   4.0635697    4.09574494
   4.13677184   4.18378294]
E1 = -1729.6764188943712  E_coul = 673.3234349877098
cycle= 2 E= -608.223793225794  delta_E= -0.212  |g|= 0.572  |ddm|= 0.964
    CPU time for cycle= 2      1.43 sec, wall time      0.18 sec
diis-norm(errvec)=0.961585
diis-c [-0.22465815  0.2867463   0.7132537 ]
  HOMO = -0.455116193521564  LUMO = 0.156038158714598
  mo_energy =
[-20.64671947 -20.62611289 -20.58077979 -20.57536391 -20.56328665
 -20.56271791 -20.53870181 -20.53659416  -1.41141743  -1.40116067
  -1.35136167  -1.34548886  -1.33092193  -1.32744412  -1.30879163
  -1.30188463  -0.77085923  -0.75895179  -0.74334341  -0.70660351
  -0.69874112  -0.69550193  -0.68707132  -0.67282848  -0.62922612
  -0.62356071  -0.58802732  -0.57667939  -0.56950796  -0.56118627
  -0.55253056  -0.5447876   -0.53480864  -0.52370335  -0.5047543
  -0.49456224  -0.48135857  -0.47650946  -0.46713128  -0.45511619
   0.15603816   0.17828318   0.22516821   0.23120488   0.24361528
   0.27619073   0.27722642   0.28386609   0.31557064   0.35840498
   0.38656602   0.41170517   0.42152644   0.4353137    0.46012824
   0.49184927   0.90074459   0.94855313   0.97239096   1.00492195
   1.0159171    1.02754838   1.03423735   1.04354977   1.04925446
   1.0737874    1.08367962   1.08943196   1.09690872   1.11356997
   1.11954239   1.12416826   1.12831304   1.14528059   1.15828406
   1.16580619   1.1976827    1.20306314   1.20780906   1.22142049
   1.23159647   1.24178227   1.24718119   1.27008508   1.27931227
   1.29146263   1.30395477   1.32323059   1.33750896   1.35059959
   1.36871597   1.3849326    1.40704939   1.41319124   1.47139808
   1.52790712   1.55963658   1.59939194   1.63650928   1.67348557
   1.72345843   1.74110636   1.74629704   1.75267889   1.77265857
   1.78768145   1.79742266   1.80500505   1.82047481   1.82184039
   1.83665962   1.8437654    1.84931035   1.85126729   1.85623626
   1.87275898   1.87982339   1.90748866   1.90968121   1.92971945
   1.94339718   1.96341831   1.96667466   1.97632055   1.99703091
   2.00789749   2.01978219   2.10793832   2.50226273   2.5130523
   2.53198649   2.54326052   2.58640961   2.59539863   2.59793224
   2.60257923   2.62256517   2.62615187   2.64274063   2.67167321
   2.67966906   2.70177973   2.72198549   2.72701233   2.76066594
   2.76483791   2.82367864   2.83371079   2.84639734   2.876958
   2.89490664   2.89965602   2.91505946   2.92984717   2.9576042
   2.96903338   2.9863577    2.99137124   2.99785829   3.01243838
   3.02048406   3.02210305   3.03073075   3.03820311   3.04592166
   3.0493627    3.0728424    3.1378235    3.33076959   3.33830544
   3.39814671   3.40756289   3.41013108   3.42514276   3.42809532
   3.51547715   3.70891185   3.71659023   3.77921006   3.7865328
   3.79528622   3.81140148   3.82906985   3.85742876   3.88081081
   3.92340672   3.94781968   3.97063361   4.0012993    4.02565241
   4.08406811   4.12951292]
E1 = -1735.0395093581792  E_coul = 678.6296124919357
cycle= 3 E= -608.280706185375  delta_E= -0.0569  |g|= 0.0839  |ddm|= 0.376
    CPU time for cycle= 3      1.33 sec, wall time      0.17 sec
diis-norm(errvec)=0.155006
diis-c [-0.01165662 -0.02803036  0.05813672  0.96989364]
  HOMO = -0.447652541894927  LUMO = 0.161931113616548
  mo_energy =
[-20.61178407 -20.59825983 -20.54702401 -20.54420264 -20.53335038
 -20.5257018  -20.51700803 -20.50501531  -1.39690708  -1.38797913
  -1.33986949  -1.33009927  -1.31975765  -1.31406739  -1.30037527
  -1.29153883  -0.7576324   -0.74627895  -0.73324022  -0.69516965
  -0.68655069  -0.68441421  -0.67778397  -0.66543641  -0.61975267
  -0.61401283  -0.57886223  -0.56819866  -0.55845525  -0.5521502
  -0.54341185  -0.53514859  -0.52720587  -0.51677861  -0.49170196
  -0.48627148  -0.47106648  -0.46908433  -0.46063745  -0.44765254
   0.16193111   0.18461693   0.23136392   0.23689405   0.25018555
   0.28069458   0.28357459   0.29009001   0.3206665    0.36272726
   0.39424207   0.41698263   0.42674954   0.43987038   0.46458163
   0.4977476    0.90707527   0.95746092   0.9785647    1.0137263
   1.02345329   1.03497624   1.04159309   1.05283714   1.05790423
   1.08416932   1.09195703   1.09768795   1.10573376   1.12158602
   1.12709356   1.13369555   1.13731941   1.15366858   1.16643172
   1.17482114   1.20664432   1.2106425    1.2146987    1.22779681
   1.23758517   1.24922198   1.25289903   1.27879553   1.28792132
   1.30125347   1.31237655   1.3325489    1.34730287   1.35941595
   1.37617787   1.39203602   1.41597375   1.42117474   1.47813681
   1.53561678   1.56924468   1.60813468   1.64581122   1.68302259
   1.73293209   1.75233666   1.75628364   1.76458733   1.78216117
   1.79689887   1.80581861   1.81837649   1.83112242   1.8314116
   1.84527264   1.85241541   1.85709001   1.85963535   1.86517338
   1.88029669   1.8885293    1.9146804    1.92083051   1.93811345
   1.95343556   1.97202126   1.97380804   1.98537866   2.00380916
   2.01487785   2.0264983    2.11339915   2.51312963   2.52472341
   2.54364053   2.55468836   2.59538364   2.60765429   2.60928162
   2.61277028   2.63151204   2.63270814   2.64999243   2.67895792
   2.68646374   2.71105992   2.73199796   2.73511219   2.77317705
   2.77745666   2.83698877   2.84391083   2.85612084   2.88502312
   2.90529249   2.90934089   2.92607554   2.94104689   2.96707715
   2.97804603   2.99815406   3.00232105   3.01002719   3.01926296
   3.02694972   3.02946121   3.03655979   3.04457425   3.05250152
   3.05460481   3.07993931   3.14642659   3.34188527   3.34949036
   3.40711524   3.41629887   3.41867352   3.43117941   3.43712066
   3.5206073    3.72414475   3.7313215    3.79239763   3.80017435
   3.80768475   3.82288825   3.8410958    3.86804668   3.89326293
   3.93520686   3.95985316   3.98171463   4.01030248   4.03398851
   4.09212109   4.13776838]
E1 = -1734.4336707809  E_coul = 678.0221560525254
cycle= 4 E= -608.282324047507  delta_E= -0.00162  |g|= 0.014  |ddm|= 0.0555
    CPU time for cycle= 4      1.33 sec, wall time      0.17 sec
diis-norm(errvec)=0.0285765
diis-c [-2.52699583e-04 -9.13244700e-03 -3.77167862e-02 -1.41007551e-01
  1.18785678e+00]
  HOMO = -0.449188529524821  LUMO = 0.161873814098974
  mo_energy =
[-20.61560525 -20.59947979 -20.54757382 -20.54720451 -20.53517382
 -20.52948714 -20.51537571 -20.5070708   -1.39826945  -1.38829529
  -1.34010814  -1.33118856  -1.32050045  -1.3154622   -1.30030865
  -1.29261086  -0.75804791  -0.74586318  -0.73302215  -0.69533227
  -0.68686483  -0.68493966  -0.67824765  -0.6650763   -0.61976224
  -0.61478602  -0.57925198  -0.56857654  -0.56001478  -0.5527281
  -0.54420042  -0.53600376  -0.52776697  -0.51775033  -0.4930969
  -0.48701153  -0.47270327  -0.4703404   -0.4609726   -0.44918853
   0.16187381   0.1847274    0.23143928   0.23694941   0.25020394
   0.28040841   0.28405145   0.29022946   0.32055928   0.36282852
   0.39447061   0.41723674   0.42677735   0.44019161   0.46480208
   0.4978329    0.90710569   0.95761809   0.97851413   1.01346294
   1.02332759   1.03486137   1.04154395   1.05247494   1.05776071
   1.08420154   1.09155029   1.0976125    1.10502927   1.12112783
   1.12661319   1.13326274   1.1369608    1.15321836   1.16618529
   1.17405609   1.20533417   1.21003634   1.2145043    1.22713346
   1.23701157   1.24893277   1.25231629   1.27849967   1.2876843
   1.30102599   1.31228043   1.33233185   1.34676981   1.35906212
   1.37587837   1.3918848    1.41552264   1.42097319   1.4780077
   1.53562166   1.56847332   1.60799386   1.64543882   1.68244987
   1.73254416   1.75184687   1.75583706   1.76474073   1.78229527
   1.79683873   1.80568568   1.81799048   1.83049436   1.83095597
   1.84508388   1.85241555   1.85664886   1.85914528   1.86474314
   1.88032311   1.88849538   1.91448356   1.9204819    1.93802615
   1.9525845    1.97171436   1.9734652    1.98527864   2.00391388
   2.01470351   2.02613448   2.11341884   2.51367696   2.5249084
   2.54332413   2.55498926   2.59549588   2.60736169   2.60935072
   2.61253126   2.63181043   2.63267887   2.65006691   2.67905021
   2.68658686   2.71078349   2.73230825   2.73468209   2.77306869
   2.77790395   2.83691243   2.84369883   2.8559903    2.88537322
   2.90588974   2.90938026   2.9262346    2.94156347   2.96696069
   2.9785015    2.99825573   3.00211031   3.01010335   3.01947262
   3.02684969   3.02918802   3.03664737   3.04471881   3.05274299
   3.05465754   3.0801233    3.14663204   3.34211807   3.35015567
   3.40730236   3.41665355   3.41888998   3.43116816   3.43690144
   3.52102335   3.72392991   3.73177668   3.79233031   3.7996961
   3.807586     3.82273669   3.84137847   3.86838327   3.89369192
   3.93531686   3.96000061   3.9813738    4.01043004   4.03405279
   4.09256798   4.13830465]
E1 = -1734.4529367918979  E_coul = 678.0413376264374
cycle= 5 E= -608.282408484592  delta_E= -8.44e-05  |g|= 0.0031  |ddm|= 0.0178
    CPU time for cycle= 5      1.35 sec, wall time      0.17 sec
diis-norm(errvec)=0.00568952
diis-c [-2.31407554e-05  9.76819329e-04  1.19345657e-03 -2.12457043e-02
 -3.74451957e-02  1.05652062e+00]
  HOMO = -0.449545700157074  LUMO = 0.161841148594213
  mo_energy =
[-20.61419478 -20.59951446 -20.54832183 -20.54640283 -20.53514951
 -20.52835834 -20.5180753  -20.50725645  -1.39791884  -1.38840773
  -1.34054168  -1.33093459  -1.32058517  -1.3153363   -1.30117356
  -1.29281486  -0.7576454   -0.7457991   -0.73330348  -0.69524071
  -0.68659433  -0.68485293  -0.6782233   -0.66565564  -0.61999508
  -0.61464599  -0.579389    -0.56886628  -0.55983055  -0.55286139
  -0.54416166  -0.53627055  -0.52822258  -0.51795767  -0.49286536
  -0.48764725  -0.47279223  -0.4706775   -0.46190678  -0.4495457
   0.16184115   0.184658     0.23143844   0.23691221   0.25023475
   0.28032647   0.28407451   0.29024491   0.32048781   0.36251871
   0.3945278    0.41714975   0.42658484   0.43994912   0.4645696
   0.49759422   0.90684737   0.95745014   0.97824273   1.01342608
   1.02318663   1.03476001   1.04137685   1.05247003   1.05768922
   1.08407595   1.09138634   1.09741402   1.10503939   1.12100277
   1.12644914   1.13318249   1.13689082   1.15306467   1.16602498
   1.17400928   1.20533786   1.20982172   1.21424916   1.22702415
   1.23672077   1.2486436    1.25210175   1.27846067   1.28750783
   1.30113081   1.31213344   1.33216477   1.34682417   1.35886179
   1.3757497    1.3915951    1.41539249   1.42080187   1.47758546
   1.53523925   1.56854211   1.60778257   1.64529773   1.68233869
   1.7324917    1.75191478   1.75586293   1.76464054   1.78205901
   1.79663565   1.80547792   1.81811944   1.83051642   1.83092643
   1.84497061   1.85208408   1.85647382   1.85905216   1.86458838
   1.87988483   1.88822884   1.91424453   1.92054255   1.93772138
   1.95266307   1.9715351    1.97323958   1.98514209   2.00339386
   2.0144414    2.02595159   2.11290381   2.51354239   2.52492334
   2.54344397   2.55487017   2.59535208   2.60744895   2.60932761
   2.61250992   2.63160393   2.63248732   2.64978836   2.67860629
   2.68625424   2.71065259   2.73202694   2.73451216   2.7731406
   2.77779548   2.83698341   2.84361039   2.85591681   2.88490763
   2.90573815   2.90928771   2.92631035   2.94147645   2.96687467
   2.97825084   2.99832512   3.00223444   3.01015101   3.01914559
   3.02656179   3.02906159   3.03629918   3.04443096   3.05241955
   3.05437497   3.07987662   3.14632686   3.34217518   3.3500566
   3.40723797   3.41640459   3.4188328    3.43096689   3.4368689
   3.52047838   3.7240816    3.73170267   3.79230519   3.79978196
   3.80751259   3.82261777   3.84116553   3.86809407   3.89359914
   3.93524328   3.95995651   3.98137656   4.01030871   4.03382912
   4.09205493   4.13776677]
E1 = -1734.44770667329  E_coul = 678.0361039978192
cycle= 6 E= -608.282411994603  delta_E= -3.51e-06  |g|= 0.00138  |ddm|= 0.0039
    CPU time for cycle= 6      1.34 sec, wall time      0.17 sec
diis-norm(errvec)=0.00246891
diis-c [-1.66746715e-06  1.29894036e-03  4.72965955e-03  7.70621584e-03
 -1.32027004e-01  2.66414338e-01  8.51877850e-01]
  HOMO = -0.44958747283978  LUMO = 0.161807004809185
  mo_energy =
[-20.61468169 -20.5994314  -20.54782864 -20.54675992 -20.53512342
 -20.52875043 -20.51699336 -20.50714384  -1.39810394  -1.38839942
  -1.34041977  -1.33104567  -1.32059886  -1.3154379   -1.30093516
  -1.29282102  -0.75774299  -0.74574914  -0.73320551  -0.69524805
  -0.6866364   -0.68487209  -0.67827303  -0.66545429  -0.6199532
  -0.61476125  -0.57942011  -0.56884984  -0.56003374  -0.5528922
  -0.54426523  -0.53629741  -0.52817879  -0.51800743  -0.49302592
  -0.48755495  -0.47290552  -0.47072676  -0.46171105  -0.44958747
   0.161807     0.18465169   0.23142174   0.23691475   0.2502245
   0.28030309   0.28408424   0.29022612   0.32046822   0.36253431
   0.39451264   0.41713384   0.4265744    0.43996057   0.46455959
   0.49761592   0.906836     0.95744059   0.9782598    1.013368
   1.02316807   1.03471837   1.04134934   1.05241134   1.05766522
   1.08408083   1.09136097   1.09741477   1.10493548   1.12095794
   1.1264043    1.13313362   1.13684712   1.15303051   1.16601036
   1.17393686   1.20521236   1.20979393   1.21426109   1.22695431
   1.23670806   1.24866218   1.25207949   1.27842138   1.28751996
   1.30106544   1.31214152   1.33216669   1.34673303   1.35885396
   1.37574887   1.39162184   1.41537101   1.42079674   1.47764967
   1.53532421   1.56846116   1.60780353   1.64530135   1.68231889
   1.73245496   1.75181781   1.75577642   1.76462422   1.78207461
   1.7966426    1.80547226   1.81803146   1.83043537   1.83085765
   1.84493784   1.85211993   1.85643381   1.85898916   1.86455628
   1.87995309   1.88825705   1.9142485    1.92047429   1.93776368
   1.9525592    1.97151875   1.97323747   1.98512841   2.00349571
   2.01445455   2.02592336   2.1129951    2.51353943   2.52486973
   2.54332287   2.55485652   2.59533143   2.60736295   2.60928963
   2.61245319   2.63160477   2.63244661   2.64979574   2.67866284
   2.6862545    2.71062336   2.73206997   2.73447661   2.77304428
   2.77778649   2.83690842   2.84355947   2.85586397   2.88497647
   2.90573755   2.90922754   2.92624359   2.94147407   2.96680776
   2.9782926    2.99825945   3.00217539   3.01010513   3.01916733
   3.0265533    3.02902766   3.03631021   3.04443337   3.05243936
   3.05434016   3.07987629   3.14635872   3.34209619   3.35005064
   3.40719325   3.41642491   3.41879355   3.43093009   3.43680169
   3.52054839   3.72398857   3.73169942   3.79226157   3.79970513
   3.80748058   3.82259288   3.84119491   3.86811234   3.89358138
   3.93519416   3.95991485   3.98128678   4.01027076   4.03379963
   4.09213718   4.13786782]
E1 = -1734.4449792002154  E_coul = 678.0333759990202
cycle= 7 E= -608.282412520327  delta_E= -5.26e-07  |g|= 0.000234  |ddm|= 0.00133
    CPU time for cycle= 7      1.40 sec, wall time      0.17 sec
diis-norm(errvec)=0.000433806
diis-c [-5.45100583e-08 -1.68241359e-04 -3.64780921e-04 -1.61398838e-04
  1.40893288e-02 -9.24423263e-02 -8.50553502e-02  1.16410277e+00]
  HOMO = -0.449610609847024  LUMO = 0.161809654884322
  mo_energy =
[-20.61461946 -20.59939271 -20.54782273 -20.54670665 -20.53508586
 -20.5286924  -20.51706447 -20.50714324  -1.39808716  -1.38838329
  -1.34041716  -1.33102911  -1.3205897   -1.31543309  -1.30095295
  -1.29282707  -0.75771701  -0.745718    -0.73319247  -0.69522789
  -0.68661175  -0.68486183  -0.67826257  -0.66545045  -0.61994362
  -0.61474694  -0.57941612  -0.56885241  -0.56002645  -0.55289276
  -0.54426007  -0.5362983   -0.52819225  -0.51802095  -0.49301575
  -0.48757283  -0.47291599  -0.47073901  -0.46174392  -0.44961061
   0.16180965   0.18465885   0.23142764   0.23691761   0.25022892
   0.28029798   0.28409899   0.29023386   0.32047036   0.36253562
   0.39452508   0.41714303   0.42657776   0.43997034   0.46456913
   0.49762577   0.9068425    0.95745312   0.97826362   1.01337607
   1.02317251   1.03472766   1.04135893   1.05241679   1.05767242
   1.08409014   1.09135972   1.09742335   1.10494476   1.1209629
   1.12640401   1.13314018   1.13685717   1.15303336   1.16601644
   1.17394419   1.20521227   1.20979154   1.21426456   1.22695447
   1.23670525   1.24866454   1.25207341   1.27843202   1.28752449
   1.30108398   1.31215095   1.33217831   1.34674763   1.35885862
   1.37575284   1.39162671   1.41537952   1.42080751   1.47764636
   1.53532911   1.56847014   1.6078114    1.64531017   1.68232437
   1.73246327   1.75182755   1.75578706   1.76463851   1.78208548
   1.79665018   1.8054767    1.81804326   1.83043672   1.83086472
   1.84494504   1.85212245   1.85643195   1.85899096   1.86455712
   1.87994817   1.88825874   1.91425428   1.92048551   1.9377688
   1.95256219   1.97151977   1.97323754   1.98513634   2.00349029
   2.01445769   2.02592707   2.11298898   2.51355505   2.52487622
   2.54333567   2.55487253   2.5953386    2.60737479   2.60929738
   2.61245709   2.63161739   2.63245226   2.64979797   2.67866007
   2.686263     2.71062186   2.73207631   2.73447074   2.77305716
   2.77780406   2.83692236   2.84356411   2.85587229   2.8849777
   2.90575623   2.90923638   2.92625351   2.94148485   2.96681535
   2.97829854   2.99827083   3.00217468   3.01011593   3.01917061
   3.02654932   3.0290198    3.03630968   3.04444052   3.05244851
   3.05435167   3.07988581   3.14636751   3.34210806   3.35006874
   3.40720332   3.41643487   3.41880444   3.43093283   3.4368027
   3.520551     3.72399949   3.73171763   3.79227304   3.79970938
   3.807489     3.82259723   3.84120615   3.86812391   3.8935982
   3.93520634   3.95992875   3.98129379   4.01028107   4.033807
   4.09213712   4.13787303]
E1 = -1734.4442646375787  E_coul = 678.0326614116515
cycle= 8 E= -608.282412545059  delta_E= -2.47e-08  |g|= 3.52e-05  |ddm|= 0.000366
    CPU time for cycle= 8      1.36 sec, wall time      0.17 sec
diis-norm(errvec)=6.51636e-05
diis-c [-2.11605688e-09 -4.21745555e-05 -1.48066386e-04 -3.15726519e-04
  4.34890777e-03 -8.51002817e-03 -2.95046765e-02 -5.62298744e-03
  1.03979475e+00]
  HOMO = -0.449606499818863  LUMO = 0.161809649244358
  mo_energy =
[-20.61461436 -20.59939912 -20.54782831 -20.54669605 -20.53509018
 -20.52869476 -20.51705354 -20.50712618  -1.39808498  -1.38838475
  -1.3404197   -1.33102598  -1.32059049  -1.31543457  -1.30095281
  -1.29282251  -0.75771389  -0.74571704  -0.73319307  -0.695226
  -0.68660839  -0.68486124  -0.67825952  -0.66544865  -0.61994549
  -0.61474501  -0.57941638  -0.56885252  -0.56002535  -0.55289315
  -0.54426148  -0.53630058  -0.52819419  -0.51801649  -0.49301213
  -0.48757669  -0.47291852  -0.47074201  -0.46174424  -0.4496065
   0.16180965   0.18465863   0.23142789   0.23691773   0.25022928
   0.28029927   0.2840996    0.29023436   0.32047054   0.36253417
   0.39452595   0.4171431    0.42657633   0.43996951   0.46456855
   0.49762468   0.90684181   0.95745255   0.97826298   1.01337652
   1.02317222   1.03472784   1.04135844   1.05241811   1.05767233
   1.08408975   1.09136079   1.09742232   1.10494479   1.12096213
   1.12640299   1.13313967   1.13685669   1.15303377   1.16601618
   1.17394517   1.2052099    1.20979062   1.21426394   1.22695483
   1.23670509   1.24866381   1.25207551   1.27843305   1.28752502
   1.3010857    1.3121516    1.33217733   1.34674809   1.3588586
   1.37575627   1.39162733   1.41537923   1.42080715   1.47764548
   1.53532916   1.56847175   1.60781021   1.64531012   1.68232393
   1.73246373   1.75182868   1.75578806   1.76463826   1.78208432
   1.79664928   1.80547641   1.81804533   1.83043565   1.8308652
   1.8449445    1.8521215    1.85643383   1.85899292   1.8645558
   1.8799472    1.88825839   1.9142529    1.92048702   1.93776697
   1.95256031   1.97152122   1.97323871   1.98513671   2.00348978
   2.01445694   2.02592749   2.11298822   2.51355548   2.52487781
   2.54333693   2.55487229   2.59533906   2.60737661   2.6092978
   2.61245675   2.63161681   2.63245219   2.64979801   2.67865948
   2.68626089   2.71062119   2.73207586   2.73447433   2.7730586
   2.77780414   2.83692446   2.84356334   2.85587189   2.88497717
   2.90575564   2.90923715   2.92625539   2.94148608   2.96681632
   2.97829851   2.99827257   3.00217551   3.01011707   3.01916951
   3.02654863   3.02902198   3.03630871   3.04443949   3.05244688
   3.0543502    3.07988456   3.14636641   3.34210941   3.35006928
   3.40720405   3.41643445   3.41880533   3.43093431   3.43680167
   3.52054935   3.72400165   3.73171819   3.7922739    3.79970942
   3.80749056   3.82259909   3.84120586   3.86812326   3.89359846
   3.9352073    3.95993019   3.98129227   4.01028147   4.03380858
   4.09213666   4.13787164]
E1 = -1734.4442354382566  E_coul = 678.0326322117886
cycle= 9 E= -608.2824125456  delta_E= -5.41e-10  |g|= 1.17e-05  |ddm|= 5.28e-05
    CPU time for cycle= 9      1.38 sec, wall time      0.17 sec
  HOMO = -0.449608384816264  LUMO = 0.161809583440814
  mo_energy =
[-20.61461656 -20.59939308 -20.54782174 -20.54670172 -20.53508511
 -20.52869362 -20.51705699 -20.50713409  -1.3980853   -1.38838238
  -1.34041735  -1.33102698  -1.32058899  -1.31543413  -1.30095322
  -1.29282457  -0.75771429  -0.74571518  -0.73319102  -0.69522517
  -0.68660875  -0.68486111  -0.67826047  -0.66544861  -0.61994347
  -0.61474596  -0.57941543  -0.5688518   -0.56002549  -0.55289276
  -0.5442607   -0.53629861  -0.52819301  -0.51801839  -0.4930134
  -0.48757449  -0.47291804  -0.47074024  -0.46174491  -0.44960838
   0.16180958   0.18465908   0.23142789   0.23691794   0.25022918
   0.28029895   0.28410001   0.29023434   0.32047084   0.36253458
   0.39452564   0.41714351   0.42657666   0.43996989   0.46456856
   0.49762596   0.90684194   0.95745307   0.97826362   1.01337639
   1.02317267   1.03472785   1.04135897   1.05241782   1.05767278
   1.0840905    1.09136048   1.09742296   1.10494457   1.1209628
   1.12640308   1.13313978   1.13685714   1.15303343   1.16601646
   1.17394475   1.20521028   1.20979059   1.21426449   1.22695454
   1.23670537   1.24866467   1.25207486   1.27843295   1.28752499
   1.30108528   1.31215252   1.33217866   1.34674809   1.35885896
   1.37575537   1.3916274    1.41537989   1.42080808   1.47764601
   1.53532978   1.56847127   1.60781149   1.64531053   1.68232388
   1.73246396   1.75182839   1.75578786   1.76463957   1.78208576
   1.79665055   1.80547711   1.81804439   1.83043573   1.83086516
   1.84494539   1.8521222    1.85643294   1.85899213   1.86455603
   1.87994772   1.88825896   1.91425418   1.92048664   1.9377686
   1.95256058   1.9715208    1.97323844   1.98513716   2.00349021
   2.01445788   2.02592738   2.1129887    2.5135562    2.52487755
   2.54333668   2.55487367   2.59533964   2.60737589   2.60929761
   2.61245667   2.63161755   2.63245206   2.64979876   2.67865986
   2.68626149   2.71062127   2.73207717   2.73447321   2.77305831
   2.77780541   2.83692371   2.84356381   2.85587267   2.88497739
   2.90575664   2.90923663   2.92625515   2.94148678   2.96681567
   2.97829916   2.99827182   3.00217532   3.01011655   3.01917014
   3.02654865   3.02902146   3.03630919   3.04444032   3.05244787
   3.05435007   3.07988571   3.14636784   3.34210915   3.35007021
   3.40720461   3.41643534   3.41880548   3.43093371   3.43680168
   3.52054985   3.72400122   3.73171922   3.79227415   3.7997093
   3.80749015   3.82259856   3.84120703   3.86812378   3.89359937
   3.93520696   3.95992984   3.98129248   4.01028217   4.03380782
   4.09213714   4.13787276]
E1 = -1734.4442499421627  E_coul = 678.0326467156445
Extra cycle  E= -608.28241254565  delta_E= -5.05e-11  |g|= 6.08e-06  |ddm|= 1.56e-05
    CPU time for scf_cycle     21.94 sec, wall time      2.75 sec
    CPU time for SCF     22.05 sec, wall time      2.76 sec
converged SCF energy = -608.28241254565
