 Entering Gaussian System, Link 0=g16
 Input=w32_76.gjf
 Output=w32_76.log
 Initial command:
 /home/soft/g16/l1.exe "/tmp/liwei01/gaussian/wsr/Gau-8623.inp" -scrdir="/tmp/liwei01/gaussian/wsr/"
 Entering Link 1 = /home/soft/g16/l1.exe PID=      8624.
  
 Copyright (c) 1988,1990,1992,1993,1995,1998,2003,2009,2016,
            Gaussian, Inc.  All Rights Reserved.
  
 This is part of the Gaussian(R) 16 program.  It is based on
 the Gaussian(R) 09 system (copyright 2009, Gaussian, Inc.),
 the Gaussian(R) 03 system (copyright 2003, Gaussian, Inc.),
 the Gaussian(R) 98 system (copyright 1998, Gaussian, Inc.),
 the Gaussian(R) 94 system (copyright 1995, Gaussian, Inc.),
 the Gaussian 92(TM) system (copyright 1992, Gaussian, Inc.),
 the Gaussian 90(TM) system (copyright 1990, Gaussian, Inc.),
 the Gaussian 88(TM) system (copyright 1988, Gaussian, Inc.),
 the Gaussian 86(TM) system (copyright 1986, Carnegie Mellon
 University), and the Gaussian 82(TM) system (copyright 1983,
 Carnegie Mellon University). Gaussian is a federally registered
 trademark of Gaussian, Inc.
  
 This software contains proprietary and confidential information,
 including trade secrets, belonging to Gaussian, Inc.
  
 This software is provided under written license and may be
 used, copied, transmitted, or stored only in accord with that
 written license.
  
 The following legend is applicable only to US Government
 contracts under FAR:
  
                    RESTRICTED RIGHTS LEGEND
  
 Use, reproduction and disclosure by the US Government is
 subject to restrictions as set forth in subparagraphs (a)
 and (c) of the Commercial Computer Software - Restricted
 Rights clause in FAR 52.227-19.
  
 Gaussian, Inc.
 340 Quinnipiac St., Bldg. 40, Wallingford CT 06492
  
  
 ---------------------------------------------------------------
 Warning -- This program may not be used in any manner that
 competes with the business of Gaussian, Inc. or will provide
 assistance to any competitor of Gaussian, Inc.  The licensee
 of this program is prohibited from giving any competitor of
 Gaussian, Inc. access to this program.  By using this program,
 the user acknowledges that Gaussian, Inc. is engaged in the
 business of creating and licensing software in the field of
 computational chemistry and represents and warrants to the
 licensee that it is not a competitor of Gaussian, Inc. and that
 it will not use this program in any manner prohibited above.
 ---------------------------------------------------------------
  

 Cite this work as:
 Gaussian 16, Revision A.03,
 M. J. Frisch, G. W. Trucks, H. B. Schlegel, G. E. Scuseria, 
 M. A. Robb, J. R. Cheeseman, G. Scalmani, V. Barone, 
 G. A. Petersson, H. Nakatsuji, X. Li, M. Caricato, A. V. Marenich, 
 J. Bloino, B. G. Janesko, R. Gomperts, B. Mennucci, H. P. Hratchian, 
 J. V. Ortiz, A. F. Izmaylov, J. L. Sonnenberg, D. Williams-Young, 
 F. Ding, F. Lipparini, F. Egidi, J. Goings, B. Peng, A. Petrone, 
 T. Henderson, D. Ranasinghe, V. G. Zakrzewski, J. Gao, N. Rega, 
 G. Zheng, W. Liang, M. Hada, M. Ehara, K. Toyota, R. Fukuda, 
 J. Hasegawa, M. Ishida, T. Nakajima, Y. Honda, O. Kitao, H. Nakai, 
 T. Vreven, K. Throssell, J. A. Montgomery, Jr., J. E. Peralta, 
 F. Ogliaro, M. J. Bearpark, J. J. Heyd, E. N. Brothers, K. N. Kudin, 
 V. N. Staroverov, T. A. Keith, R. Kobayashi, J. Normand, 
 K. Raghavachari, A. P. Rendell, J. C. Burant, S. S. Iyengar, 
 J. Tomasi, M. Cossi, J. M. Millam, M. Klene, C. Adamo, R. Cammi, 
 J. W. Ochterski, R. L. Martin, K. Morokuma, O. Farkas, 
 J. B. Foresman, and D. J. Fox, Gaussian, Inc., Wallingford CT, 2016.
 
 ******************************************
 Gaussian 16:  ES64L-G16RevA.03 25-Dec-2016
                15-May-2020 
 ******************************************
 %chk=w32_76.chk
 %nproc=4
 Will use up to    4 processors via shared memory.
 %mem=1gb
 -----------------------------------------
 #p hf/6-31g** 5d 7f pop=npa charge nosymm
 -----------------------------------------
 1/18=10,28=-2,38=1,125=101,172=1/1;
 2/12=2,15=1,17=6,18=5,40=1/2;
 3/5=1,6=6,7=101,8=11,11=9,25=1,30=1/1,2,3;
 4//1;
 5/5=2,38=5/2;
 6/7=2,8=2,9=2,10=2,28=1,40=-1/1,7;
 99/5=1,9=1/99;
 Leave Link    1 at Fri May 15 22:36:19 2020, MaxMem=   134217728 cpu:               0.3 elap:               0.1
 (Enter /home/soft/g16/l101.exe)
 -------------
 Atom number=6
 -------------
 Symbolic Z-matrix:
 Charge =  0 Multiplicity = 1
 o                     8.39232  -11.81294  -11.20048 
 o                     10.6752  -11.92516  -15.81919 
 h                     8.17528  -12.53782  -10.61424 
 h                     9.25215  -11.5141  -10.90447 
 h                     11.14537  -12.25972  -15.05549 
 h                     10.76936  -12.61226  -16.47894 
 
 ITRead=  0  0  0  0  0  0
 MicOpt= -1 -1 -1 -1 -1 -1
 NAtoms=      6 NQM=        6 NQMF=       0 NMMI=      0 NMMIF=      0
                NMic=       0 NMicF=      0.
                    Isotopes and Nuclear Properties:
 (Nuclear quadrupole moments (NQMom) in fm**2, nuclear magnetic moments (NMagM)
  in nuclear magnetons)

  Atom         1           2           3           4           5           6
 IAtWgt=          16          16           1           1           1           1
 AtmWgt=  15.9949146  15.9949146   1.0078250   1.0078250   1.0078250   1.0078250
 NucSpn=           0           0           1           1           1           1
 AtZEff=  -0.0000000  -0.0000000  -0.0000000  -0.0000000  -0.0000000  -0.0000000
 NQMom=    0.0000000   0.0000000   0.0000000   0.0000000   0.0000000   0.0000000
 NMagM=    0.0000000   0.0000000   2.7928460   2.7928460   2.7928460   2.7928460
 AtZNuc=   8.0000000   8.0000000   1.0000000   1.0000000   1.0000000   1.0000000
 Background charge distribution read from input stream:
 Point Charges:
 XYZ=   10.7060  -10.8489  -10.0915 Q=   -1.0357 A=    0.0000 R=    0.0000 C=    0.0000
 XYZ=   11.5214  -11.3203   -9.9208 Q=    0.5206 A=    0.0000 R=    0.0000 C=    0.0000
 XYZ=   10.5678  -10.3169   -9.3078 Q=    0.5156 A=    0.0000 R=    0.0000 C=    0.0000
 XYZ=    8.6932  -14.0693   -9.5471 Q=   -1.0099 A=    0.0000 R=    0.0000 C=    0.0000
 XYZ=    8.2201  -13.7327   -8.7861 Q=    0.4999 A=    0.0000 R=    0.0000 C=    0.0000
 XYZ=    8.5528  -15.0157   -9.5178 Q=    0.5079 A=    0.0000 R=    0.0000 C=    0.0000
 XYZ=    7.2503   -9.8596  -13.1035 Q=   -1.0243 A=    0.0000 R=    0.0000 C=    0.0000
 XYZ=    7.1207  -10.2215  -13.9801 Q=    0.5152 A=    0.0000 R=    0.0000 C=    0.0000
 XYZ=    7.3415  -10.6267  -12.5383 Q=    0.5154 A=    0.0000 R=    0.0000 C=    0.0000
 XYZ=    5.5704  -12.7600  -10.7338 Q=   -1.0500 A=    0.0000 R=    0.0000 C=    0.0000
 XYZ=    4.6427  -12.8278  -10.5079 Q=    0.5214 A=    0.0000 R=    0.0000 C=    0.0000
 XYZ=    5.9838  -12.4052   -9.9468 Q=    0.5064 A=    0.0000 R=    0.0000 C=    0.0000
 XYZ=    6.9662   -9.2478  -10.2743 Q=   -1.0324 A=    0.0000 R=    0.0000 C=    0.0000
 XYZ=    6.9752   -9.8450  -11.0223 Q=    0.5142 A=    0.0000 R=    0.0000 C=    0.0000
 XYZ=    7.6844   -8.6385  -10.4451 Q=    0.5185 A=    0.0000 R=    0.0000 C=    0.0000
 XYZ=    6.9426  -11.8294   -8.3710 Q=   -1.0528 A=    0.0000 R=    0.0000 C=    0.0000
 XYZ=    7.4956  -12.0911   -7.6348 Q=    0.5210 A=    0.0000 R=    0.0000 C=    0.0000
 XYZ=    7.3075  -10.9928   -8.6597 Q=    0.5255 A=    0.0000 R=    0.0000 C=    0.0000
 XYZ=    9.7397  -14.5602  -13.0841 Q=   -1.0029 A=    0.0000 R=    0.0000 C=    0.0000
 XYZ=    9.4367  -13.9209  -12.4394 Q=    0.5215 A=    0.0000 R=    0.0000 C=    0.0000
 XYZ=   10.6527  -14.3230  -13.2466 Q=    0.4988 A=    0.0000 R=    0.0000 C=    0.0000
 XYZ=   10.0849   -9.6030  -13.6944 Q=   -1.0549 A=    0.0000 R=    0.0000 C=    0.0000
 XYZ=    9.8380   -9.8779  -14.5774 Q=    0.5180 A=    0.0000 R=    0.0000 C=    0.0000
 XYZ=    9.2671   -9.6284  -13.1976 Q=    0.5226 A=    0.0000 R=    0.0000 C=    0.0000
 XYZ=    9.4738   -7.9972  -10.9180 Q=   -0.9971 A=    0.0000 R=    0.0000 C=    0.0000
 XYZ=    9.9975   -8.7956  -10.8516 Q=    0.5301 A=    0.0000 R=    0.0000 C=    0.0000
 XYZ=    9.6234   -7.5424  -10.0892 Q=    0.4920 A=    0.0000 R=    0.0000 C=    0.0000
 XYZ=    8.4516  -10.6356  -15.6859 Q=   -1.0322 A=    0.0000 R=    0.0000 C=    0.0000
 XYZ=    8.1250  -10.4069  -16.5562 Q=    0.4798 A=    0.0000 R=    0.0000 C=    0.0000
 XYZ=    9.2622  -11.1166  -15.8526 Q=    0.5341 A=    0.0000 R=    0.0000 C=    0.0000
 XYZ=    4.0391  -11.2243  -12.8044 Q=   -0.9921 A=    0.0000 R=    0.0000 C=    0.0000
 XYZ=    4.5248  -12.0476  -12.7552 Q=    0.4802 A=    0.0000 R=    0.0000 C=    0.0000
 XYZ=    4.4321  -10.7575  -13.5420 Q=    0.5046 A=    0.0000 R=    0.0000 C=    0.0000
 XYZ=    5.5848  -15.5922  -11.4699 Q=   -1.0129 A=    0.0000 R=    0.0000 C=    0.0000
 XYZ=    4.6785  -15.3483  -11.6582 Q=    0.5050 A=    0.0000 R=    0.0000 C=    0.0000
 XYZ=    6.0031  -14.7735  -11.2032 Q=    0.5257 A=    0.0000 R=    0.0000 C=    0.0000
 XYZ=    8.8013  -12.4259   -6.4973 Q=   -0.9852 A=    0.0000 R=    0.0000 C=    0.0000
 XYZ=    9.0556  -11.7490   -5.8701 Q=    0.5006 A=    0.0000 R=    0.0000 C=    0.0000
 XYZ=    8.9395  -13.2499   -6.0303 Q=    0.5083 A=    0.0000 R=    0.0000 C=    0.0000
 XYZ=   10.5523   -9.0602   -7.7657 Q=   -0.9799 A=    0.0000 R=    0.0000 C=    0.0000
 XYZ=   10.0296   -9.4526   -7.0665 Q=    0.5003 A=    0.0000 R=    0.0000 C=    0.0000
 XYZ=   10.0576   -8.2839   -8.0284 Q=    0.4937 A=    0.0000 R=    0.0000 C=    0.0000
 XYZ=    8.4919  -14.1596  -15.7110 Q=   -0.9823 A=    0.0000 R=    0.0000 C=    0.0000
 XYZ=    8.8439  -15.0437  -15.8144 Q=    0.4799 A=    0.0000 R=    0.0000 C=    0.0000
 XYZ=    8.9183  -13.8221  -14.9233 Q=    0.4950 A=    0.0000 R=    0.0000 C=    0.0000
 XYZ=    7.7593  -16.5050  -13.2460 Q=   -1.0112 A=    0.0000 R=    0.0000 C=    0.0000
 XYZ=    7.3079  -16.2111  -12.4547 Q=    0.4926 A=    0.0000 R=    0.0000 C=    0.0000
 XYZ=    8.5373  -15.9498  -13.2987 Q=    0.4973 A=    0.0000 R=    0.0000 C=    0.0000
 XYZ=   13.4576  -11.7733   -9.7740 Q=   -0.9993 A=    0.0000 R=    0.0000 C=    0.0000
 XYZ=   13.9089  -10.9962  -10.1037 Q=    0.5128 A=    0.0000 R=    0.0000 C=    0.0000
 XYZ=   14.1508  -12.4236   -9.6612 Q=    0.5076 A=    0.0000 R=    0.0000 C=    0.0000
 XYZ=    5.5914  -15.5335   -8.7002 Q=   -1.0162 A=    0.0000 R=    0.0000 C=    0.0000
 XYZ=    6.3093  -16.0707   -8.3652 Q=    0.4831 A=    0.0000 R=    0.0000 C=    0.0000
 XYZ=    5.4763  -15.8239   -9.6050 Q=    0.5237 A=    0.0000 R=    0.0000 C=    0.0000
 XYZ=    5.3398  -11.2122  -15.4745 Q=   -0.9760 A=    0.0000 R=    0.0000 C=    0.0000
 XYZ=    5.8801  -10.4587  -15.7120 Q=    0.4863 A=    0.0000 R=    0.0000 C=    0.0000
 XYZ=    5.4896  -11.8457  -16.1763 Q=    0.4965 A=    0.0000 R=    0.0000 C=    0.0000
 XYZ=   12.9960  -14.7139  -11.2100 Q=   -0.9778 A=    0.0000 R=    0.0000 C=    0.0000
 XYZ=   12.2864  -15.1619  -10.7497 Q=    0.5059 A=    0.0000 R=    0.0000 C=    0.0000
 XYZ=   13.6357  -14.5124  -10.5270 Q=    0.4638 A=    0.0000 R=    0.0000 C=    0.0000
 XYZ=    4.6413   -8.1383  -12.6711 Q=   -0.9897 A=    0.0000 R=    0.0000 C=    0.0000
 XYZ=    4.5978   -7.2720  -12.2662 Q=    0.4876 A=    0.0000 R=    0.0000 C=    0.0000
 XYZ=    5.5765   -8.3384  -12.7100 Q=    0.4969 A=    0.0000 R=    0.0000 C=    0.0000
 XYZ=    8.9611  -17.0167   -9.2755 Q=   -0.9921 A=    0.0000 R=    0.0000 C=    0.0000
 XYZ=    8.6736  -17.2191   -8.3852 Q=    0.5092 A=    0.0000 R=    0.0000 C=    0.0000
 XYZ=    8.3026  -17.4234   -9.8386 Q=    0.5103 A=    0.0000 R=    0.0000 C=    0.0000
 XYZ=   12.8900   -9.6906  -13.7511 Q=   -0.9984 A=    0.0000 R=    0.0000 C=    0.0000
 XYZ=   13.4884   -9.8459  -13.0204 Q=    0.4670 A=    0.0000 R=    0.0000 C=    0.0000
 XYZ=   12.0171   -9.7427  -13.3618 Q=    0.5160 A=    0.0000 R=    0.0000 C=    0.0000
 XYZ=    4.9070   -7.9100   -9.1300 Q=   -1.0105 A=    0.0000 R=    0.0000 C=    0.0000
 XYZ=    4.0635   -8.0265   -9.5674 Q=    0.4764 A=    0.0000 R=    0.0000 C=    0.0000
 XYZ=    5.4227   -8.6710   -9.3968 Q=    0.5176 A=    0.0000 R=    0.0000 C=    0.0000
 XYZ=    2.9547  -12.7024   -9.8757 Q=   -0.9915 A=    0.0000 R=    0.0000 C=    0.0000
 XYZ=    3.0641  -13.5048   -9.3654 Q=    0.5019 A=    0.0000 R=    0.0000 C=    0.0000
 XYZ=    2.7384  -12.0329   -9.2268 Q=    0.5105 A=    0.0000 R=    0.0000 C=    0.0000
 XYZ=    4.2108  -13.3306   -7.5546 Q=   -1.0293 A=    0.0000 R=    0.0000 C=    0.0000
 XYZ=    4.9638  -12.7453   -7.4735 Q=    0.4979 A=    0.0000 R=    0.0000 C=    0.0000
 XYZ=    4.5835  -14.1618   -7.8486 Q=    0.5197 A=    0.0000 R=    0.0000 C=    0.0000
 XYZ=    8.5389   -6.2611  -12.9484 Q=   -1.0019 A=    0.0000 R=    0.0000 C=    0.0000
 XYZ=    8.8800   -6.8491  -12.2745 Q=    0.5098 A=    0.0000 R=    0.0000 C=    0.0000
 XYZ=    9.2767   -6.1230  -13.5423 Q=    0.4773 A=    0.0000 R=    0.0000 C=    0.0000
 XYZ=   11.4715  -15.3553   -7.5180 Q=   -1.0197 A=    0.0000 R=    0.0000 C=    0.0000
 XYZ=   10.8644  -15.3558   -8.2581 Q=    0.4753 A=    0.0000 R=    0.0000 C=    0.0000
 XYZ=   11.9075  -14.5045   -7.5658 Q=    0.5146 A=    0.0000 R=    0.0000 C=    0.0000
 XYZ=   12.8138  -13.0185   -7.3663 Q=   -0.9959 A=    0.0000 R=    0.0000 C=    0.0000
 XYZ=   12.4819  -12.4171   -6.6996 Q=    0.4994 A=    0.0000 R=    0.0000 C=    0.0000
 XYZ=   12.6552  -12.5682   -8.1960 Q=    0.5110 A=    0.0000 R=    0.0000 C=    0.0000
 XYZ=   11.3245  -17.0116  -10.7628 Q=   -1.0019 A=    0.0000 R=    0.0000 C=    0.0000
 XYZ=   11.7165  -17.8633  -10.5702 Q=    0.4876 A=    0.0000 R=    0.0000 C=    0.0000
 XYZ=   10.4428  -17.0644  -10.3939 Q=    0.5095 A=    0.0000 R=    0.0000 C=    0.0000
 Pt Chg Charge=             -0.0192 electrons
 Pt Chg Dipole moment (Debye):
    X=             12.6388    Y=             -2.4043    Z=             15.4982  Tot=             20.1423
 Pt Chg Quadrupole moment (Debye-Ang):
   XX=            188.8882   YY=             73.3654   ZZ=           -258.3424
   XY=           -133.6288   XZ=             -3.7307   YZ=           -155.4308
 Pt Chg Traceless Quadrupole moment (Debye-Ang):
   XX=            187.5844   YY=             72.0617   ZZ=           -259.6461
   XY=           -133.6288   XZ=             -3.7307   YZ=           -155.4308
 Pt Chg Octapole moment (Debye-Ang**2):
  XXX=           2418.1499  YYY=          -1762.7572  ZZZ=           3024.7745  XYY=           1454.7929
  XXY=          -1729.5169  XXZ=           -720.2733  XZZ=           -837.1815  YZZ=           2962.7653
  YYZ=           1710.1910  XYZ=            -91.3420
 Pt Chg Hexadecapole moment (Debye-Ang**3):
 XXXX=          32642.5460 YYYY=          40905.3302 ZZZZ=         -23270.3120 XXXY=         -20898.5407
 XXXZ=         -12213.9351 YYYX=         -18711.8674 YYYZ=         -18412.6677 ZZZX=          12707.6162
 ZZZY=         -38413.4502 XXYY=          15218.5345 XXZZ=          -2488.0344 YYZZ=         -38892.9952
 XXYZ=           4845.4726 YYXZ=           3866.0107 ZZXY=          11939.7926
 Leave Link  101 at Fri May 15 22:36:20 2020, MaxMem=   134217728 cpu:               0.6 elap:               0.2
 (Enter /home/soft/g16/l202.exe)
                          Input orientation:                          
 ---------------------------------------------------------------------
 Center     Atomic      Atomic             Coordinates (Angstroms)
 Number     Number       Type             X           Y           Z
 ---------------------------------------------------------------------
      1          8           0        8.392325  -11.812941  -11.200483
      2          8           0       10.675204  -11.925165  -15.819193
      3          1           0        8.175276  -12.537815  -10.614239
      4          1           0        9.252154  -11.514100  -10.904475
      5          1           0       11.145373  -12.259719  -15.055487
      6          1           0       10.769363  -12.612255  -16.478945
 ---------------------------------------------------------------------
                    Distance matrix (angstroms):
                    1          2          3          4          5
     1  O    0.000000
     2  O    5.153311   0.000000
     3  H    0.957201   5.806593   0.000000
     4  H    0.957200   5.133079   1.513901   0.000000
     5  H    4.758145   0.957200   5.350093   4.622892   0.000000
     6  H    5.843918   0.957200   6.413237   5.880696   1.513902
                    6
     6  H    0.000000
 Symmetry turned off by external request.
 Stoichiometry    H4O2
 Framework group  C1[X(H4O2)]
 Deg. of freedom    12
 Full point group                 C1      NOp   1
 Rotational constants (GHZ):         200.0864835           2.0647107           2.0614642
 Leave Link  202 at Fri May 15 22:36:20 2020, MaxMem=   134217728 cpu:               0.1 elap:               0.0
 (Enter /home/soft/g16/l301.exe)
 Standard basis: 6-31G(d,p) (5D, 7F)
 Ernie: Thresh=  0.10000D-02 Tol=  0.10000D-05 Strict=F.
    48 basis functions,    84 primitive gaussians,    50 cartesian basis functions
    10 alpha electrons       10 beta electrons
       nuclear repulsion energy        28.5156950258 Hartrees.
 IExCor=    0 DFT=F Ex=HF Corr=None ExCW=0 ScaHFX=  1.000000
 ScaDFX=  1.000000  1.000000  1.000000  1.000000 ScalE2=  1.000000  1.000000
 IRadAn=      5 IRanWt=     -1 IRanGd=            0 ICorTp=0 IEmpDi=  4
 NAtoms=    6 NActive=    6 NUniq=    6 SFac= 1.00D+00 NAtFMM=   60 NAOKFM=F Big=F
 Integral buffers will be    131072 words long.
 Raffenetti 1 integral format.
 Two-electron integral symmetry is turned off.
 Background charge distribution read from rwf.
 PtFMM for NChg=        96 BoxLen=    40.00 Levels= 1 LMax=20 SMax=    22.2 ICnFMM=     1:
 Self energy of the charges =       -14.5516674704 a.u.
 MM   energy of the charges =         0.0000000000 a.u.
 Nuclei-charges interaction =         0.3777856986 a.u.
 Nuclear repulsion after external point charges =       14.3418132539 Hartrees.
 Leave Link  301 at Fri May 15 22:36:20 2020, MaxMem=   134217728 cpu:               0.4 elap:               0.1
 (Enter /home/soft/g16/l302.exe)
 NPDir=0 NMtPBC=     1 NCelOv=     1 NCel=       1 NClECP=     1 NCelD=      1
         NCelK=      1 NCelE2=     1 NClLst=     1 CellRange=     0.0.
 One-electron integrals computed using PRISM.
 NBasis=    48 RedAO= T EigKep=  4.30D-02  NBF=    48
 NBsUse=    48 1.00D-06 EigRej= -1.00D+00 NBFU=    48
 Leave Link  302 at Fri May 15 22:36:20 2020, MaxMem=   134217728 cpu:               0.5 elap:               0.2
 (Enter /home/soft/g16/l303.exe)
 DipDrv:  MaxL=1.
 Leave Link  303 at Fri May 15 22:36:20 2020, MaxMem=   134217728 cpu:               0.1 elap:               0.1
 (Enter /home/soft/g16/l401.exe)
 ExpMin= 1.61D-01 ExpMax= 5.48D+03 ExpMxC= 8.25D+02 IAcc=3 IRadAn=         5 AccDes= 0.00D+00
 Harris functional with IExCor=  205 and IRadAn=       5 diagonalized for initial guess.
 HarFok:  IExCor=  205 AccDes= 0.00D+00 IRadAn=         5 IDoV= 1 UseB2=F ITyADJ=14
 ICtDFT=  3500011 ScaDFX=  1.000000  1.000000  1.000000  1.000000
 FoFCou: FMM=F IPFlag=           0 FMFlag=      100000 FMFlg1=           0
         NFxFlg=           0 DoJE=T BraDBF=F KetDBF=T FulRan=T
         wScrn=  0.000000 ICntrl=       500 IOpCl=  0 I1Cent=   200000004 NGrid=           0
         NMat0=    1 NMatS0=      1 NMatT0=    0 NMatD0=    1 NMtDS0=    0 NMtDT0=    0
 Symmetry not used in FoFCou.
 Harris En= -166.861987601237    
 JPrj=0 DoOrth=F DoCkMO=F.
 Leave Link  401 at Fri May 15 22:36:20 2020, MaxMem=   134217728 cpu:               0.9 elap:               0.2
 (Enter /home/soft/g16/l502.exe)
 Keep R1 ints in memory in canonical form, NReq=1528289.
 FoFCou: FMM=F IPFlag=           0 FMFlag=           0 FMFlg1=           0
         NFxFlg=           0 DoJE=F BraDBF=F KetDBF=F FulRan=T
         wScrn=  0.000000 ICntrl=       600 IOpCl=  0 I1Cent=           0 NGrid=           0
         NMat0=    1 NMatS0=   1176 NMatT0=    0 NMatD0=    1 NMtDS0=    0 NMtDT0=    0
 Symmetry not used in FoFCou.
 Two-electron integral symmetry not used.
 Closed shell SCF:
 Using DIIS extrapolation, IDIIS=  1040.
 NGot=   134217728 LenX=   133519768 LenY=   133516827
 Requested convergence on RMS density matrix=1.00D-08 within 128 cycles.
 Requested convergence on MAX density matrix=1.00D-06.
 Requested convergence on             energy=1.00D-06.
 No special actions if energy rises.

 Cycle   1  Pass 1  IDiag  1:
 E= -166.481335768419    
 DIIS: error= 6.45D-02 at cycle   1 NSaved=   1.
 NSaved= 1 IEnMin= 1 EnMin= -166.481335768419     IErMin= 1 ErrMin= 6.45D-02
 ErrMax= 6.45D-02  0.00D+00 EMaxC= 1.00D-01 BMatC= 2.69D-01 BMatP= 2.69D-01
 IDIUse=3 WtCom= 3.55D-01 WtEn= 6.45D-01
 Coeff-Com:  0.100D+01
 Coeff-En:   0.100D+01
 Coeff:      0.100D+01
 Gap=     0.561 Goal=   None    Shift=    0.000
 GapD=    0.561 DampG=2.000 DampE=0.500 DampFc=1.0000 IDamp=-1.
 RMSDP=8.79D-03 MaxDP=1.26D-01              OVMax= 1.32D-01

 Cycle   2  Pass 1  IDiag  1:
 E= -166.607761123882     Delta-E=       -0.126425355463 Rises=F Damp=F
 DIIS: error= 3.33D-02 at cycle   2 NSaved=   2.
 NSaved= 2 IEnMin= 2 EnMin= -166.607761123882     IErMin= 2 ErrMin= 3.33D-02
 ErrMax= 3.33D-02  0.00D+00 EMaxC= 1.00D-01 BMatC= 8.50D-02 BMatP= 2.69D-01
 IDIUse=3 WtCom= 6.67D-01 WtEn= 3.33D-01
 Coeff-Com:  0.349D+00 0.651D+00
 Coeff-En:   0.862D-01 0.914D+00
 Coeff:      0.262D+00 0.738D+00
 Gap=     0.703 Goal=   None    Shift=    0.000
 RMSDP=3.94D-03 MaxDP=5.32D-02 DE=-1.26D-01 OVMax= 4.77D-02

 Cycle   3  Pass 1  IDiag  1:
 E= -166.663751486897     Delta-E=       -0.055990363016 Rises=F Damp=F
 DIIS: error= 6.83D-03 at cycle   3 NSaved=   3.
 NSaved= 3 IEnMin= 3 EnMin= -166.663751486897     IErMin= 3 ErrMin= 6.83D-03
 ErrMax= 6.83D-03  0.00D+00 EMaxC= 1.00D-01 BMatC= 2.27D-03 BMatP= 8.50D-02
 IDIUse=3 WtCom= 9.32D-01 WtEn= 6.83D-02
 Coeff-Com: -0.313D-01 0.982D-01 0.933D+00
 Coeff-En:   0.000D+00 0.000D+00 0.100D+01
 Coeff:     -0.292D-01 0.915D-01 0.938D+00
 Gap=     0.687 Goal=   None    Shift=    0.000
 RMSDP=5.71D-04 MaxDP=8.68D-03 DE=-5.60D-02 OVMax= 9.88D-03

 Cycle   4  Pass 1  IDiag  1:
 E= -166.665491205212     Delta-E=       -0.001739718314 Rises=F Damp=F
 DIIS: error= 6.23D-04 at cycle   4 NSaved=   4.
 NSaved= 4 IEnMin= 4 EnMin= -166.665491205212     IErMin= 4 ErrMin= 6.23D-04
 ErrMax= 6.23D-04  0.00D+00 EMaxC= 1.00D-01 BMatC= 1.87D-05 BMatP= 2.27D-03
 IDIUse=3 WtCom= 9.94D-01 WtEn= 6.23D-03
 Coeff-Com:  0.566D-02-0.454D-01-0.266D+00 0.131D+01
 Coeff-En:   0.000D+00 0.000D+00 0.000D+00 0.100D+01
 Coeff:      0.562D-02-0.452D-01-0.265D+00 0.130D+01
 Gap=     0.689 Goal=   None    Shift=    0.000
 RMSDP=1.00D-04 MaxDP=1.15D-03 DE=-1.74D-03 OVMax= 1.57D-03

 Cycle   5  Pass 1  IDiag  1:
 E= -166.665517244209     Delta-E=       -0.000026038997 Rises=F Damp=F
 DIIS: error= 8.77D-05 at cycle   5 NSaved=   5.
 NSaved= 5 IEnMin= 5 EnMin= -166.665517244209     IErMin= 5 ErrMin= 8.77D-05
 ErrMax= 8.77D-05  0.00D+00 EMaxC= 1.00D-01 BMatC= 4.15D-07 BMatP= 1.87D-05
 IDIUse=1 WtCom= 1.00D+00 WtEn= 0.00D+00
 Coeff-Com:  0.108D-02-0.402D-02-0.322D-01 0.122D-02 0.103D+01
 Coeff:      0.108D-02-0.402D-02-0.322D-01 0.122D-02 0.103D+01
 Gap=     0.689 Goal=   None    Shift=    0.000
 RMSDP=2.00D-05 MaxDP=1.80D-04 DE=-2.60D-05 OVMax= 3.45D-04

 Cycle   6  Pass 1  IDiag  1:
 E= -166.665517988003     Delta-E=       -0.000000743794 Rises=F Damp=F
 DIIS: error= 2.50D-05 at cycle   6 NSaved=   6.
 NSaved= 6 IEnMin= 6 EnMin= -166.665517988003     IErMin= 6 ErrMin= 2.50D-05
 ErrMax= 2.50D-05  0.00D+00 EMaxC= 1.00D-01 BMatC= 5.14D-08 BMatP= 4.15D-07
 IDIUse=1 WtCom= 1.00D+00 WtEn= 0.00D+00
 Coeff-Com: -0.955D-04 0.182D-02 0.920D-02-0.808D-01 0.203D+00 0.867D+00
 Coeff:     -0.955D-04 0.182D-02 0.920D-02-0.808D-01 0.203D+00 0.867D+00
 Gap=     0.689 Goal=   None    Shift=    0.000
 RMSDP=5.36D-06 MaxDP=7.53D-05 DE=-7.44D-07 OVMax= 8.97D-05

 Cycle   7  Pass 1  IDiag  1:
 E= -166.665518050691     Delta-E=       -0.000000062688 Rises=F Damp=F
 DIIS: error= 6.79D-06 at cycle   7 NSaved=   7.
 NSaved= 7 IEnMin= 7 EnMin= -166.665518050691     IErMin= 7 ErrMin= 6.79D-06
 ErrMax= 6.79D-06  0.00D+00 EMaxC= 1.00D-01 BMatC= 3.09D-09 BMatP= 5.14D-08
 IDIUse=1 WtCom= 1.00D+00 WtEn= 0.00D+00
 Coeff-Com: -0.108D-03 0.435D-03 0.344D-02-0.182D-02-0.108D+00 0.206D-01
 Coeff-Com:  0.109D+01
 Coeff:     -0.108D-03 0.435D-03 0.344D-02-0.182D-02-0.108D+00 0.206D-01
 Coeff:      0.109D+01
 Gap=     0.689 Goal=   None    Shift=    0.000
 RMSDP=1.90D-06 MaxDP=2.12D-05 DE=-6.27D-08 OVMax= 3.43D-05

 Cycle   8  Pass 1  IDiag  1:
 E= -166.665518055926     Delta-E=       -0.000000005234 Rises=F Damp=F
 DIIS: error= 1.38D-06 at cycle   8 NSaved=   8.
 NSaved= 8 IEnMin= 8 EnMin= -166.665518055926     IErMin= 8 ErrMin= 1.38D-06
 ErrMax= 1.38D-06  0.00D+00 EMaxC= 1.00D-01 BMatC= 8.92D-11 BMatP= 3.09D-09
 IDIUse=1 WtCom= 1.00D+00 WtEn= 0.00D+00
 Coeff-Com:  0.410D-04-0.215D-03-0.157D-02 0.344D-02 0.348D-01-0.324D-01
 Coeff-Com: -0.398D+00 0.139D+01
 Coeff:      0.410D-04-0.215D-03-0.157D-02 0.344D-02 0.348D-01-0.324D-01
 Coeff:     -0.398D+00 0.139D+01
 Gap=     0.689 Goal=   None    Shift=    0.000
 RMSDP=3.01D-07 MaxDP=4.54D-06 DE=-5.23D-09 OVMax= 5.37D-06

 Cycle   9  Pass 1  IDiag  1:
 E= -166.665518056118     Delta-E=       -0.000000000192 Rises=F Damp=F
 DIIS: error= 2.16D-07 at cycle   9 NSaved=   9.
 NSaved= 9 IEnMin= 9 EnMin= -166.665518056118     IErMin= 9 ErrMin= 2.16D-07
 ErrMax= 2.16D-07  0.00D+00 EMaxC= 1.00D-01 BMatC= 1.97D-12 BMatP= 8.92D-11
 IDIUse=1 WtCom= 1.00D+00 WtEn= 0.00D+00
 Coeff-Com: -0.862D-05 0.507D-04 0.363D-03-0.110D-02-0.621D-02 0.918D-02
 Coeff-Com:  0.785D-01-0.390D+00 0.131D+01
 Coeff:     -0.862D-05 0.507D-04 0.363D-03-0.110D-02-0.621D-02 0.918D-02
 Coeff:      0.785D-01-0.390D+00 0.131D+01
 Gap=     0.689 Goal=   None    Shift=    0.000
 RMSDP=5.13D-08 MaxDP=6.27D-07 DE=-1.92D-10 OVMax= 9.51D-07

 Cycle  10  Pass 1  IDiag  1:
 E= -166.665518056123     Delta-E=       -0.000000000005 Rises=F Damp=F
 DIIS: error= 2.15D-08 at cycle  10 NSaved=  10.
 NSaved=10 IEnMin=10 EnMin= -166.665518056123     IErMin=10 ErrMin= 2.15D-08
 ErrMax= 2.15D-08  0.00D+00 EMaxC= 1.00D-01 BMatC= 5.42D-14 BMatP= 1.97D-12
 IDIUse=1 WtCom= 1.00D+00 WtEn= 0.00D+00
 Coeff-Com:  0.144D-05-0.925D-05-0.655D-04 0.241D-03 0.856D-03-0.191D-02
 Coeff-Com: -0.123D-01 0.801D-01-0.419D+00 0.135D+01
 Coeff:      0.144D-05-0.925D-05-0.655D-04 0.241D-03 0.856D-03-0.191D-02
 Coeff:     -0.123D-01 0.801D-01-0.419D+00 0.135D+01
 Gap=     0.689 Goal=   None    Shift=    0.000
 RMSDP=1.30D-08 MaxDP=1.29D-07 DE=-5.20D-12 OVMax= 2.25D-07

 Cycle  11  Pass 1  IDiag  1:
 E= -166.665518056123     Delta-E=        0.000000000000 Rises=F Damp=F
 DIIS: error= 5.48D-09 at cycle  11 NSaved=  11.
 NSaved=11 IEnMin=10 EnMin= -166.665518056123     IErMin=11 ErrMin= 5.48D-09
 ErrMax= 5.48D-09  0.00D+00 EMaxC= 1.00D-01 BMatC= 1.53D-15 BMatP= 5.42D-14
 IDIUse=1 WtCom= 1.00D+00 WtEn= 0.00D+00
 Coeff-Com:  0.794D-07-0.336D-06-0.235D-05-0.192D-05 0.914D-04-0.919D-05
 Coeff-Com: -0.835D-03 0.613D-03 0.190D-01-0.184D+00 0.116D+01
 Coeff:      0.794D-07-0.336D-06-0.235D-05-0.192D-05 0.914D-04-0.919D-05
 Coeff:     -0.835D-03 0.613D-03 0.190D-01-0.184D+00 0.116D+01
 Gap=     0.689 Goal=   None    Shift=    0.000
 RMSDP=1.91D-09 MaxDP=1.84D-08 DE= 8.53D-14 OVMax= 4.76D-08

 SCF Done:  E(RHF) =  -166.665518056     A.U. after   11 cycles
            NFock= 11  Conv=0.19D-08     -V/T= 2.0981
 KE= 1.517826316934D+02 PE=-4.189219237421D+02 EE= 8.613196073868D+01
 Leave Link  502 at Fri May 15 22:36:20 2020, MaxMem=   134217728 cpu:               0.6 elap:               0.2
 (Enter /home/soft/g16/l601.exe)
 Copying SCF densities to generalized density rwf, IOpCl= 0 IROHF=0.

 **********************************************************************

            Population analysis using the SCF density.

 **********************************************************************

 Alpha  occ. eigenvalues --  -20.58931 -20.54209  -1.37050  -1.32492  -0.73114
 Alpha  occ. eigenvalues --   -0.68423  -0.61453  -0.56418  -0.52845  -0.48834
 Alpha virt. eigenvalues --    0.20099   0.27006   0.29301   0.37538   0.97863
 Alpha virt. eigenvalues --    1.03209   1.06459   1.12056   1.12702   1.14803
 Alpha virt. eigenvalues --    1.17033   1.18761   1.26516   1.31973   1.56912
 Alpha virt. eigenvalues --    1.61816   1.77795   1.79480   1.82141   1.84008
 Alpha virt. eigenvalues --    1.88769   1.93403   2.55384   2.56310   2.60976
 Alpha virt. eigenvalues --    2.61172   2.77899   2.83334   2.95346   2.96527
 Alpha virt. eigenvalues --    3.00259   3.01406   3.34813   3.40315   3.71988
 Alpha virt. eigenvalues --    3.77866   3.89624   3.95304
          Condensed to atoms (all electrons):
               1          2          3          4          5          6
     1  O    8.165300  -0.000000   0.318693   0.315524   0.000002  -0.000000
     2  O   -0.000000   8.101079   0.000000   0.000000   0.319791   0.315622
     3  H    0.318693   0.000000   0.305846  -0.021384  -0.000000   0.000000
     4  H    0.315524   0.000000  -0.021384   0.303181   0.000000  -0.000000
     5  H    0.000002   0.319791  -0.000000   0.000000   0.338373  -0.025604
     6  H   -0.000000   0.315622   0.000000  -0.000000  -0.025604   0.340932
 Mulliken charges:
               1
     1  O   -0.799519
     2  O   -0.736492
     3  H    0.396845
     4  H    0.402679
     5  H    0.367437
     6  H    0.369050
 Sum of Mulliken charges =   0.00000
 Mulliken charges with hydrogens summed into heavy atoms:
               1
     1  O    0.000005
     2  O   -0.000005
 Electronic spatial extent (au):  <R**2>=          30167.3100
 Charge=              0.0000 electrons
 Dipole moment (field-independent basis, Debye):
    X=              2.7216    Y=             -3.0840    Z=              2.1781  Tot=              4.6543
 Quadrupole moment (field-independent basis, Debye-Ang):
   XX=             40.1225   YY=             62.3240   ZZ=            -61.0710
   XY=            -62.2884   XZ=            -16.4972   YZ=             18.1206
 Traceless Quadrupole moment (field-independent basis, Debye-Ang):
   XX=             26.3307   YY=             48.5322   ZZ=            -74.8628
   XY=            -62.2884   XZ=            -16.4972   YZ=             18.1206
 Octapole moment (field-independent basis, Debye-Ang**2):
  XXX=            410.9953  YYY=           -915.9948  ZZZ=           1305.8395  XYY=            991.5938
  XXY=           -775.2480  XXZ=           -359.4035  XZZ=            -69.0877  YZZ=             75.4536
  YYZ=           -590.4874  XYZ=            637.3189
 Hexadecapole moment (field-independent basis, Debye-Ang**3):
 XXXX=           3120.2108 YYYY=          11424.0952 ZZZZ=         -25429.1243 XXXY=          -7924.5376
 XXXZ=          -3871.8116 YYYX=         -13532.6831 YYYZ=           9722.1812 ZZZX=           5409.5569
 ZZZY=          -5644.3359 XXYY=          11747.2370 XXZZ=           2164.8095 YYZZ=           4784.4245
 XXYZ=           8787.5500 YYXZ=         -11383.4666 ZZXY=          -5865.6104
 N-N= 1.434181325395D+01 E-N=-4.189219238164D+02  KE= 1.517826316934D+02
 No NMR shielding tensors so no spin-rotation constants.
 Leave Link  601 at Fri May 15 22:36:21 2020, MaxMem=   134217728 cpu:               0.4 elap:               0.1
 (Enter /home/soft/g16/l607.exe)
 ******************************Gaussian NBO Version 3.1******************************
             N A T U R A L   A T O M I C   O R B I T A L   A N D
          N A T U R A L   B O N D   O R B I T A L   A N A L Y S I S
 ******************************Gaussian NBO Version 3.1******************************
       /RESON  / : Allow strongly delocalized NBO set

 Analyzing the SCF density

 Job title: Atom number=6                                                   

 Storage needed:      7158 in NPA ( 134217512 available)
 GSVD:  LWork=         960 too small for GESVD, short by        1512 words or        1512 for optimal perf.


 NATURAL POPULATIONS:  Natural atomic orbital occupancies 
                                                          
   NAO  Atom  No  lang   Type(AO)    Occupancy      Energy
 ----------------------------------------------------------
     1    O    1  S      Cor( 1S)     1.99987     -20.37889
     2    O    1  S      Val( 2S)     1.76067      -1.15126
     3    O    1  S      Ryd( 3S)     0.00084       1.70168
     4    O    1  px     Val( 2p)     1.68778      -0.38232
     5    O    1  px     Ryd( 3p)     0.00141       1.26369
     6    O    1  py     Val( 2p)     1.75089      -0.40448
     7    O    1  py     Ryd( 3p)     0.00141       1.23963
     8    O    1  pz     Val( 2p)     1.84990      -0.44290
     9    O    1  pz     Ryd( 3p)     0.00045       1.19218
    10    O    1  dxy    Ryd( 3d)     0.00053       2.53715
    11    O    1  dxz    Ryd( 3d)     0.00129       2.52225
    12    O    1  dyz    Ryd( 3d)     0.00144       2.72102
    13    O    1  dx2y2  Ryd( 3d)     0.00083       2.68974
    14    O    1  dz2    Ryd( 3d)     0.00132       2.36836

    15    O    2  S      Cor( 1S)     1.99986     -20.42777
    16    O    2  S      Val( 2S)     1.75687      -1.18993
    17    O    2  S      Ryd( 3S)     0.00117       1.64513
    18    O    2  px     Val( 2p)     1.91267      -0.50618
    19    O    2  px     Ryd( 3p)     0.00096       1.13693
    20    O    2  py     Val( 2p)     1.78378      -0.46601
    21    O    2  py     Ryd( 3p)     0.00052       1.16351
    22    O    2  pz     Val( 2p)     1.55325      -0.37568
    23    O    2  pz     Ryd( 3p)     0.00212       1.26328
    24    O    2  dxy    Ryd( 3d)     0.00138       2.31323
    25    O    2  dxz    Ryd( 3d)     0.00047       2.56349
    26    O    2  dyz    Ryd( 3d)     0.00147       2.90870
    27    O    2  dx2y2  Ryd( 3d)     0.00170       2.34941
    28    O    2  dz2    Ryd( 3d)     0.00020       2.48354

    29    H    3  S      Val( 1S)     0.46884       0.40478
    30    H    3  S      Ryd( 2S)     0.00046       0.75062
    31    H    3  px     Ryd( 2p)     0.00052       2.71469
    32    H    3  py     Ryd( 2p)     0.00132       3.09120
    33    H    3  pz     Ryd( 2p)     0.00108       2.93260

    34    H    4  S      Val( 1S)     0.46566       0.41331
    35    H    4  S      Ryd( 2S)     0.00047       0.75614
    36    H    4  px     Ryd( 2p)     0.00159       3.28723
    37    H    4  py     Ryd( 2p)     0.00067       2.73695
    38    H    4  pz     Ryd( 2p)     0.00077       2.72864

    39    H    5  S      Val( 1S)     0.48787       0.32786
    40    H    5  S      Ryd( 2S)     0.00084       0.69334
    41    H    5  px     Ryd( 2p)     0.00108       2.76107
    42    H    5  py     Ryd( 2p)     0.00076       2.70241
    43    H    5  pz     Ryd( 2p)     0.00113       3.10400

    44    H    6  S      Val( 1S)     0.48813       0.33067
    45    H    6  S      Ryd( 2S)     0.00080       0.69756
    46    H    6  px     Ryd( 2p)     0.00071       2.59106
    47    H    6  py     Ryd( 2p)     0.00121       2.99521
    48    H    6  pz     Ryd( 2p)     0.00103       2.98712


 Summary of Natural Population Analysis:                  
                                                          
                                       Natural Population 
                Natural  -----------------------------------------------
    Atom  No    Charge         Core      Valence    Rydberg      Total
 -----------------------------------------------------------------------
      O    1   -1.05861      1.99987     7.04924    0.00950     9.05861
      O    2   -1.01642      1.99986     7.00657    0.00999     9.01642
      H    3    0.52778      0.00000     0.46884    0.00338     0.47222
      H    4    0.53083      0.00000     0.46566    0.00350     0.46917
      H    5    0.50831      0.00000     0.48787    0.00382     0.49169
      H    6    0.50811      0.00000     0.48813    0.00376     0.49189
 =======================================================================
   * Total *    0.00000      3.99973    15.96632    0.03395    20.00000

                                 Natural Population      
 --------------------------------------------------------
   Core                       3.99973 ( 99.9933% of   4)
   Valence                   15.96632 ( 99.7895% of  16)
   Natural Minimal Basis     19.96605 ( 99.8302% of  20)
   Natural Rydberg Basis      0.03395 (  0.1698% of  20)
 --------------------------------------------------------

    Atom  No          Natural Electron Configuration
 ----------------------------------------------------------------------------
      O    1      [core]2S( 1.76)2p( 5.29)3d( 0.01)
      O    2      [core]2S( 1.76)2p( 5.25)3d( 0.01)
      H    3            1S( 0.47)
      H    4            1S( 0.47)
      H    5            1S( 0.49)
      H    6            1S( 0.49)


 NBO analysis skipped by request.
 Leave Link  607 at Fri May 15 22:36:21 2020, MaxMem=   134217728 cpu:               0.6 elap:               0.2
 (Enter /home/soft/g16/l9999.exe)

 Test job not archived.
 1\1\GINC-MASTER\SP\RHF\6-31G(d,p)\H4O2\LIWEI01\15-May-2020\0\\#p hf/6-
 31g** 5d 7f pop=npa charge nosymm\\Atom number=6\\0,1\O,0,8.392325,-11
 .812941,-11.200483\O,0,10.675204,-11.925165,-15.819193\H,0,8.175276,-1
 2.537815,-10.614239\H,0,9.252154,-11.5141,-10.904475\H,0,11.145373,-12
 .259719,-15.055487\H,0,10.769363,-12.612255,-16.478945\\Version=ES64L-
 G16RevA.03\HF=-166.6655181\RMSD=1.909e-09\Dipole=1.0707719,-1.2133367,
 0.8569143\Quadrupole=19.5762227,36.082469,-55.6586917,-46.3099269,-12.
 2652953,13.4722243\PG=C01 [X(H4O2)]\\@


 IT'S WHAT A FELLER THINKS HE KNOWS THAT HURTS HIM...
                    ------
           KIN HUBBARD
 Job cpu time:       0 days  0 hours  0 minutes  4.7 seconds.
 Elapsed time:       0 days  0 hours  0 minutes  1.4 seconds.
 File lengths (MBytes):  RWF=     72 Int=      0 D2E=      0 Chk=      8 Scr=      8
 Normal termination of Gaussian 16 at Fri May 15 22:36:21 2020.
