 Entering Gaussian System, Link 0=g16
 Input=w32_69.gjf
 Output=w32_69.log
 Initial command:
 /home/soft/g16/l1.exe "/tmp/liwei01/gaussian/wsr/Gau-8281.inp" -scrdir="/tmp/liwei01/gaussian/wsr/"
 Entering Link 1 = /home/soft/g16/l1.exe PID=      8282.
  
 Copyright (c) 1988,1990,1992,1993,1995,1998,2003,2009,2016,
            Gaussian, Inc.  All Rights Reserved.
  
 This is part of the Gaussian(R) 16 program.  It is based on
 the Gaussian(R) 09 system (copyright 2009, Gaussian, Inc.),
 the Gaussian(R) 03 system (copyright 2003, Gaussian, Inc.),
 the Gaussian(R) 98 system (copyright 1998, Gaussian, Inc.),
 the Gaussian(R) 94 system (copyright 1995, Gaussian, Inc.),
 the Gaussian 92(TM) system (copyright 1992, Gaussian, Inc.),
 the Gaussian 90(TM) system (copyright 1990, Gaussian, Inc.),
 the Gaussian 88(TM) system (copyright 1988, Gaussian, Inc.),
 the Gaussian 86(TM) system (copyright 1986, Carnegie Mellon
 University), and the Gaussian 82(TM) system (copyright 1983,
 Carnegie Mellon University). Gaussian is a federally registered
 trademark of Gaussian, Inc.
  
 This software contains proprietary and confidential information,
 including trade secrets, belonging to Gaussian, Inc.
  
 This software is provided under written license and may be
 used, copied, transmitted, or stored only in accord with that
 written license.
  
 The following legend is applicable only to US Government
 contracts under FAR:
  
                    RESTRICTED RIGHTS LEGEND
  
 Use, reproduction and disclosure by the US Government is
 subject to restrictions as set forth in subparagraphs (a)
 and (c) of the Commercial Computer Software - Restricted
 Rights clause in FAR 52.227-19.
  
 Gaussian, Inc.
 340 Quinnipiac St., Bldg. 40, Wallingford CT 06492
  
  
 ---------------------------------------------------------------
 Warning -- This program may not be used in any manner that
 competes with the business of Gaussian, Inc. or will provide
 assistance to any competitor of Gaussian, Inc.  The licensee
 of this program is prohibited from giving any competitor of
 Gaussian, Inc. access to this program.  By using this program,
 the user acknowledges that Gaussian, Inc. is engaged in the
 business of creating and licensing software in the field of
 computational chemistry and represents and warrants to the
 licensee that it is not a competitor of Gaussian, Inc. and that
 it will not use this program in any manner prohibited above.
 ---------------------------------------------------------------
  

 Cite this work as:
 Gaussian 16, Revision A.03,
 M. J. Frisch, G. W. Trucks, H. B. Schlegel, G. E. Scuseria, 
 M. A. Robb, J. R. Cheeseman, G. Scalmani, V. Barone, 
 G. A. Petersson, H. Nakatsuji, X. Li, M. Caricato, A. V. Marenich, 
 J. Bloino, B. G. Janesko, R. Gomperts, B. Mennucci, H. P. Hratchian, 
 J. V. Ortiz, A. F. Izmaylov, J. L. Sonnenberg, D. Williams-Young, 
 F. Ding, F. Lipparini, F. Egidi, J. Goings, B. Peng, A. Petrone, 
 T. Henderson, D. Ranasinghe, V. G. Zakrzewski, J. Gao, N. Rega, 
 G. Zheng, W. Liang, M. Hada, M. Ehara, K. Toyota, R. Fukuda, 
 J. Hasegawa, M. Ishida, T. Nakajima, Y. Honda, O. Kitao, H. Nakai, 
 T. Vreven, K. Throssell, J. A. Montgomery, Jr., J. E. Peralta, 
 F. Ogliaro, M. J. Bearpark, J. J. Heyd, E. N. Brothers, K. N. Kudin, 
 V. N. Staroverov, T. A. Keith, R. Kobayashi, J. Normand, 
 K. Raghavachari, A. P. Rendell, J. C. Burant, S. S. Iyengar, 
 J. Tomasi, M. Cossi, J. M. Millam, M. Klene, C. Adamo, R. Cammi, 
 J. W. Ochterski, R. L. Martin, K. Morokuma, O. Farkas, 
 J. B. Foresman, and D. J. Fox, Gaussian, Inc., Wallingford CT, 2016.
 
 ******************************************
 Gaussian 16:  ES64L-G16RevA.03 25-Dec-2016
                15-May-2020 
 ******************************************
 %chk=w32_69.chk
 %nproc=4
 Will use up to    4 processors via shared memory.
 %mem=1gb
 -----------------------------------------
 #p hf/6-31g** 5d 7f pop=npa charge nosymm
 -----------------------------------------
 1/18=10,28=-2,38=1,125=101,172=1/1;
 2/12=2,15=1,17=6,18=5,40=1/2;
 3/5=1,6=6,7=101,8=11,11=9,25=1,30=1/1,2,3;
 4//1;
 5/5=2,38=5/2;
 6/7=2,8=2,9=2,10=2,28=1,40=-1/1,7;
 99/5=1,9=1/99;
 Leave Link    1 at Fri May 15 22:36:13 2020, MaxMem=   134217728 cpu:               0.3 elap:               0.1
 (Enter /home/soft/g16/l101.exe)
 -------------
 Atom number=9
 -------------
 Symbolic Z-matrix:
 Charge =  0 Multiplicity = 1
 o                     12.99603  -14.71385  -11.21004 
 o                     11.4715  -15.35532  -7.51802 
 o                     11.32445  -17.01159  -10.76277 
 h                     12.28642  -15.16188  -10.74966 
 h                     13.63566  -14.51236  -10.52702 
 h                     10.8644  -15.35575  -8.25807 
 h                     11.90754  -14.50454  -7.56581 
 h                     11.71654  -17.86331  -10.57021 
 h                     10.44278  -17.06436  -10.39385 
 
 ITRead=  0  0  0  0  0  0  0  0  0
 MicOpt= -1 -1 -1 -1 -1 -1 -1 -1 -1
 NAtoms=      9 NQM=        9 NQMF=       0 NMMI=      0 NMMIF=      0
                NMic=       0 NMicF=      0.
                    Isotopes and Nuclear Properties:
 (Nuclear quadrupole moments (NQMom) in fm**2, nuclear magnetic moments (NMagM)
  in nuclear magnetons)

  Atom         1           2           3           4           5           6           7           8           9
 IAtWgt=          16          16          16           1           1           1           1           1           1
 AtmWgt=  15.9949146  15.9949146  15.9949146   1.0078250   1.0078250   1.0078250   1.0078250   1.0078250   1.0078250
 NucSpn=           0           0           0           1           1           1           1           1           1
 AtZEff=  -0.0000000  -0.0000000  -0.0000000  -0.0000000  -0.0000000  -0.0000000  -0.0000000  -0.0000000  -0.0000000
 NQMom=    0.0000000   0.0000000   0.0000000   0.0000000   0.0000000   0.0000000   0.0000000   0.0000000   0.0000000
 NMagM=    0.0000000   0.0000000   0.0000000   2.7928460   2.7928460   2.7928460   2.7928460   2.7928460   2.7928460
 AtZNuc=   8.0000000   8.0000000   8.0000000   1.0000000   1.0000000   1.0000000   1.0000000   1.0000000   1.0000000
 Background charge distribution read from input stream:
 Point Charges:
 XYZ=    8.3923  -11.8129  -11.2005 Q=   -1.0561 A=    0.0000 R=    0.0000 C=    0.0000
 XYZ=    8.1753  -12.5378  -10.6142 Q=    0.5233 A=    0.0000 R=    0.0000 C=    0.0000
 XYZ=    9.2522  -11.5141  -10.9045 Q=    0.5177 A=    0.0000 R=    0.0000 C=    0.0000
 XYZ=   10.7060  -10.8489  -10.0915 Q=   -1.0357 A=    0.0000 R=    0.0000 C=    0.0000
 XYZ=   11.5214  -11.3203   -9.9208 Q=    0.5206 A=    0.0000 R=    0.0000 C=    0.0000
 XYZ=   10.5678  -10.3169   -9.3078 Q=    0.5156 A=    0.0000 R=    0.0000 C=    0.0000
 XYZ=    8.6932  -14.0693   -9.5471 Q=   -1.0099 A=    0.0000 R=    0.0000 C=    0.0000
 XYZ=    8.2201  -13.7327   -8.7861 Q=    0.4999 A=    0.0000 R=    0.0000 C=    0.0000
 XYZ=    8.5528  -15.0157   -9.5178 Q=    0.5079 A=    0.0000 R=    0.0000 C=    0.0000
 XYZ=    7.2503   -9.8596  -13.1035 Q=   -1.0243 A=    0.0000 R=    0.0000 C=    0.0000
 XYZ=    7.1207  -10.2215  -13.9801 Q=    0.5152 A=    0.0000 R=    0.0000 C=    0.0000
 XYZ=    7.3415  -10.6267  -12.5383 Q=    0.5154 A=    0.0000 R=    0.0000 C=    0.0000
 XYZ=    5.5704  -12.7600  -10.7338 Q=   -1.0500 A=    0.0000 R=    0.0000 C=    0.0000
 XYZ=    4.6427  -12.8278  -10.5079 Q=    0.5214 A=    0.0000 R=    0.0000 C=    0.0000
 XYZ=    5.9838  -12.4052   -9.9468 Q=    0.5064 A=    0.0000 R=    0.0000 C=    0.0000
 XYZ=    6.9662   -9.2478  -10.2743 Q=   -1.0324 A=    0.0000 R=    0.0000 C=    0.0000
 XYZ=    6.9752   -9.8450  -11.0223 Q=    0.5142 A=    0.0000 R=    0.0000 C=    0.0000
 XYZ=    7.6844   -8.6385  -10.4451 Q=    0.5185 A=    0.0000 R=    0.0000 C=    0.0000
 XYZ=    6.9426  -11.8294   -8.3710 Q=   -1.0528 A=    0.0000 R=    0.0000 C=    0.0000
 XYZ=    7.4956  -12.0911   -7.6348 Q=    0.5210 A=    0.0000 R=    0.0000 C=    0.0000
 XYZ=    7.3075  -10.9928   -8.6597 Q=    0.5255 A=    0.0000 R=    0.0000 C=    0.0000
 XYZ=    9.7397  -14.5602  -13.0841 Q=   -1.0029 A=    0.0000 R=    0.0000 C=    0.0000
 XYZ=    9.4367  -13.9209  -12.4394 Q=    0.5215 A=    0.0000 R=    0.0000 C=    0.0000
 XYZ=   10.6527  -14.3230  -13.2466 Q=    0.4988 A=    0.0000 R=    0.0000 C=    0.0000
 XYZ=   10.0849   -9.6030  -13.6944 Q=   -1.0549 A=    0.0000 R=    0.0000 C=    0.0000
 XYZ=    9.8380   -9.8779  -14.5774 Q=    0.5180 A=    0.0000 R=    0.0000 C=    0.0000
 XYZ=    9.2671   -9.6284  -13.1976 Q=    0.5226 A=    0.0000 R=    0.0000 C=    0.0000
 XYZ=    9.4738   -7.9972  -10.9180 Q=   -0.9971 A=    0.0000 R=    0.0000 C=    0.0000
 XYZ=    9.9975   -8.7956  -10.8516 Q=    0.5301 A=    0.0000 R=    0.0000 C=    0.0000
 XYZ=    9.6234   -7.5424  -10.0892 Q=    0.4920 A=    0.0000 R=    0.0000 C=    0.0000
 XYZ=    8.4516  -10.6356  -15.6859 Q=   -1.0322 A=    0.0000 R=    0.0000 C=    0.0000
 XYZ=    8.1250  -10.4069  -16.5562 Q=    0.4798 A=    0.0000 R=    0.0000 C=    0.0000
 XYZ=    9.2622  -11.1166  -15.8526 Q=    0.5341 A=    0.0000 R=    0.0000 C=    0.0000
 XYZ=    4.0391  -11.2243  -12.8044 Q=   -0.9921 A=    0.0000 R=    0.0000 C=    0.0000
 XYZ=    4.5248  -12.0476  -12.7552 Q=    0.4802 A=    0.0000 R=    0.0000 C=    0.0000
 XYZ=    4.4321  -10.7575  -13.5420 Q=    0.5046 A=    0.0000 R=    0.0000 C=    0.0000
 XYZ=    5.5848  -15.5922  -11.4699 Q=   -1.0129 A=    0.0000 R=    0.0000 C=    0.0000
 XYZ=    4.6785  -15.3483  -11.6582 Q=    0.5050 A=    0.0000 R=    0.0000 C=    0.0000
 XYZ=    6.0031  -14.7735  -11.2032 Q=    0.5257 A=    0.0000 R=    0.0000 C=    0.0000
 XYZ=    8.8013  -12.4259   -6.4973 Q=   -0.9852 A=    0.0000 R=    0.0000 C=    0.0000
 XYZ=    9.0556  -11.7490   -5.8701 Q=    0.5006 A=    0.0000 R=    0.0000 C=    0.0000
 XYZ=    8.9395  -13.2499   -6.0303 Q=    0.5083 A=    0.0000 R=    0.0000 C=    0.0000
 XYZ=   10.5523   -9.0602   -7.7657 Q=   -0.9799 A=    0.0000 R=    0.0000 C=    0.0000
 XYZ=   10.0296   -9.4526   -7.0665 Q=    0.5003 A=    0.0000 R=    0.0000 C=    0.0000
 XYZ=   10.0576   -8.2839   -8.0284 Q=    0.4937 A=    0.0000 R=    0.0000 C=    0.0000
 XYZ=    8.4919  -14.1596  -15.7110 Q=   -0.9823 A=    0.0000 R=    0.0000 C=    0.0000
 XYZ=    8.8439  -15.0437  -15.8144 Q=    0.4799 A=    0.0000 R=    0.0000 C=    0.0000
 XYZ=    8.9183  -13.8221  -14.9233 Q=    0.4950 A=    0.0000 R=    0.0000 C=    0.0000
 XYZ=   10.6752  -11.9252  -15.8192 Q=   -0.9837 A=    0.0000 R=    0.0000 C=    0.0000
 XYZ=   11.1454  -12.2597  -15.0555 Q=    0.5055 A=    0.0000 R=    0.0000 C=    0.0000
 XYZ=   10.7694  -12.6123  -16.4789 Q=    0.5125 A=    0.0000 R=    0.0000 C=    0.0000
 XYZ=    7.7593  -16.5050  -13.2460 Q=   -1.0112 A=    0.0000 R=    0.0000 C=    0.0000
 XYZ=    7.3079  -16.2111  -12.4547 Q=    0.4926 A=    0.0000 R=    0.0000 C=    0.0000
 XYZ=    8.5373  -15.9498  -13.2987 Q=    0.4973 A=    0.0000 R=    0.0000 C=    0.0000
 XYZ=   13.4576  -11.7733   -9.7740 Q=   -0.9993 A=    0.0000 R=    0.0000 C=    0.0000
 XYZ=   13.9089  -10.9962  -10.1037 Q=    0.5128 A=    0.0000 R=    0.0000 C=    0.0000
 XYZ=   14.1508  -12.4236   -9.6612 Q=    0.5076 A=    0.0000 R=    0.0000 C=    0.0000
 XYZ=    5.5914  -15.5335   -8.7002 Q=   -1.0162 A=    0.0000 R=    0.0000 C=    0.0000
 XYZ=    6.3093  -16.0707   -8.3652 Q=    0.4831 A=    0.0000 R=    0.0000 C=    0.0000
 XYZ=    5.4763  -15.8239   -9.6050 Q=    0.5237 A=    0.0000 R=    0.0000 C=    0.0000
 XYZ=    5.3398  -11.2122  -15.4745 Q=   -0.9760 A=    0.0000 R=    0.0000 C=    0.0000
 XYZ=    5.8801  -10.4587  -15.7120 Q=    0.4863 A=    0.0000 R=    0.0000 C=    0.0000
 XYZ=    5.4896  -11.8457  -16.1763 Q=    0.4965 A=    0.0000 R=    0.0000 C=    0.0000
 XYZ=    4.6413   -8.1383  -12.6711 Q=   -0.9897 A=    0.0000 R=    0.0000 C=    0.0000
 XYZ=    4.5978   -7.2720  -12.2662 Q=    0.4876 A=    0.0000 R=    0.0000 C=    0.0000
 XYZ=    5.5765   -8.3384  -12.7100 Q=    0.4969 A=    0.0000 R=    0.0000 C=    0.0000
 XYZ=    8.9611  -17.0167   -9.2755 Q=   -0.9921 A=    0.0000 R=    0.0000 C=    0.0000
 XYZ=    8.6736  -17.2191   -8.3852 Q=    0.5092 A=    0.0000 R=    0.0000 C=    0.0000
 XYZ=    8.3026  -17.4234   -9.8386 Q=    0.5103 A=    0.0000 R=    0.0000 C=    0.0000
 XYZ=   12.8900   -9.6906  -13.7511 Q=   -0.9984 A=    0.0000 R=    0.0000 C=    0.0000
 XYZ=   13.4884   -9.8459  -13.0204 Q=    0.4670 A=    0.0000 R=    0.0000 C=    0.0000
 XYZ=   12.0171   -9.7427  -13.3618 Q=    0.5160 A=    0.0000 R=    0.0000 C=    0.0000
 XYZ=    4.9070   -7.9100   -9.1300 Q=   -1.0105 A=    0.0000 R=    0.0000 C=    0.0000
 XYZ=    4.0635   -8.0265   -9.5674 Q=    0.4764 A=    0.0000 R=    0.0000 C=    0.0000
 XYZ=    5.4227   -8.6710   -9.3968 Q=    0.5176 A=    0.0000 R=    0.0000 C=    0.0000
 XYZ=    2.9547  -12.7024   -9.8757 Q=   -0.9915 A=    0.0000 R=    0.0000 C=    0.0000
 XYZ=    3.0641  -13.5048   -9.3654 Q=    0.5019 A=    0.0000 R=    0.0000 C=    0.0000
 XYZ=    2.7384  -12.0329   -9.2268 Q=    0.5105 A=    0.0000 R=    0.0000 C=    0.0000
 XYZ=    4.2108  -13.3306   -7.5546 Q=   -1.0293 A=    0.0000 R=    0.0000 C=    0.0000
 XYZ=    4.9638  -12.7453   -7.4735 Q=    0.4979 A=    0.0000 R=    0.0000 C=    0.0000
 XYZ=    4.5835  -14.1618   -7.8486 Q=    0.5197 A=    0.0000 R=    0.0000 C=    0.0000
 XYZ=    8.5389   -6.2611  -12.9484 Q=   -1.0019 A=    0.0000 R=    0.0000 C=    0.0000
 XYZ=    8.8800   -6.8491  -12.2745 Q=    0.5098 A=    0.0000 R=    0.0000 C=    0.0000
 XYZ=    9.2767   -6.1230  -13.5423 Q=    0.4773 A=    0.0000 R=    0.0000 C=    0.0000
 XYZ=   12.8138  -13.0185   -7.3663 Q=   -0.9959 A=    0.0000 R=    0.0000 C=    0.0000
 XYZ=   12.4819  -12.4171   -6.6996 Q=    0.4994 A=    0.0000 R=    0.0000 C=    0.0000
 XYZ=   12.6552  -12.5682   -8.1960 Q=    0.5110 A=    0.0000 R=    0.0000 C=    0.0000
 Pt Chg Charge=              0.0427 electrons
 Pt Chg Dipole moment (Debye):
    X=             21.0102    Y=             -9.5945    Z=             12.1972  Tot=             26.1200
 Pt Chg Quadrupole moment (Debye-Ang):
   XX=            326.7011   YY=            193.0647   ZZ=           -205.8399
   XY=           -278.2530   XZ=           -111.5456   YZ=            -63.6781
 Pt Chg Traceless Quadrupole moment (Debye-Ang):
   XX=            222.0592   YY=             88.4227   ZZ=           -310.4819
   XY=           -278.2530   XZ=           -111.5456   YZ=            -63.6781
 Pt Chg Octapole moment (Debye-Ang**2):
  XXX=           4332.7800  YYY=          -3337.5791  ZZZ=           2115.5590  XYY=           3639.4891
  XXY=          -3919.4996  XXZ=          -2578.1003  XZZ=            723.0707  YZZ=           1498.2090
  YYZ=             93.1718  XYZ=           1824.5961
 Pt Chg Hexadecapole moment (Debye-Ang**3):
 XXXX=          56957.7515 YYYY=          55426.7591 ZZZZ=          -7586.5848 XXXY=         -50295.6101
 XXXZ=         -38963.2030 YYYX=         -47882.2271 YYYZ=           4342.7946 ZZZX=         -10647.4106
 ZZZY=         -14019.9978 XXYY=          47329.7258 XXZZ=          24198.8330 YYZZ=         -12212.5185
 XXYZ=          34590.1932 YYXZ=         -25694.9281 ZZXY=         -16531.7554
 Leave Link  101 at Fri May 15 22:36:13 2020, MaxMem=   134217728 cpu:               0.5 elap:               0.1
 (Enter /home/soft/g16/l202.exe)
                          Input orientation:                          
 ---------------------------------------------------------------------
 Center     Atomic      Atomic             Coordinates (Angstroms)
 Number     Number       Type             X           Y           Z
 ---------------------------------------------------------------------
      1          8           0       12.996031  -14.713850  -11.210036
      2          8           0       11.471495  -15.355316   -7.518016
      3          8           0       11.324452  -17.011592  -10.762770
      4          1           0       12.286420  -15.161884  -10.749655
      5          1           0       13.635659  -14.512360  -10.527021
      6          1           0       10.864403  -15.355750   -8.258065
      7          1           0       11.907538  -14.504542   -7.565812
      8          1           0       11.716545  -17.863306  -10.570212
      9          1           0       10.442780  -17.064361  -10.393850
 ---------------------------------------------------------------------
                    Distance matrix (angstroms):
                    1          2          3          4          5
     1  O    0.000000
     2  O    4.045578   0.000000
     3  O    2.876429   3.645998   0.000000
     4  H    0.957201   3.338414   2.084940   0.000000
     5  H    0.957200   3.801091   3.412245   1.513900   0.000000
     6  H    3.697297   0.957201   3.037599   2.875367   3.679583
     7  H    3.809068   0.957201   4.104367   3.272997   3.428589
     8  H    3.459123   3.958025   0.957200   2.766702   3.861826
     9  H    3.565130   3.499930   0.957200   2.673018   4.089611
                    6          7          8          9
     6  H    0.000000
     7  H    1.513902   0.000000
     8  H    3.515680   4.510454   0.000000
     9  H    2.767435   4.086072   1.513900   0.000000
 Symmetry turned off by external request.
 Stoichiometry    H6O3
 Framework group  C1[X(H6O3)]
 Deg. of freedom    21
 Full point group                 C1      NOp   1
 Rotational constants (GHZ):           6.4348885           3.3304859           2.2301896
 Leave Link  202 at Fri May 15 22:36:13 2020, MaxMem=   134217728 cpu:               0.0 elap:               0.0
 (Enter /home/soft/g16/l301.exe)
 Standard basis: 6-31G(d,p) (5D, 7F)
 Ernie: Thresh=  0.10000D-02 Tol=  0.10000D-05 Strict=F.
    72 basis functions,   126 primitive gaussians,    75 cartesian basis functions
    15 alpha electrons       15 beta electrons
       nuclear repulsion energy        73.9323560720 Hartrees.
 IExCor=    0 DFT=F Ex=HF Corr=None ExCW=0 ScaHFX=  1.000000
 ScaDFX=  1.000000  1.000000  1.000000  1.000000 ScalE2=  1.000000  1.000000
 IRadAn=      5 IRanWt=     -1 IRanGd=            0 ICorTp=0 IEmpDi=  4
 NAtoms=    9 NActive=    9 NUniq=    9 SFac= 1.00D+00 NAtFMM=   60 NAOKFM=F Big=F
 Integral buffers will be    131072 words long.
 Raffenetti 1 integral format.
 Two-electron integral symmetry is turned off.
 Background charge distribution read from rwf.
 PtFMM for NChg=        96 BoxLen=    40.00 Levels= 1 LMax=20 SMax=    22.2 ICnFMM=     1:
 Self energy of the charges =       -14.1769434869 a.u.
 MM   energy of the charges =         0.0000000000 a.u.
 Nuclei-charges interaction =         0.1554526992 a.u.
 Nuclear repulsion after external point charges =       59.9108652843 Hartrees.
 Leave Link  301 at Fri May 15 22:36:13 2020, MaxMem=   134217728 cpu:               0.2 elap:               0.1
 (Enter /home/soft/g16/l302.exe)
 NPDir=0 NMtPBC=     1 NCelOv=     1 NCel=       1 NClECP=     1 NCelD=      1
         NCelK=      1 NCelE2=     1 NClLst=     1 CellRange=     0.0.
 One-electron integrals computed using PRISM.
 NBasis=    72 RedAO= T EigKep=  3.38D-02  NBF=    72
 NBsUse=    72 1.00D-06 EigRej= -1.00D+00 NBFU=    72
 Leave Link  302 at Fri May 15 22:36:13 2020, MaxMem=   134217728 cpu:               0.4 elap:               0.1
 (Enter /home/soft/g16/l303.exe)
 DipDrv:  MaxL=1.
 Leave Link  303 at Fri May 15 22:36:13 2020, MaxMem=   134217728 cpu:               0.1 elap:               0.0
 (Enter /home/soft/g16/l401.exe)
 ExpMin= 1.61D-01 ExpMax= 5.48D+03 ExpMxC= 8.25D+02 IAcc=3 IRadAn=         5 AccDes= 0.00D+00
 Harris functional with IExCor=  205 and IRadAn=       5 diagonalized for initial guess.
 HarFok:  IExCor=  205 AccDes= 0.00D+00 IRadAn=         5 IDoV= 1 UseB2=F ITyADJ=14
 ICtDFT=  3500011 ScaDFX=  1.000000  1.000000  1.000000  1.000000
 FoFCou: FMM=F IPFlag=           0 FMFlag=      100000 FMFlg1=           0
         NFxFlg=           0 DoJE=T BraDBF=F KetDBF=T FulRan=T
         wScrn=  0.000000 ICntrl=       500 IOpCl=  0 I1Cent=   200000004 NGrid=           0
         NMat0=    1 NMatS0=      1 NMatT0=    0 NMatD0=    1 NMtDS0=    0 NMtDT0=    0
 Symmetry not used in FoFCou.
 Harris En= -242.557767134395    
 JPrj=0 DoOrth=F DoCkMO=F.
 Leave Link  401 at Fri May 15 22:36:13 2020, MaxMem=   134217728 cpu:               1.1 elap:               0.3
 (Enter /home/soft/g16/l502.exe)
 Keep R1 ints in memory in canonical form, NReq=4306840.
 FoFCou: FMM=F IPFlag=           0 FMFlag=           0 FMFlg1=           0
         NFxFlg=           0 DoJE=F BraDBF=F KetDBF=F FulRan=T
         wScrn=  0.000000 ICntrl=       600 IOpCl=  0 I1Cent=           0 NGrid=           0
         NMat0=    1 NMatS0=   2628 NMatT0=    0 NMatD0=    1 NMtDS0=    0 NMtDT0=    0
 Symmetry not used in FoFCou.
 Two-electron integral symmetry not used.
 Closed shell SCF:
 Using DIIS extrapolation, IDIIS=  1040.
 NGot=   134217728 LenX=   130750732 LenY=   130744666
 Requested convergence on RMS density matrix=1.00D-08 within 128 cycles.
 Requested convergence on MAX density matrix=1.00D-06.
 Requested convergence on             energy=1.00D-06.
 No special actions if energy rises.

 Cycle   1  Pass 1  IDiag  1:
 E= -242.042154715548    
 DIIS: error= 5.70D-02 at cycle   1 NSaved=   1.
 NSaved= 1 IEnMin= 1 EnMin= -242.042154715548     IErMin= 1 ErrMin= 5.70D-02
 ErrMax= 5.70D-02  0.00D+00 EMaxC= 1.00D-01 BMatC= 3.60D-01 BMatP= 3.60D-01
 IDIUse=3 WtCom= 4.30D-01 WtEn= 5.70D-01
 Coeff-Com:  0.100D+01
 Coeff-En:   0.100D+01
 Coeff:      0.100D+01
 Gap=     0.587 Goal=   None    Shift=    0.000
 GapD=    0.587 DampG=2.000 DampE=0.500 DampFc=1.0000 IDamp=-1.
 RMSDP=6.88D-03 MaxDP=1.22D-01              OVMax= 1.26D-01

 Cycle   2  Pass 1  IDiag  1:
 E= -242.208381214159     Delta-E=       -0.166226498611 Rises=F Damp=F
 DIIS: error= 3.01D-02 at cycle   2 NSaved=   2.
 NSaved= 2 IEnMin= 2 EnMin= -242.208381214159     IErMin= 2 ErrMin= 3.01D-02
 ErrMax= 3.01D-02  0.00D+00 EMaxC= 1.00D-01 BMatC= 1.12D-01 BMatP= 3.60D-01
 IDIUse=3 WtCom= 6.99D-01 WtEn= 3.01D-01
 Coeff-Com:  0.347D+00 0.653D+00
 Coeff-En:   0.882D-01 0.912D+00
 Coeff:      0.269D+00 0.731D+00
 Gap=     0.683 Goal=   None    Shift=    0.000
 RMSDP=3.12D-03 MaxDP=5.06D-02 DE=-1.66D-01 OVMax= 4.55D-02

 Cycle   3  Pass 1  IDiag  1:
 E= -242.283173822930     Delta-E=       -0.074792608771 Rises=F Damp=F
 DIIS: error= 6.01D-03 at cycle   3 NSaved=   3.
 NSaved= 3 IEnMin= 3 EnMin= -242.283173822930     IErMin= 3 ErrMin= 6.01D-03
 ErrMax= 6.01D-03  0.00D+00 EMaxC= 1.00D-01 BMatC= 2.76D-03 BMatP= 1.12D-01
 IDIUse=3 WtCom= 9.40D-01 WtEn= 6.01D-02
 Coeff-Com: -0.326D-01 0.905D-01 0.942D+00
 Coeff-En:   0.000D+00 0.000D+00 0.100D+01
 Coeff:     -0.307D-01 0.851D-01 0.946D+00
 Gap=     0.670 Goal=   None    Shift=    0.000
 RMSDP=4.33D-04 MaxDP=7.67D-03 DE=-7.48D-02 OVMax= 9.04D-03

 Cycle   4  Pass 1  IDiag  1:
 E= -242.285333289361     Delta-E=       -0.002159466431 Rises=F Damp=F
 DIIS: error= 4.45D-04 at cycle   4 NSaved=   4.
 NSaved= 4 IEnMin= 4 EnMin= -242.285333289361     IErMin= 4 ErrMin= 4.45D-04
 ErrMax= 4.45D-04  0.00D+00 EMaxC= 1.00D-01 BMatC= 2.43D-05 BMatP= 2.76D-03
 IDIUse=3 WtCom= 9.96D-01 WtEn= 4.45D-03
 Coeff-Com:  0.704D-02-0.449D-01-0.301D+00 0.134D+01
 Coeff-En:   0.000D+00 0.000D+00 0.000D+00 0.100D+01
 Coeff:      0.701D-02-0.447D-01-0.300D+00 0.134D+01
 Gap=     0.672 Goal=   None    Shift=    0.000
 RMSDP=9.86D-05 MaxDP=1.07D-03 DE=-2.16D-03 OVMax= 1.96D-03

 Cycle   5  Pass 1  IDiag  1:
 E= -242.285374538604     Delta-E=       -0.000041249244 Rises=F Damp=F
 DIIS: error= 1.18D-04 at cycle   5 NSaved=   5.
 NSaved= 5 IEnMin= 5 EnMin= -242.285374538604     IErMin= 5 ErrMin= 1.18D-04
 ErrMax= 1.18D-04  0.00D+00 EMaxC= 1.00D-01 BMatC= 7.63D-07 BMatP= 2.43D-05
 IDIUse=3 WtCom= 9.99D-01 WtEn= 1.18D-03
 Coeff-Com:  0.138D-02-0.551D-02-0.433D-01 0.534D-01 0.994D+00
 Coeff-En:   0.000D+00 0.000D+00 0.000D+00 0.000D+00 0.100D+01
 Coeff:      0.138D-02-0.550D-02-0.433D-01 0.533D-01 0.994D+00
 Gap=     0.672 Goal=   None    Shift=    0.000
 RMSDP=1.80D-05 MaxDP=3.11D-04 DE=-4.12D-05 OVMax= 3.36D-04

 Cycle   6  Pass 1  IDiag  1:
 E= -242.285375830259     Delta-E=       -0.000001291654 Rises=F Damp=F
 DIIS: error= 3.35D-05 at cycle   6 NSaved=   6.
 NSaved= 6 IEnMin= 6 EnMin= -242.285375830259     IErMin= 6 ErrMin= 3.35D-05
 ErrMax= 3.35D-05  0.00D+00 EMaxC= 1.00D-01 BMatC= 1.10D-07 BMatP= 7.63D-07
 IDIUse=1 WtCom= 1.00D+00 WtEn= 0.00D+00
 Coeff-Com: -0.370D-03 0.312D-02 0.203D-01-0.121D+00 0.201D+00 0.897D+00
 Coeff:     -0.370D-03 0.312D-02 0.203D-01-0.121D+00 0.201D+00 0.897D+00
 Gap=     0.672 Goal=   None    Shift=    0.000
 RMSDP=6.20D-06 MaxDP=8.75D-05 DE=-1.29D-06 OVMax= 1.26D-04

 Cycle   7  Pass 1  IDiag  1:
 E= -242.285375978287     Delta-E=       -0.000000148028 Rises=F Damp=F
 DIIS: error= 7.65D-06 at cycle   7 NSaved=   7.
 NSaved= 7 IEnMin= 7 EnMin= -242.285375978287     IErMin= 7 ErrMin= 7.65D-06
 ErrMax= 7.65D-06  0.00D+00 EMaxC= 1.00D-01 BMatC= 4.67D-09 BMatP= 1.10D-07
 IDIUse=1 WtCom= 1.00D+00 WtEn= 0.00D+00
 Coeff-Com: -0.956D-04 0.349D-03 0.289D-02-0.179D-02-0.858D-01-0.104D-01
 Coeff-Com:  0.109D+01
 Coeff:     -0.956D-04 0.349D-03 0.289D-02-0.179D-02-0.858D-01-0.104D-01
 Coeff:      0.109D+01
 Gap=     0.672 Goal=   None    Shift=    0.000
 RMSDP=1.72D-06 MaxDP=2.27D-05 DE=-1.48D-07 OVMax= 3.38D-05

 Cycle   8  Pass 1  IDiag  1:
 E= -242.285375987577     Delta-E=       -0.000000009290 Rises=F Damp=F
 DIIS: error= 1.65D-06 at cycle   8 NSaved=   8.
 NSaved= 8 IEnMin= 8 EnMin= -242.285375987577     IErMin= 8 ErrMin= 1.65D-06
 ErrMax= 1.65D-06  0.00D+00 EMaxC= 1.00D-01 BMatC= 2.21D-10 BMatP= 4.67D-09
 IDIUse=1 WtCom= 1.00D+00 WtEn= 0.00D+00
 Coeff-Com:  0.461D-04-0.253D-03-0.187D-02 0.619D-02 0.209D-01-0.321D-01
 Coeff-Com: -0.371D+00 0.138D+01
 Coeff:      0.461D-04-0.253D-03-0.187D-02 0.619D-02 0.209D-01-0.321D-01
 Coeff:     -0.371D+00 0.138D+01
 Gap=     0.672 Goal=   None    Shift=    0.000
 RMSDP=3.76D-07 MaxDP=6.65D-06 DE=-9.29D-09 OVMax= 7.84D-06

 Cycle   9  Pass 1  IDiag  1:
 E= -242.285375988116     Delta-E=       -0.000000000539 Rises=F Damp=F
 DIIS: error= 3.01D-07 at cycle   9 NSaved=   9.
 NSaved= 9 IEnMin= 9 EnMin= -242.285375988116     IErMin= 9 ErrMin= 3.01D-07
 ErrMax= 3.01D-07  0.00D+00 EMaxC= 1.00D-01 BMatC= 7.57D-12 BMatP= 2.21D-10
 IDIUse=1 WtCom= 1.00D+00 WtEn= 0.00D+00
 Coeff-Com:  0.268D-07 0.707D-05 0.463D-04-0.549D-03 0.217D-02 0.359D-02
 Coeff-Com: -0.170D-01-0.907D-01 0.110D+01
 Coeff:      0.268D-07 0.707D-05 0.463D-04-0.549D-03 0.217D-02 0.359D-02
 Coeff:     -0.170D-01-0.907D-01 0.110D+01
 Gap=     0.672 Goal=   None    Shift=    0.000
 RMSDP=6.06D-08 MaxDP=9.39D-07 DE=-5.39D-10 OVMax= 1.37D-06

 Cycle  10  Pass 1  IDiag  1:
 E= -242.285375988133     Delta-E=       -0.000000000017 Rises=F Damp=F
 DIIS: error= 9.09D-08 at cycle  10 NSaved=  10.
 NSaved=10 IEnMin=10 EnMin= -242.285375988133     IErMin=10 ErrMin= 9.09D-08
 ErrMax= 9.09D-08  0.00D+00 EMaxC= 1.00D-01 BMatC= 1.13D-12 BMatP= 7.57D-12
 IDIUse=1 WtCom= 1.00D+00 WtEn= 0.00D+00
 Coeff-Com: -0.400D-05 0.239D-04 0.176D-03-0.693D-03-0.121D-02 0.370D-02
 Coeff-Com:  0.269D-01-0.139D+00 0.256D+00 0.854D+00
 Coeff:     -0.400D-05 0.239D-04 0.176D-03-0.693D-03-0.121D-02 0.370D-02
 Coeff:      0.269D-01-0.139D+00 0.256D+00 0.854D+00
 Gap=     0.672 Goal=   None    Shift=    0.000
 RMSDP=1.84D-08 MaxDP=2.38D-07 DE=-1.73D-11 OVMax= 3.87D-07

 Cycle  11  Pass 1  IDiag  1:
 E= -242.285375988136     Delta-E=       -0.000000000003 Rises=F Damp=F
 DIIS: error= 2.37D-08 at cycle  11 NSaved=  11.
 NSaved=11 IEnMin=11 EnMin= -242.285375988136     IErMin=11 ErrMin= 2.37D-08
 ErrMax= 2.37D-08  0.00D+00 EMaxC= 1.00D-01 BMatC= 5.90D-14 BMatP= 1.13D-12
 IDIUse=1 WtCom= 1.00D+00 WtEn= 0.00D+00
 Coeff-Com:  0.142D-06-0.143D-05-0.100D-04 0.706D-04-0.148D-03-0.449D-03
 Coeff-Com:  0.409D-03 0.136D-01-0.114D+00-0.441D-01 0.114D+01
 Coeff:      0.142D-06-0.143D-05-0.100D-04 0.706D-04-0.148D-03-0.449D-03
 Coeff:      0.409D-03 0.136D-01-0.114D+00-0.441D-01 0.114D+01
 Gap=     0.672 Goal=   None    Shift=    0.000
 RMSDP=7.79D-09 MaxDP=9.74D-08 DE=-2.67D-12 OVMax= 1.79D-07

 SCF Done:  E(RHF) =  -242.285375988     A.U. after   11 cycles
            NFock= 11  Conv=0.78D-08     -V/T= 2.0640
 KE= 2.277143341999D+02 PE=-6.898823606139D+02 EE= 1.599717851415D+02
 Leave Link  502 at Fri May 15 22:36:14 2020, MaxMem=   134217728 cpu:               0.8 elap:               0.3
 (Enter /home/soft/g16/l601.exe)
 Copying SCF densities to generalized density rwf, IOpCl= 0 IROHF=0.

 **********************************************************************

            Population analysis using the SCF density.

 **********************************************************************

 Alpha  occ. eigenvalues --  -20.57073 -20.56228 -20.55836  -1.35446  -1.34545
 Alpha  occ. eigenvalues --   -1.34118  -0.71557  -0.70955  -0.70571  -0.59013
 Alpha  occ. eigenvalues --   -0.57674  -0.56875  -0.51169  -0.50350  -0.49812
 Alpha virt. eigenvalues --    0.17428   0.22794   0.24902   0.31808   0.35431
 Alpha virt. eigenvalues --    0.38728   0.98049   1.00594   1.01142   1.05708
 Alpha virt. eigenvalues --    1.10026   1.10977   1.13380   1.14364   1.17775
 Alpha virt. eigenvalues --    1.19466   1.21948   1.28593   1.29742   1.30824
 Alpha virt. eigenvalues --    1.35141   1.57337   1.60763   1.71227   1.79231
 Alpha virt. eigenvalues --    1.79822   1.80150   1.82627   1.83005   1.86018
 Alpha virt. eigenvalues --    1.91268   1.91994   1.99776   2.55701   2.57915
 Alpha virt. eigenvalues --    2.58051   2.58593   2.59233   2.62912   2.79948
 Alpha virt. eigenvalues --    2.81032   2.82058   2.96889   2.97587   2.97656
 Alpha virt. eigenvalues --    2.98792   2.99465   3.02484   3.37571   3.37922
 Alpha virt. eigenvalues --    3.38891   3.74919   3.75872   3.77795   3.91719
 Alpha virt. eigenvalues --    3.93322   3.97369
          Condensed to atoms (all electrons):
               1          2          3          4          5          6
     1  O    8.104406  -0.000116  -0.007740   0.306999   0.308322   0.000045
     2  O   -0.000116   8.114729  -0.000403   0.001219   0.000080   0.306375
     3  O   -0.007740  -0.000403   8.074532   0.016994   0.000385   0.003110
     4  H    0.306999   0.001219   0.016994   0.326403  -0.026390   0.000588
     5  H    0.308322   0.000080   0.000385  -0.026390   0.402448   0.000035
     6  H    0.000045   0.306375   0.003110   0.000588   0.000035   0.372476
     7  H    0.000088   0.315824  -0.000026   0.000156   0.000075  -0.022759
     8  H    0.000498   0.000041   0.310771  -0.000966  -0.000022  -0.000078
     9  H    0.000245   0.000152   0.312168  -0.000876  -0.000016  -0.000003
               7          8          9
     1  O    0.000088   0.000498   0.000245
     2  O    0.315824   0.000041   0.000152
     3  O   -0.000026   0.310771   0.312168
     4  H    0.000156  -0.000966  -0.000876
     5  H    0.000075  -0.000022  -0.000016
     6  H   -0.022759  -0.000078  -0.000003
     7  H    0.311054   0.000000  -0.000006
     8  H    0.000000   0.365105  -0.021907
     9  H   -0.000006  -0.021907   0.323120
 Mulliken charges:
               1
     1  O   -0.712749
     2  O   -0.737900
     3  O   -0.709791
     4  H    0.375874
     5  H    0.315083
     6  H    0.340210
     7  H    0.395594
     8  H    0.346557
     9  H    0.387121
 Sum of Mulliken charges =  -0.00000
 Mulliken charges with hydrogens summed into heavy atoms:
               1
     1  O   -0.021792
     2  O   -0.002096
     3  O    0.023888
 Electronic spatial extent (au):  <R**2>=          52429.0722
 Charge=             -0.0000 electrons
 Dipole moment (field-independent basis, Debye):
    X=             -1.6846    Y=             -0.8271    Z=              1.7795  Tot=              2.5862
 Quadrupole moment (field-independent basis, Debye-Ang):
   XX=            -54.3558   YY=             13.8358   ZZ=            -67.9264
   XY=             18.7573   XZ=             41.9711   YZ=            -13.5110
 Traceless Quadrupole moment (field-independent basis, Debye-Ang):
   XX=            -18.2070   YY=             49.9846   ZZ=            -31.7776
   XY=             18.7573   XZ=             41.9711   YZ=            -13.5110
 Octapole moment (field-independent basis, Debye-Ang**2):
  XXX=          -1229.0702  YYY=            -54.6021  ZZZ=           1479.0824  XYY=           -320.5229
  XXY=            785.7369  XXZ=            888.8385  XZZ=          -1053.4466  YZZ=            866.2283
  YYZ=            111.8175  XYZ=           -504.2127
 Hexadecapole moment (field-independent basis, Debye-Ang**3):
 XXXX=         -23740.5372 YYYY=          -4325.0642 ZZZZ=         -25930.1419 XXXY=          18735.6396
 XXXZ=          16980.5775 YYYX=           7543.5117 YYYZ=          -2014.1085 ZZZX=          20468.1521
 ZZZY=         -20710.2272 XXYY=         -13076.3085 XXZZ=         -16941.5422 YYZZ=         -11835.4899
 XXYZ=         -12301.1876 YYXZ=           7027.8224 ZZXY=          14266.8358
 N-N= 5.991086528432D+01 E-N=-6.898823603635D+02  KE= 2.277143341999D+02
 No NMR shielding tensors so no spin-rotation constants.
 Leave Link  601 at Fri May 15 22:36:14 2020, MaxMem=   134217728 cpu:               0.6 elap:               0.2
 (Enter /home/soft/g16/l607.exe)
 ******************************Gaussian NBO Version 3.1******************************
             N A T U R A L   A T O M I C   O R B I T A L   A N D
          N A T U R A L   B O N D   O R B I T A L   A N A L Y S I S
 ******************************Gaussian NBO Version 3.1******************************
       /RESON  / : Allow strongly delocalized NBO set

 Analyzing the SCF density

 Job title: Atom number=9                                                   

 Storage needed:     15894 in NPA ( 134217269 available)
 GSVD:  LWork=        2304 too small for GESVD, short by        3132 words or        3132 for optimal perf.


 NATURAL POPULATIONS:  Natural atomic orbital occupancies 
                                                          
   NAO  Atom  No  lang   Type(AO)    Occupancy      Energy
 ----------------------------------------------------------
     1    O    1  S      Cor( 1S)     1.99985     -20.39020
     2    O    1  S      Val( 2S)     1.75179      -1.15739
     3    O    1  S      Ryd( 3S)     0.00118       1.77170
     4    O    1  px     Val( 2p)     1.59324      -0.36066
     5    O    1  px     Ryd( 3p)     0.00184       1.29266
     6    O    1  py     Val( 2p)     1.90066      -0.46395
     7    O    1  py     Ryd( 3p)     0.00099       1.19615
     8    O    1  pz     Val( 2p)     1.73624      -0.42173
     9    O    1  pz     Ryd( 3p)     0.00034       1.20057
    10    O    1  dxy    Ryd( 3d)     0.00031       2.56550
    11    O    1  dxz    Ryd( 3d)     0.00189       2.99797
    12    O    1  dyz    Ryd( 3d)     0.00192       2.40307
    13    O    1  dx2y2  Ryd( 3d)     0.00019       2.41984
    14    O    1  dz2    Ryd( 3d)     0.00202       2.41970

    15    O    2  S      Cor( 1S)     1.99986     -20.39896
    16    O    2  S      Val( 2S)     1.75890      -1.16276
    17    O    2  S      Ryd( 3S)     0.00102       1.68884
    18    O    2  px     Val( 2p)     1.74889      -0.41551
    19    O    2  px     Ryd( 3p)     0.00143       1.23640
    20    O    2  py     Val( 2p)     1.72186      -0.41443
    21    O    2  py     Ryd( 3p)     0.00091       1.22437
    22    O    2  pz     Val( 2p)     1.76873      -0.42788
    23    O    2  pz     Ryd( 3p)     0.00088       1.20776
    24    O    2  dxy    Ryd( 3d)     0.00110       2.60830
    25    O    2  dxz    Ryd( 3d)     0.00128       2.73644
    26    O    2  dyz    Ryd( 3d)     0.00152       2.35043
    27    O    2  dx2y2  Ryd( 3d)     0.00111       2.54407
    28    O    2  dz2    Ryd( 3d)     0.00150       2.53367

    29    O    3  S      Cor( 1S)     1.99986     -20.40894
    30    O    3  S      Val( 2S)     1.75666      -1.16982
    31    O    3  S      Ryd( 3S)     0.00108       1.68205
    32    O    3  px     Val( 2p)     1.60748      -0.37873
    33    O    3  px     Ryd( 3p)     0.00185       1.28920
    34    O    3  py     Val( 2p)     1.69711      -0.41462
    35    O    3  py     Ryd( 3p)     0.00111       1.32032
    36    O    3  pz     Val( 2p)     1.93384      -0.48789
    37    O    3  pz     Ryd( 3p)     0.00044       1.17481
    38    O    3  dxy    Ryd( 3d)     0.00095       2.62258
    39    O    3  dxz    Ryd( 3d)     0.00095       2.53189
    40    O    3  dyz    Ryd( 3d)     0.00151       2.33956
    41    O    3  dx2y2  Ryd( 3d)     0.00122       2.85602
    42    O    3  dz2    Ryd( 3d)     0.00133       2.40718

    43    H    4  S      Val( 1S)     0.47819       0.36894
    44    H    4  S      Ryd( 2S)     0.00118       0.83403
    45    H    4  px     Ryd( 2p)     0.00112       3.09583
    46    H    4  py     Ryd( 2p)     0.00119       2.80252
    47    H    4  pz     Ryd( 2p)     0.00080       2.86298

    48    H    5  S      Val( 1S)     0.53046       0.29250
    49    H    5  S      Ryd( 2S)     0.00119       0.71774
    50    H    5  px     Ryd( 2p)     0.00106       2.96697
    51    H    5  py     Ryd( 2p)     0.00095       2.62576
    52    H    5  pz     Ryd( 2p)     0.00123       3.00702

    53    H    6  S      Val( 1S)     0.51280       0.31864
    54    H    6  S      Ryd( 2S)     0.00154       0.76326
    55    H    6  px     Ryd( 2p)     0.00110       2.92586
    56    H    6  py     Ryd( 2p)     0.00068       2.63559
    57    H    6  pz     Ryd( 2p)     0.00139       3.07481

    58    H    7  S      Val( 1S)     0.47020       0.38534
    59    H    7  S      Ryd( 2S)     0.00067       0.74327
    60    H    7  px     Ryd( 2p)     0.00103       2.79690
    61    H    7  py     Ryd( 2p)     0.00153       3.25032
    62    H    7  pz     Ryd( 2p)     0.00066       2.64393

    63    H    8  S      Val( 1S)     0.50216       0.32322
    64    H    8  S      Ryd( 2S)     0.00100       0.70915
    65    H    8  px     Ryd( 2p)     0.00075       2.79001
    66    H    8  py     Ryd( 2p)     0.00146       3.21724
    67    H    8  pz     Ryd( 2p)     0.00092       2.62306

    68    H    9  S      Val( 1S)     0.47402       0.37231
    69    H    9  S      Ryd( 2S)     0.00074       0.75154
    70    H    9  px     Ryd( 2p)     0.00155       3.29771
    71    H    9  py     Ryd( 2p)     0.00056       2.68037
    72    H    9  pz     Ryd( 2p)     0.00103       2.72069


 Summary of Natural Population Analysis:                  
                                                          
                                       Natural Population 
                Natural  -----------------------------------------------
    Atom  No    Charge         Core      Valence    Rydberg      Total
 -----------------------------------------------------------------------
      O    1   -0.99245      1.99985     6.98193    0.01067     8.99245
      O    2   -1.00899      1.99986     6.99838    0.01075     9.00899
      O    3   -1.00540      1.99986     6.99509    0.01044     9.00540
      H    4    0.51752      0.00000     0.47819    0.00429     0.48248
      H    5    0.46511      0.00000     0.53046    0.00443     0.53489
      H    6    0.48249      0.00000     0.51280    0.00471     0.51751
      H    7    0.52591      0.00000     0.47020    0.00389     0.47409
      H    8    0.49371      0.00000     0.50216    0.00412     0.50629
      H    9    0.52209      0.00000     0.47402    0.00389     0.47791
 =======================================================================
   * Total *   -0.00000      5.99957    23.94324    0.05719    30.00000

                                 Natural Population      
 --------------------------------------------------------
   Core                       5.99957 ( 99.9929% of   6)
   Valence                   23.94324 ( 99.7635% of  24)
   Natural Minimal Basis     29.94281 ( 99.8094% of  30)
   Natural Rydberg Basis      0.05719 (  0.1906% of  30)
 --------------------------------------------------------

    Atom  No          Natural Electron Configuration
 ----------------------------------------------------------------------------
      O    1      [core]2S( 1.75)2p( 5.23)3d( 0.01)
      O    2      [core]2S( 1.76)2p( 5.24)3d( 0.01)
      O    3      [core]2S( 1.76)2p( 5.24)3d( 0.01)
      H    4            1S( 0.48)
      H    5            1S( 0.53)
      H    6            1S( 0.51)
      H    7            1S( 0.47)
      H    8            1S( 0.50)
      H    9            1S( 0.47)


 NBO analysis skipped by request.
 Leave Link  607 at Fri May 15 22:36:14 2020, MaxMem=   134217728 cpu:               0.6 elap:               0.2
 (Enter /home/soft/g16/l9999.exe)

 Test job not archived.
 1\1\GINC-MASTER\SP\RHF\6-31G(d,p)\H6O3\LIWEI01\15-May-2020\0\\#p hf/6-
 31g** 5d 7f pop=npa charge nosymm\\Atom number=9\\0,1\O,0,12.996031,-1
 4.71385,-11.210036\O,0,11.471495,-15.355316,-7.518016\O,0,11.324452,-1
 7.011592,-10.76277\H,0,12.28642,-15.161884,-10.749655\H,0,13.635659,-1
 4.51236,-10.527021\H,0,10.864403,-15.35575,-8.258065\H,0,11.907538,-14
 .504542,-7.565812\H,0,11.716545,-17.863306,-10.570212\H,0,10.44278,-17
 .064361,-10.39385\\Version=ES64L-G16RevA.03\HF=-242.285376\RMSD=7.789e
 -09\Dipole=-0.6627566,-0.3254004,0.7001272\Quadrupole=-13.5364609,37.1
 623467,-23.6258858,13.9455599,31.2044699,-10.0450787\PG=C01 [X(H6O3)]\
 \@


 The chemist is a guest at the physicist's table and
 frequently dines well.
                   -- Richard Bersohn
 Job cpu time:       0 days  0 hours  0 minutes  4.8 seconds.
 Elapsed time:       0 days  0 hours  0 minutes  1.4 seconds.
 File lengths (MBytes):  RWF=     72 Int=      0 D2E=      0 Chk=      8 Scr=      8
 Normal termination of Gaussian 16 at Fri May 15 22:36:14 2020.
