 Entering Gaussian System, Link 0=g16
 Input=w32_21.gjf
 Output=w32_21.log
 Initial command:
 /home/soft/g16/l1.exe "/tmp/liwei01/gaussian/wsr/Gau-6047.inp" -scrdir="/tmp/liwei01/gaussian/wsr/"
 Entering Link 1 = /home/soft/g16/l1.exe PID=      6048.
  
 Copyright (c) 1988,1990,1992,1993,1995,1998,2003,2009,2016,
            Gaussian, Inc.  All Rights Reserved.
  
 This is part of the Gaussian(R) 16 program.  It is based on
 the Gaussian(R) 09 system (copyright 2009, Gaussian, Inc.),
 the Gaussian(R) 03 system (copyright 2003, Gaussian, Inc.),
 the Gaussian(R) 98 system (copyright 1998, Gaussian, Inc.),
 the Gaussian(R) 94 system (copyright 1995, Gaussian, Inc.),
 the Gaussian 92(TM) system (copyright 1992, Gaussian, Inc.),
 the Gaussian 90(TM) system (copyright 1990, Gaussian, Inc.),
 the Gaussian 88(TM) system (copyright 1988, Gaussian, Inc.),
 the Gaussian 86(TM) system (copyright 1986, Carnegie Mellon
 University), and the Gaussian 82(TM) system (copyright 1983,
 Carnegie Mellon University). Gaussian is a federally registered
 trademark of Gaussian, Inc.
  
 This software contains proprietary and confidential information,
 including trade secrets, belonging to Gaussian, Inc.
  
 This software is provided under written license and may be
 used, copied, transmitted, or stored only in accord with that
 written license.
  
 The following legend is applicable only to US Government
 contracts under FAR:
  
                    RESTRICTED RIGHTS LEGEND
  
 Use, reproduction and disclosure by the US Government is
 subject to restrictions as set forth in subparagraphs (a)
 and (c) of the Commercial Computer Software - Restricted
 Rights clause in FAR 52.227-19.
  
 Gaussian, Inc.
 340 Quinnipiac St., Bldg. 40, Wallingford CT 06492
  
  
 ---------------------------------------------------------------
 Warning -- This program may not be used in any manner that
 competes with the business of Gaussian, Inc. or will provide
 assistance to any competitor of Gaussian, Inc.  The licensee
 of this program is prohibited from giving any competitor of
 Gaussian, Inc. access to this program.  By using this program,
 the user acknowledges that Gaussian, Inc. is engaged in the
 business of creating and licensing software in the field of
 computational chemistry and represents and warrants to the
 licensee that it is not a competitor of Gaussian, Inc. and that
 it will not use this program in any manner prohibited above.
 ---------------------------------------------------------------
  

 Cite this work as:
 Gaussian 16, Revision A.03,
 M. J. Frisch, G. W. Trucks, H. B. Schlegel, G. E. Scuseria, 
 M. A. Robb, J. R. Cheeseman, G. Scalmani, V. Barone, 
 G. A. Petersson, H. Nakatsuji, X. Li, M. Caricato, A. V. Marenich, 
 J. Bloino, B. G. Janesko, R. Gomperts, B. Mennucci, H. P. Hratchian, 
 J. V. Ortiz, A. F. Izmaylov, J. L. Sonnenberg, D. Williams-Young, 
 F. Ding, F. Lipparini, F. Egidi, J. Goings, B. Peng, A. Petrone, 
 T. Henderson, D. Ranasinghe, V. G. Zakrzewski, J. Gao, N. Rega, 
 G. Zheng, W. Liang, M. Hada, M. Ehara, K. Toyota, R. Fukuda, 
 J. Hasegawa, M. Ishida, T. Nakajima, Y. Honda, O. Kitao, H. Nakai, 
 T. Vreven, K. Throssell, J. A. Montgomery, Jr., J. E. Peralta, 
 F. Ogliaro, M. J. Bearpark, J. J. Heyd, E. N. Brothers, K. N. Kudin, 
 V. N. Staroverov, T. A. Keith, R. Kobayashi, J. Normand, 
 K. Raghavachari, A. P. Rendell, J. C. Burant, S. S. Iyengar, 
 J. Tomasi, M. Cossi, J. M. Millam, M. Klene, C. Adamo, R. Cammi, 
 J. W. Ochterski, R. L. Martin, K. Morokuma, O. Farkas, 
 J. B. Foresman, and D. J. Fox, Gaussian, Inc., Wallingford CT, 2016.
 
 ******************************************
 Gaussian 16:  ES64L-G16RevA.03 25-Dec-2016
                15-May-2020 
 ******************************************
 %chk=w32_21.chk
 %nproc=4
 Will use up to    4 processors via shared memory.
 %mem=1gb
 -----------------------------------------
 #p hf/6-31g** 5d 7f pop=npa charge nosymm
 -----------------------------------------
 1/18=10,28=-2,38=1,125=101,172=1/1;
 2/12=2,15=1,17=6,18=5,40=1/2;
 3/5=1,6=6,7=101,8=11,11=9,25=1,30=1/1,2,3;
 4//1;
 5/5=2,38=5/2;
 6/7=2,8=2,9=2,10=2,28=1,40=-1/1,7;
 99/5=1,9=1/99;
 Leave Link    1 at Fri May 15 22:35:20 2020, MaxMem=   134217728 cpu:               1.4 elap:               0.5
 (Enter /home/soft/g16/l101.exe)
 --------------
 Atom number=12
 --------------
 Symbolic Z-matrix:
 Charge =  0 Multiplicity = 1
 o                     13.45756  -11.77328  -9.77403 
 o                     12.99603  -14.71385  -11.21004 
 o                     11.4715  -15.35532  -7.51802 
 o                     11.32445  -17.01159  -10.76277 
 h                     13.90889  -10.99621  -10.10371 
 h                     14.15077  -12.42364  -9.66118 
 h                     12.28642  -15.16188  -10.74966 
 h                     13.63566  -14.51236  -10.52702 
 h                     10.8644  -15.35575  -8.25807 
 h                     11.90754  -14.50454  -7.56581 
 h                     11.71654  -17.86331  -10.57021 
 h                     10.44278  -17.06436  -10.39385 
 
 ITRead=  0  0  0  0  0  0  0  0  0  0  0  0
 MicOpt= -1 -1 -1 -1 -1 -1 -1 -1 -1 -1 -1 -1
 NAtoms=     12 NQM=       12 NQMF=       0 NMMI=      0 NMMIF=      0
                NMic=       0 NMicF=      0.
                    Isotopes and Nuclear Properties:
 (Nuclear quadrupole moments (NQMom) in fm**2, nuclear magnetic moments (NMagM)
  in nuclear magnetons)

  Atom         1           2           3           4           5           6           7           8           9          10
 IAtWgt=          16          16          16          16           1           1           1           1           1           1
 AtmWgt=  15.9949146  15.9949146  15.9949146  15.9949146   1.0078250   1.0078250   1.0078250   1.0078250   1.0078250   1.0078250
 NucSpn=           0           0           0           0           1           1           1           1           1           1
 AtZEff=  -0.0000000  -0.0000000  -0.0000000  -0.0000000  -0.0000000  -0.0000000  -0.0000000  -0.0000000  -0.0000000  -0.0000000
 NQMom=    0.0000000   0.0000000   0.0000000   0.0000000   0.0000000   0.0000000   0.0000000   0.0000000   0.0000000   0.0000000
 NMagM=    0.0000000   0.0000000   0.0000000   0.0000000   2.7928460   2.7928460   2.7928460   2.7928460   2.7928460   2.7928460
 AtZNuc=   8.0000000   8.0000000   8.0000000   8.0000000   1.0000000   1.0000000   1.0000000   1.0000000   1.0000000   1.0000000

  Atom        11          12
 IAtWgt=           1           1
 AtmWgt=   1.0078250   1.0078250
 NucSpn=           1           1
 AtZEff=  -0.0000000  -0.0000000
 NQMom=    0.0000000   0.0000000
 NMagM=    2.7928460   2.7928460
 AtZNuc=   1.0000000   1.0000000
 Background charge distribution read from input stream:
 Point Charges:
 XYZ=    8.3923  -11.8129  -11.2005 Q=   -1.0561 A=    0.0000 R=    0.0000 C=    0.0000
 XYZ=    8.1753  -12.5378  -10.6142 Q=    0.5233 A=    0.0000 R=    0.0000 C=    0.0000
 XYZ=    9.2522  -11.5141  -10.9045 Q=    0.5177 A=    0.0000 R=    0.0000 C=    0.0000
 XYZ=   10.7060  -10.8489  -10.0915 Q=   -1.0357 A=    0.0000 R=    0.0000 C=    0.0000
 XYZ=   11.5214  -11.3203   -9.9208 Q=    0.5206 A=    0.0000 R=    0.0000 C=    0.0000
 XYZ=   10.5678  -10.3169   -9.3078 Q=    0.5156 A=    0.0000 R=    0.0000 C=    0.0000
 XYZ=    8.6932  -14.0693   -9.5471 Q=   -1.0099 A=    0.0000 R=    0.0000 C=    0.0000
 XYZ=    8.2201  -13.7327   -8.7861 Q=    0.4999 A=    0.0000 R=    0.0000 C=    0.0000
 XYZ=    8.5528  -15.0157   -9.5178 Q=    0.5079 A=    0.0000 R=    0.0000 C=    0.0000
 XYZ=    7.2503   -9.8596  -13.1035 Q=   -1.0243 A=    0.0000 R=    0.0000 C=    0.0000
 XYZ=    7.1207  -10.2215  -13.9801 Q=    0.5152 A=    0.0000 R=    0.0000 C=    0.0000
 XYZ=    7.3415  -10.6267  -12.5383 Q=    0.5154 A=    0.0000 R=    0.0000 C=    0.0000
 XYZ=    5.5704  -12.7600  -10.7338 Q=   -1.0500 A=    0.0000 R=    0.0000 C=    0.0000
 XYZ=    4.6427  -12.8278  -10.5079 Q=    0.5214 A=    0.0000 R=    0.0000 C=    0.0000
 XYZ=    5.9838  -12.4052   -9.9468 Q=    0.5064 A=    0.0000 R=    0.0000 C=    0.0000
 XYZ=    6.9662   -9.2478  -10.2743 Q=   -1.0324 A=    0.0000 R=    0.0000 C=    0.0000
 XYZ=    6.9752   -9.8450  -11.0223 Q=    0.5142 A=    0.0000 R=    0.0000 C=    0.0000
 XYZ=    7.6844   -8.6385  -10.4451 Q=    0.5185 A=    0.0000 R=    0.0000 C=    0.0000
 XYZ=    6.9426  -11.8294   -8.3710 Q=   -1.0528 A=    0.0000 R=    0.0000 C=    0.0000
 XYZ=    7.4956  -12.0911   -7.6348 Q=    0.5210 A=    0.0000 R=    0.0000 C=    0.0000
 XYZ=    7.3075  -10.9928   -8.6597 Q=    0.5255 A=    0.0000 R=    0.0000 C=    0.0000
 XYZ=    9.7397  -14.5602  -13.0841 Q=   -1.0029 A=    0.0000 R=    0.0000 C=    0.0000
 XYZ=    9.4367  -13.9209  -12.4394 Q=    0.5215 A=    0.0000 R=    0.0000 C=    0.0000
 XYZ=   10.6527  -14.3230  -13.2466 Q=    0.4988 A=    0.0000 R=    0.0000 C=    0.0000
 XYZ=   10.0849   -9.6030  -13.6944 Q=   -1.0549 A=    0.0000 R=    0.0000 C=    0.0000
 XYZ=    9.8380   -9.8779  -14.5774 Q=    0.5180 A=    0.0000 R=    0.0000 C=    0.0000
 XYZ=    9.2671   -9.6284  -13.1976 Q=    0.5226 A=    0.0000 R=    0.0000 C=    0.0000
 XYZ=    9.4738   -7.9972  -10.9180 Q=   -0.9971 A=    0.0000 R=    0.0000 C=    0.0000
 XYZ=    9.9975   -8.7956  -10.8516 Q=    0.5301 A=    0.0000 R=    0.0000 C=    0.0000
 XYZ=    9.6234   -7.5424  -10.0892 Q=    0.4920 A=    0.0000 R=    0.0000 C=    0.0000
 XYZ=    8.4516  -10.6356  -15.6859 Q=   -1.0322 A=    0.0000 R=    0.0000 C=    0.0000
 XYZ=    8.1250  -10.4069  -16.5562 Q=    0.4798 A=    0.0000 R=    0.0000 C=    0.0000
 XYZ=    9.2622  -11.1166  -15.8526 Q=    0.5341 A=    0.0000 R=    0.0000 C=    0.0000
 XYZ=    4.0391  -11.2243  -12.8044 Q=   -0.9921 A=    0.0000 R=    0.0000 C=    0.0000
 XYZ=    4.5248  -12.0476  -12.7552 Q=    0.4802 A=    0.0000 R=    0.0000 C=    0.0000
 XYZ=    4.4321  -10.7575  -13.5420 Q=    0.5046 A=    0.0000 R=    0.0000 C=    0.0000
 XYZ=    5.5848  -15.5922  -11.4699 Q=   -1.0129 A=    0.0000 R=    0.0000 C=    0.0000
 XYZ=    4.6785  -15.3483  -11.6582 Q=    0.5050 A=    0.0000 R=    0.0000 C=    0.0000
 XYZ=    6.0031  -14.7735  -11.2032 Q=    0.5257 A=    0.0000 R=    0.0000 C=    0.0000
 XYZ=    8.8013  -12.4259   -6.4973 Q=   -0.9852 A=    0.0000 R=    0.0000 C=    0.0000
 XYZ=    9.0556  -11.7490   -5.8701 Q=    0.5006 A=    0.0000 R=    0.0000 C=    0.0000
 XYZ=    8.9395  -13.2499   -6.0303 Q=    0.5083 A=    0.0000 R=    0.0000 C=    0.0000
 XYZ=   10.5523   -9.0602   -7.7657 Q=   -0.9799 A=    0.0000 R=    0.0000 C=    0.0000
 XYZ=   10.0296   -9.4526   -7.0665 Q=    0.5003 A=    0.0000 R=    0.0000 C=    0.0000
 XYZ=   10.0576   -8.2839   -8.0284 Q=    0.4937 A=    0.0000 R=    0.0000 C=    0.0000
 XYZ=    8.4919  -14.1596  -15.7110 Q=   -0.9823 A=    0.0000 R=    0.0000 C=    0.0000
 XYZ=    8.8439  -15.0437  -15.8144 Q=    0.4799 A=    0.0000 R=    0.0000 C=    0.0000
 XYZ=    8.9183  -13.8221  -14.9233 Q=    0.4950 A=    0.0000 R=    0.0000 C=    0.0000
 XYZ=   10.6752  -11.9252  -15.8192 Q=   -0.9837 A=    0.0000 R=    0.0000 C=    0.0000
 XYZ=   11.1454  -12.2597  -15.0555 Q=    0.5055 A=    0.0000 R=    0.0000 C=    0.0000
 XYZ=   10.7694  -12.6123  -16.4789 Q=    0.5125 A=    0.0000 R=    0.0000 C=    0.0000
 XYZ=    7.7593  -16.5050  -13.2460 Q=   -1.0112 A=    0.0000 R=    0.0000 C=    0.0000
 XYZ=    7.3079  -16.2111  -12.4547 Q=    0.4926 A=    0.0000 R=    0.0000 C=    0.0000
 XYZ=    8.5373  -15.9498  -13.2987 Q=    0.4973 A=    0.0000 R=    0.0000 C=    0.0000
 XYZ=    5.5914  -15.5335   -8.7002 Q=   -1.0162 A=    0.0000 R=    0.0000 C=    0.0000
 XYZ=    6.3093  -16.0707   -8.3652 Q=    0.4831 A=    0.0000 R=    0.0000 C=    0.0000
 XYZ=    5.4763  -15.8239   -9.6050 Q=    0.5237 A=    0.0000 R=    0.0000 C=    0.0000
 XYZ=    5.3398  -11.2122  -15.4745 Q=   -0.9760 A=    0.0000 R=    0.0000 C=    0.0000
 XYZ=    5.8801  -10.4587  -15.7120 Q=    0.4863 A=    0.0000 R=    0.0000 C=    0.0000
 XYZ=    5.4896  -11.8457  -16.1763 Q=    0.4965 A=    0.0000 R=    0.0000 C=    0.0000
 XYZ=    4.6413   -8.1383  -12.6711 Q=   -0.9897 A=    0.0000 R=    0.0000 C=    0.0000
 XYZ=    4.5978   -7.2720  -12.2662 Q=    0.4876 A=    0.0000 R=    0.0000 C=    0.0000
 XYZ=    5.5765   -8.3384  -12.7100 Q=    0.4969 A=    0.0000 R=    0.0000 C=    0.0000
 XYZ=    8.9611  -17.0167   -9.2755 Q=   -0.9921 A=    0.0000 R=    0.0000 C=    0.0000
 XYZ=    8.6736  -17.2191   -8.3852 Q=    0.5092 A=    0.0000 R=    0.0000 C=    0.0000
 XYZ=    8.3026  -17.4234   -9.8386 Q=    0.5103 A=    0.0000 R=    0.0000 C=    0.0000
 XYZ=   12.8900   -9.6906  -13.7511 Q=   -0.9984 A=    0.0000 R=    0.0000 C=    0.0000
 XYZ=   13.4884   -9.8459  -13.0204 Q=    0.4670 A=    0.0000 R=    0.0000 C=    0.0000
 XYZ=   12.0171   -9.7427  -13.3618 Q=    0.5160 A=    0.0000 R=    0.0000 C=    0.0000
 XYZ=    4.9070   -7.9100   -9.1300 Q=   -1.0105 A=    0.0000 R=    0.0000 C=    0.0000
 XYZ=    4.0635   -8.0265   -9.5674 Q=    0.4764 A=    0.0000 R=    0.0000 C=    0.0000
 XYZ=    5.4227   -8.6710   -9.3968 Q=    0.5176 A=    0.0000 R=    0.0000 C=    0.0000
 XYZ=    2.9547  -12.7024   -9.8757 Q=   -0.9915 A=    0.0000 R=    0.0000 C=    0.0000
 XYZ=    3.0641  -13.5048   -9.3654 Q=    0.5019 A=    0.0000 R=    0.0000 C=    0.0000
 XYZ=    2.7384  -12.0329   -9.2268 Q=    0.5105 A=    0.0000 R=    0.0000 C=    0.0000
 XYZ=    4.2108  -13.3306   -7.5546 Q=   -1.0293 A=    0.0000 R=    0.0000 C=    0.0000
 XYZ=    4.9638  -12.7453   -7.4735 Q=    0.4979 A=    0.0000 R=    0.0000 C=    0.0000
 XYZ=    4.5835  -14.1618   -7.8486 Q=    0.5197 A=    0.0000 R=    0.0000 C=    0.0000
 XYZ=    8.5389   -6.2611  -12.9484 Q=   -1.0019 A=    0.0000 R=    0.0000 C=    0.0000
 XYZ=    8.8800   -6.8491  -12.2745 Q=    0.5098 A=    0.0000 R=    0.0000 C=    0.0000
 XYZ=    9.2767   -6.1230  -13.5423 Q=    0.4773 A=    0.0000 R=    0.0000 C=    0.0000
 XYZ=   12.8138  -13.0185   -7.3663 Q=   -0.9959 A=    0.0000 R=    0.0000 C=    0.0000
 XYZ=   12.4819  -12.4171   -6.6996 Q=    0.4994 A=    0.0000 R=    0.0000 C=    0.0000
 XYZ=   12.6552  -12.5682   -8.1960 Q=    0.5110 A=    0.0000 R=    0.0000 C=    0.0000
 Pt Chg Charge=              0.0216 electrons
 Pt Chg Dipole moment (Debye):
    X=             16.8477    Y=             -8.7325    Z=             13.7225  Tot=             23.4181
 Pt Chg Quadrupole moment (Debye-Ang):
   XX=            231.3065   YY=            184.2639   ZZ=           -226.2943
   XY=           -233.4314   XZ=            -63.4598   YZ=            -77.6151
 Pt Chg Traceless Quadrupole moment (Debye-Ang):
   XX=            168.2145   YY=            121.1719   ZZ=           -289.3864
   XY=           -233.4314   XZ=            -63.4598   YZ=            -77.6151
 Pt Chg Octapole moment (Debye-Ang**2):
  XXX=           2495.5188  YYY=          -3220.6723  ZZZ=           2372.7000  XYY=           3125.7793
  XXY=          -2849.1684  XXZ=          -1543.7061  XZZ=            176.5728  YZZ=           1691.6284
  YYZ=            234.9167  XYZ=           1310.6772
 Pt Chg Hexadecapole moment (Debye-Ang**3):
 XXXX=          24452.5111 YYYY=          53554.8856 ZZZZ=         -10689.3693 XXXY=         -29322.2771
 XXXZ=         -19600.3160 YYYX=         -41590.0960 YYYZ=           2647.9879 ZZZX=          -4516.2925
 ZZZY=         -16503.0139 XXYY=          34855.5450 XXZZ=          13033.6298 YYZZ=         -14179.7664
 XXYZ=          23085.7217 YYXZ=         -19909.1026 ZZXY=         -10721.1197
 Leave Link  101 at Fri May 15 22:35:20 2020, MaxMem=   134217728 cpu:               0.7 elap:               0.2
 (Enter /home/soft/g16/l202.exe)
                          Input orientation:                          
 ---------------------------------------------------------------------
 Center     Atomic      Atomic             Coordinates (Angstroms)
 Number     Number       Type             X           Y           Z
 ---------------------------------------------------------------------
      1          8           0       13.457564  -11.773284   -9.774029
      2          8           0       12.996031  -14.713850  -11.210036
      3          8           0       11.471495  -15.355316   -7.518016
      4          8           0       11.324452  -17.011592  -10.762770
      5          1           0       13.908886  -10.996207  -10.103715
      6          1           0       14.150775  -12.423635   -9.661183
      7          1           0       12.286420  -15.161884  -10.749655
      8          1           0       13.635659  -14.512360  -10.527021
      9          1           0       10.864403  -15.355750   -8.258065
     10          1           0       11.907538  -14.504542   -7.565812
     11          1           0       11.716545  -17.863306  -10.570212
     12          1           0       10.442780  -17.064361  -10.393850
 ---------------------------------------------------------------------
                    Distance matrix (angstroms):
                    1          2          3          4          5
     1  O    0.000000
     2  O    3.304854   0.000000
     3  O    4.676004   4.045578   0.000000
     4  O    5.741746   2.876429   3.645998   0.000000
     5  H    0.957201   3.984736   5.623926   6.580160   0.000000
     6  H    0.957200   2.996242   4.512921   5.500086   1.513901
     7  H    3.715647   0.957201   3.338414   2.084940   4.516913
     8  H    2.846270   0.957200   3.801091   3.412245   3.552066
     9  H    4.675114   3.697297   0.957201   3.037599   5.628580
    10  H    3.839085   3.809068   0.957201   4.104367   4.770195
    11  H    6.383841   3.459123   3.958025   0.957200   7.223644
    12  H    6.121160   3.565130   3.499930   0.957200   6.994324
                    6          7          8          9         10
     6  H    0.000000
     7  H    3.486918   0.000000
     8  H    2.319007   1.513900   0.000000
     9  H    4.622367   2.875367   3.679583   0.000000
    10  H    3.708486   3.272997   3.428589   1.513902   0.000000
    11  H    6.028419   2.766702   3.861826   3.515680   4.510454
    12  H    5.985179   2.673018   4.089611   2.767435   4.086072
                   11         12
    11  H    0.000000
    12  H    1.513900   0.000000
 Symmetry turned off by external request.
 Stoichiometry    H8O4
 Framework group  C1[X(H8O4)]
 Deg. of freedom    30
 Full point group                 C1      NOp   1
 Rotational constants (GHZ):           3.2640852           1.5596118           1.0775051
 Leave Link  202 at Fri May 15 22:35:20 2020, MaxMem=   134217728 cpu:               0.1 elap:               0.0
 (Enter /home/soft/g16/l301.exe)
 Standard basis: 6-31G(d,p) (5D, 7F)
 Ernie: Thresh=  0.10000D-02 Tol=  0.10000D-05 Strict=F.
    96 basis functions,   168 primitive gaussians,   100 cartesian basis functions
    20 alpha electrons       20 beta electrons
       nuclear repulsion energy       119.5185174076 Hartrees.
 IExCor=    0 DFT=F Ex=HF Corr=None ExCW=0 ScaHFX=  1.000000
 ScaDFX=  1.000000  1.000000  1.000000  1.000000 ScalE2=  1.000000  1.000000
 IRadAn=      5 IRanWt=     -1 IRanGd=            0 ICorTp=0 IEmpDi=  4
 NAtoms=   12 NActive=   12 NUniq=   12 SFac= 1.00D+00 NAtFMM=   60 NAOKFM=F Big=F
 Integral buffers will be    131072 words long.
 Raffenetti 1 integral format.
 Two-electron integral symmetry is turned off.
 Background charge distribution read from rwf.
 PtFMM for NChg=        96 BoxLen=    40.00 Levels= 1 LMax=20 SMax=    22.2 ICnFMM=     1:
 Self energy of the charges =       -13.6737582597 a.u.
 MM   energy of the charges =         0.0000000000 a.u.
 Nuclei-charges interaction =         1.1331491453 a.u.
 Nuclear repulsion after external point charges =      106.9779082932 Hartrees.
 Leave Link  301 at Fri May 15 22:35:20 2020, MaxMem=   134217728 cpu:               0.2 elap:               0.1
 (Enter /home/soft/g16/l302.exe)
 NPDir=0 NMtPBC=     1 NCelOv=     1 NCel=       1 NClECP=     1 NCelD=      1
         NCelK=      1 NCelE2=     1 NClLst=     1 CellRange=     0.0.
 One-electron integrals computed using PRISM.
 NBasis=    96 RedAO= T EigKep=  3.33D-02  NBF=    96
 NBsUse=    96 1.00D-06 EigRej= -1.00D+00 NBFU=    96
 Leave Link  302 at Fri May 15 22:35:20 2020, MaxMem=   134217728 cpu:               0.5 elap:               0.1
 (Enter /home/soft/g16/l303.exe)
 DipDrv:  MaxL=1.
 Leave Link  303 at Fri May 15 22:35:20 2020, MaxMem=   134217728 cpu:               0.1 elap:               0.0
 (Enter /home/soft/g16/l401.exe)
 ExpMin= 1.61D-01 ExpMax= 5.48D+03 ExpMxC= 8.25D+02 IAcc=3 IRadAn=         5 AccDes= 0.00D+00
 Harris functional with IExCor=  205 and IRadAn=       5 diagonalized for initial guess.
 HarFok:  IExCor=  205 AccDes= 0.00D+00 IRadAn=         5 IDoV= 1 UseB2=F ITyADJ=14
 ICtDFT=  3500011 ScaDFX=  1.000000  1.000000  1.000000  1.000000
 FoFCou: FMM=F IPFlag=           0 FMFlag=      100000 FMFlg1=           0
         NFxFlg=           0 DoJE=T BraDBF=F KetDBF=T FulRan=T
         wScrn=  0.000000 ICntrl=       500 IOpCl=  0 I1Cent=   200000004 NGrid=           0
         NMat0=    1 NMatS0=      1 NMatT0=    0 NMatD0=    1 NMtDS0=    0 NMtDT0=    0
 Symmetry not used in FoFCou.
 Harris En= -318.201443244340    
 JPrj=0 DoOrth=F DoCkMO=F.
 Leave Link  401 at Fri May 15 22:35:21 2020, MaxMem=   134217728 cpu:               1.9 elap:               0.5
 (Enter /home/soft/g16/l502.exe)
 Keep R1 ints in memory in canonical form, NReq=11709233.
 FoFCou: FMM=F IPFlag=           0 FMFlag=           0 FMFlg1=           0
         NFxFlg=           0 DoJE=F BraDBF=F KetDBF=F FulRan=T
         wScrn=  0.000000 ICntrl=       600 IOpCl=  0 I1Cent=           0 NGrid=           0
         NMat0=    1 NMatS0=   4656 NMatT0=    0 NMatD0=    1 NMtDS0=    0 NMtDT0=    0
 Symmetry not used in FoFCou.
 Two-electron integral symmetry not used.
 Closed shell SCF:
 Using DIIS extrapolation, IDIIS=  1040.
 NGot=   134217728 LenX=   123354636 LenY=   123344195
 Requested convergence on RMS density matrix=1.00D-08 within 128 cycles.
 Requested convergence on MAX density matrix=1.00D-06.
 Requested convergence on             energy=1.00D-06.
 No special actions if energy rises.

 Cycle   1  Pass 1  IDiag  1:
 E= -317.499980564583    
 DIIS: error= 5.76D-02 at cycle   1 NSaved=   1.
 NSaved= 1 IEnMin= 1 EnMin= -317.499980564583     IErMin= 1 ErrMin= 5.76D-02
 ErrMax= 5.76D-02  0.00D+00 EMaxC= 1.00D-01 BMatC= 4.90D-01 BMatP= 4.90D-01
 IDIUse=3 WtCom= 4.24D-01 WtEn= 5.76D-01
 Coeff-Com:  0.100D+01
 Coeff-En:   0.100D+01
 Coeff:      0.100D+01
 Gap=     0.534 Goal=   None    Shift=    0.000
 GapD=    0.534 DampG=2.000 DampE=0.500 DampFc=1.0000 IDamp=-1.
 RMSDP=6.00D-03 MaxDP=1.23D-01              OVMax= 1.30D-01

 Cycle   2  Pass 1  IDiag  1:
 E= -317.726647597907     Delta-E=       -0.226667033323 Rises=F Damp=F
 DIIS: error= 3.06D-02 at cycle   2 NSaved=   2.
 NSaved= 2 IEnMin= 2 EnMin= -317.726647597907     IErMin= 2 ErrMin= 3.06D-02
 ErrMax= 3.06D-02  0.00D+00 EMaxC= 1.00D-01 BMatC= 1.53D-01 BMatP= 4.90D-01
 IDIUse=3 WtCom= 6.94D-01 WtEn= 3.06D-01
 Coeff-Com:  0.347D+00 0.653D+00
 Coeff-En:   0.879D-01 0.912D+00
 Coeff:      0.268D+00 0.732D+00
 Gap=     0.640 Goal=   None    Shift=    0.000
 RMSDP=2.73D-03 MaxDP=5.39D-02 DE=-2.27D-01 OVMax= 4.65D-02

 Cycle   3  Pass 1  IDiag  1:
 E= -317.828451739950     Delta-E=       -0.101804142043 Rises=F Damp=F
 DIIS: error= 6.16D-03 at cycle   3 NSaved=   3.
 NSaved= 3 IEnMin= 3 EnMin= -317.828451739950     IErMin= 3 ErrMin= 6.16D-03
 ErrMax= 6.16D-03  0.00D+00 EMaxC= 1.00D-01 BMatC= 3.81D-03 BMatP= 1.53D-01
 IDIUse=3 WtCom= 9.38D-01 WtEn= 6.16D-02
 Coeff-Com: -0.325D-01 0.915D-01 0.941D+00
 Coeff-En:   0.000D+00 0.000D+00 0.100D+01
 Coeff:     -0.305D-01 0.859D-01 0.945D+00
 Gap=     0.627 Goal=   None    Shift=    0.000
 RMSDP=3.79D-04 MaxDP=8.03D-03 DE=-1.02D-01 OVMax= 9.25D-03

 Cycle   4  Pass 1  IDiag  1:
 E= -317.831426177154     Delta-E=       -0.002974437204 Rises=F Damp=F
 DIIS: error= 5.35D-04 at cycle   4 NSaved=   4.
 NSaved= 4 IEnMin= 4 EnMin= -317.831426177154     IErMin= 4 ErrMin= 5.35D-04
 ErrMax= 5.35D-04  0.00D+00 EMaxC= 1.00D-01 BMatC= 3.34D-05 BMatP= 3.81D-03
 IDIUse=3 WtCom= 9.95D-01 WtEn= 5.35D-03
 Coeff-Com:  0.691D-02-0.453D-01-0.299D+00 0.134D+01
 Coeff-En:   0.000D+00 0.000D+00 0.000D+00 0.100D+01
 Coeff:      0.687D-02-0.451D-01-0.297D+00 0.134D+01
 Gap=     0.629 Goal=   None    Shift=    0.000
 RMSDP=8.44D-05 MaxDP=1.16D-03 DE=-2.97D-03 OVMax= 1.94D-03

 Cycle   5  Pass 1  IDiag  1:
 E= -317.831481787842     Delta-E=       -0.000055610688 Rises=F Damp=F
 DIIS: error= 9.59D-05 at cycle   5 NSaved=   5.
 NSaved= 5 IEnMin= 5 EnMin= -317.831481787842     IErMin= 5 ErrMin= 9.59D-05
 ErrMax= 9.59D-05  0.00D+00 EMaxC= 1.00D-01 BMatC= 8.84D-07 BMatP= 3.34D-05
 IDIUse=1 WtCom= 1.00D+00 WtEn= 0.00D+00
 Coeff-Com:  0.104D-02-0.340D-02-0.288D-01-0.943D-02 0.104D+01
 Coeff:      0.104D-02-0.340D-02-0.288D-01-0.943D-02 0.104D+01
 Gap=     0.630 Goal=   None    Shift=    0.000
 RMSDP=1.57D-05 MaxDP=2.81D-04 DE=-5.56D-05 OVMax= 3.60D-04

 Cycle   6  Pass 1  IDiag  1:
 E= -317.831483439601     Delta-E=       -0.000001651759 Rises=F Damp=F
 DIIS: error= 3.04D-05 at cycle   6 NSaved=   6.
 NSaved= 6 IEnMin= 6 EnMin= -317.831483439601     IErMin= 6 ErrMin= 3.04D-05
 ErrMax= 3.04D-05  0.00D+00 EMaxC= 1.00D-01 BMatC= 1.22D-07 BMatP= 8.84D-07
 IDIUse=1 WtCom= 1.00D+00 WtEn= 0.00D+00
 Coeff-Com: -0.310D-03 0.280D-02 0.177D-01-0.109D+00 0.209D+00 0.880D+00
 Coeff:     -0.310D-03 0.280D-02 0.177D-01-0.109D+00 0.209D+00 0.880D+00
 Gap=     0.630 Goal=   None    Shift=    0.000
 RMSDP=4.66D-06 MaxDP=9.40D-05 DE=-1.65D-06 OVMax= 1.20D-04

 Cycle   7  Pass 1  IDiag  1:
 E= -317.831483599613     Delta-E=       -0.000000160012 Rises=F Damp=F
 DIIS: error= 6.26D-06 at cycle   7 NSaved=   7.
 NSaved= 7 IEnMin= 7 EnMin= -317.831483599613     IErMin= 7 ErrMin= 6.26D-06
 ErrMax= 6.26D-06  0.00D+00 EMaxC= 1.00D-01 BMatC= 6.86D-09 BMatP= 1.22D-07
 IDIUse=1 WtCom= 1.00D+00 WtEn= 0.00D+00
 Coeff-Com: -0.101D-03 0.373D-03 0.308D-02-0.188D-02-0.967D-01 0.277D-01
 Coeff-Com:  0.107D+01
 Coeff:     -0.101D-03 0.373D-03 0.308D-02-0.188D-02-0.967D-01 0.277D-01
 Coeff:      0.107D+01
 Gap=     0.630 Goal=   None    Shift=    0.000
 RMSDP=1.50D-06 MaxDP=2.39D-05 DE=-1.60D-07 OVMax= 3.72D-05

 Cycle   8  Pass 1  IDiag  1:
 E= -317.831483612627     Delta-E=       -0.000000013014 Rises=F Damp=F
 DIIS: error= 1.74D-06 at cycle   8 NSaved=   8.
 NSaved= 8 IEnMin= 8 EnMin= -317.831483612627     IErMin= 8 ErrMin= 1.74D-06
 ErrMax= 1.74D-06  0.00D+00 EMaxC= 1.00D-01 BMatC= 3.16D-10 BMatP= 6.86D-09
 IDIUse=1 WtCom= 1.00D+00 WtEn= 0.00D+00
 Coeff-Com:  0.445D-04-0.245D-03-0.181D-02 0.573D-02 0.239D-01-0.462D-01
 Coeff-Com: -0.354D+00 0.137D+01
 Coeff:      0.445D-04-0.245D-03-0.181D-02 0.573D-02 0.239D-01-0.462D-01
 Coeff:     -0.354D+00 0.137D+01
 Gap=     0.630 Goal=   None    Shift=    0.000
 RMSDP=3.50D-07 MaxDP=7.25D-06 DE=-1.30D-08 OVMax= 8.41D-06

 Cycle   9  Pass 1  IDiag  1:
 E= -317.831483613425     Delta-E=       -0.000000000798 Rises=F Damp=F
 DIIS: error= 2.77D-07 at cycle   9 NSaved=   9.
 NSaved= 9 IEnMin= 9 EnMin= -317.831483613425     IErMin= 9 ErrMin= 2.77D-07
 ErrMax= 2.77D-07  0.00D+00 EMaxC= 1.00D-01 BMatC= 1.33D-11 BMatP= 3.16D-10
 IDIUse=1 WtCom= 1.00D+00 WtEn= 0.00D+00
 Coeff-Com:  0.277D-05-0.709D-05-0.617D-04-0.232D-03 0.398D-02 0.603D-03
 Coeff-Com: -0.384D-01-0.313D-01 0.107D+01
 Coeff:      0.277D-05-0.709D-05-0.617D-04-0.232D-03 0.398D-02 0.603D-03
 Coeff:     -0.384D-01-0.313D-01 0.107D+01
 Gap=     0.630 Goal=   None    Shift=    0.000
 RMSDP=6.46D-08 MaxDP=1.61D-06 DE=-7.98D-10 OVMax= 2.06D-06

 Cycle  10  Pass 1  IDiag  1:
 E= -317.831483613460     Delta-E=       -0.000000000035 Rises=F Damp=F
 DIIS: error= 1.36D-07 at cycle  10 NSaved=  10.
 NSaved=10 IEnMin=10 EnMin= -317.831483613460     IErMin=10 ErrMin= 1.36D-07
 ErrMax= 1.36D-07  0.00D+00 EMaxC= 1.00D-01 BMatC= 2.08D-12 BMatP= 1.33D-11
 IDIUse=1 WtCom= 1.00D+00 WtEn= 0.00D+00
 Coeff-Com: -0.385D-05 0.233D-04 0.170D-03-0.652D-03-0.143D-02 0.478D-02
 Coeff-Com:  0.263D-01-0.140D+00 0.221D+00 0.890D+00
 Coeff:     -0.385D-05 0.233D-04 0.170D-03-0.652D-03-0.143D-02 0.478D-02
 Coeff:      0.263D-01-0.140D+00 0.221D+00 0.890D+00
 Gap=     0.630 Goal=   None    Shift=    0.000
 RMSDP=2.16D-08 MaxDP=5.35D-07 DE=-3.47D-11 OVMax= 7.48D-07

 Cycle  11  Pass 1  IDiag  1:
 E= -317.831483613460     Delta-E=       -0.000000000000 Rises=F Damp=F
 DIIS: error= 3.38D-08 at cycle  11 NSaved=  11.
 NSaved=11 IEnMin=11 EnMin= -317.831483613460     IErMin=11 ErrMin= 3.38D-08
 ErrMax= 3.38D-08  0.00D+00 EMaxC= 1.00D-01 BMatC= 1.37D-13 BMatP= 2.08D-12
 IDIUse=1 WtCom= 1.00D+00 WtEn= 0.00D+00
 Coeff-Com: -0.182D-06 0.190D-06 0.236D-05 0.375D-04-0.370D-03-0.207D-03
 Coeff-Com:  0.307D-02 0.689D-02-0.116D+00-0.429D-01 0.115D+01
 Coeff:     -0.182D-06 0.190D-06 0.236D-05 0.375D-04-0.370D-03-0.207D-03
 Coeff:      0.307D-02 0.689D-02-0.116D+00-0.429D-01 0.115D+01
 Gap=     0.630 Goal=   None    Shift=    0.000
 RMSDP=9.42D-09 MaxDP=2.55D-07 DE=-3.41D-13 OVMax= 3.70D-07

 SCF Done:  E(RHF) =  -317.831483613     A.U. after   11 cycles
            NFock= 11  Conv=0.94D-08     -V/T= 2.0469
 KE= 3.036071936569D+02 PE=-9.628299159121D+02 EE= 2.344133303485D+02
 Leave Link  502 at Fri May 15 22:35:21 2020, MaxMem=   134217728 cpu:               1.5 elap:               0.6
 (Enter /home/soft/g16/l601.exe)
 Copying SCF densities to generalized density rwf, IOpCl= 0 IROHF=0.

 **********************************************************************

            Population analysis using the SCF density.

 **********************************************************************

 Alpha  occ. eigenvalues --  -20.64325 -20.56952 -20.56116 -20.55672  -1.42493
 Alpha  occ. eigenvalues --   -1.35321  -1.34432  -1.33952  -0.78823  -0.71432
 Alpha  occ. eigenvalues --   -0.70763  -0.70455  -0.66763  -0.58882  -0.58299
 Alpha  occ. eigenvalues --   -0.57559  -0.56712  -0.51045  -0.50229  -0.49577
 Alpha virt. eigenvalues --    0.13422   0.18402   0.21979   0.24666   0.30577
 Alpha virt. eigenvalues --    0.31958   0.35959   0.39742   0.92535   0.98193
 Alpha virt. eigenvalues --    1.00018   1.01029   1.02401   1.05066   1.07580
 Alpha virt. eigenvalues --    1.09378   1.10224   1.11943   1.13906   1.16546
 Alpha virt. eigenvalues --    1.18290   1.18839   1.21476   1.23000   1.28812
 Alpha virt. eigenvalues --    1.31088   1.32642   1.35637   1.52620   1.58684
 Alpha virt. eigenvalues --    1.61050   1.71178   1.73282   1.74595   1.79650
 Alpha virt. eigenvalues --    1.80007   1.80294   1.82794   1.83072   1.83904
 Alpha virt. eigenvalues --    1.86315   1.91517   1.92149   1.99921   2.50028
 Alpha virt. eigenvalues --    2.50796   2.55837   2.58046   2.58351   2.58825
 Alpha virt. eigenvalues --    2.59357   2.63108   2.73212   2.80120   2.81579
 Alpha virt. eigenvalues --    2.82494   2.89943   2.91306   2.97025   2.97704
 Alpha virt. eigenvalues --    2.98182   2.98915   2.99581   3.02714   3.29451
 Alpha virt. eigenvalues --    3.37734   3.38039   3.39060   3.67707   3.75129
 Alpha virt. eigenvalues --    3.76533   3.78789   3.84443   3.92018   3.93596
 Alpha virt. eigenvalues --    3.98125
          Condensed to atoms (all electrons):
               1          2          3          4          5          6
     1  O    8.118195  -0.000560  -0.000003  -0.000000   0.318131   0.315455
     2  O   -0.000560   8.107197  -0.000116  -0.007694   0.000061   0.001788
     3  O   -0.000003  -0.000116   8.114789  -0.000404   0.000000   0.000001
     4  O   -0.000000  -0.007694  -0.000404   8.074380   0.000000   0.000000
     5  H    0.318131   0.000061   0.000000   0.000000   0.331624  -0.023472
     6  H    0.315455   0.001788   0.000001   0.000000  -0.023472   0.327561
     7  H    0.000048   0.306560   0.001218   0.017033  -0.000001  -0.000000
     8  H    0.001372   0.307364   0.000079   0.000349  -0.000037   0.000653
     9  H   -0.000002   0.000046   0.306324   0.003112   0.000000   0.000001
    10  H    0.000148   0.000089   0.315612  -0.000027  -0.000003   0.000005
    11  H    0.000000   0.000502   0.000041   0.310755  -0.000000  -0.000000
    12  H    0.000000   0.000247   0.000152   0.312132  -0.000000  -0.000000
               7          8          9         10         11         12
     1  O    0.000048   0.001372  -0.000002   0.000148   0.000000   0.000000
     2  O    0.306560   0.307364   0.000046   0.000089   0.000502   0.000247
     3  O    0.001218   0.000079   0.306324   0.315612   0.000041   0.000152
     4  O    0.017033   0.000349   0.003112  -0.000027   0.310755   0.312132
     5  H   -0.000001  -0.000037   0.000000  -0.000003  -0.000000  -0.000000
     6  H   -0.000000   0.000653   0.000001   0.000005  -0.000000  -0.000000
     7  H    0.327098  -0.025788   0.000594   0.000162  -0.000976  -0.000888
     8  H   -0.025788   0.395890   0.000030   0.000062  -0.000016  -0.000013
     9  H    0.000594   0.000030   0.372746  -0.022780  -0.000078  -0.000004
    10  H    0.000162   0.000062  -0.022780   0.311350   0.000000  -0.000006
    11  H   -0.000976  -0.000016  -0.000078   0.000000   0.365142  -0.021901
    12  H   -0.000888  -0.000013  -0.000004  -0.000006  -0.021901   0.323307
 Mulliken charges:
               1
     1  O   -0.752785
     2  O   -0.715484
     3  O   -0.737693
     4  O   -0.709637
     5  H    0.373696
     6  H    0.378007
     7  H    0.374939
     8  H    0.320055
     9  H    0.340011
    10  H    0.395388
    11  H    0.346531
    12  H    0.386972
 Sum of Mulliken charges =  -0.00000
 Mulliken charges with hydrogens summed into heavy atoms:
               1
     1  O   -0.001082
     2  O   -0.020490
     3  O   -0.002294
     4  O    0.023866
 Electronic spatial extent (au):  <R**2>=          67338.0762
 Charge=             -0.0000 electrons
 Dipole moment (field-independent basis, Debye):
    X=              0.7868    Y=             -0.5811    Z=              1.2385  Tot=              1.5782
 Quadrupole moment (field-independent basis, Debye-Ang):
   XX=              6.8151   YY=              3.7834   ZZ=            -64.1678
   XY=             -7.3468   XZ=             10.3633   YZ=            -10.4481
 Traceless Quadrupole moment (field-independent basis, Debye-Ang):
   XX=             24.6715   YY=             21.6398   ZZ=            -46.3113
   XY=             -7.3468   XZ=             10.3633   YZ=            -10.4481
 Octapole moment (field-independent basis, Debye-Ang**2):
  XXX=           -102.2788  YYY=            198.4776  ZZZ=           1523.9949  XYY=           -104.7641
  XXY=            101.1882  XXZ=            188.3546  XZZ=           -763.6647  YZZ=            863.2074
  YYZ=            156.0316  XYZ=           -173.8450
 Hexadecapole moment (field-independent basis, Debye-Ang**3):
 XXXX=          -5468.1592 YYYY=          -9494.1308 ZZZZ=         -27825.0340 XXXY=           5881.7021
 XXXZ=           4555.9225 YYYX=           6748.6902 YYYZ=          -3969.7516 ZZZX=          18723.2017
 ZZZY=         -21729.7825 XXYY=          -6182.9129 XXZZ=         -10335.5891 YYZZ=         -12688.1753
 XXYZ=          -4576.1093 YYXZ=           4176.4632 ZZXY=          11386.9966
 N-N= 1.069779082932D+02 E-N=-9.628299156049D+02  KE= 3.036071936569D+02
 No NMR shielding tensors so no spin-rotation constants.
 Leave Link  601 at Fri May 15 22:35:22 2020, MaxMem=   134217728 cpu:               0.3 elap:               0.1
 (Enter /home/soft/g16/l607.exe)
 ******************************Gaussian NBO Version 3.1******************************
             N A T U R A L   A T O M I C   O R B I T A L   A N D
          N A T U R A L   B O N D   O R B I T A L   A N A L Y S I S
 ******************************Gaussian NBO Version 3.1******************************
       /RESON  / : Allow strongly delocalized NBO set

 Analyzing the SCF density

 Job title: Atom number=12                                                  

 Storage needed:     28188 in NPA ( 134216936 available)
 GSVD:  LWork=        4224 too small for GESVD, short by        5328 words or        5328 for optimal perf.


 NATURAL POPULATIONS:  Natural atomic orbital occupancies 
                                                          
   NAO  Atom  No  lang   Type(AO)    Occupancy      Energy
 ----------------------------------------------------------
     1    O    1  S      Cor( 1S)     1.99986     -20.48143
     2    O    1  S      Val( 2S)     1.75590      -1.24508
     3    O    1  S      Ryd( 3S)     0.00113       1.60587
     4    O    1  px     Val( 2p)     1.75888      -0.51981
     5    O    1  px     Ryd( 3p)     0.00056       1.10120
     6    O    1  py     Val( 2p)     1.55588      -0.43321
     7    O    1  py     Ryd( 3p)     0.00190       1.20778
     8    O    1  pz     Val( 2p)     1.94725      -0.56506
     9    O    1  pz     Ryd( 3p)     0.00060       1.09478
    10    O    1  dxy    Ryd( 3d)     0.00167       2.98668
    11    O    1  dxz    Ryd( 3d)     0.00140       2.22110
    12    O    1  dyz    Ryd( 3d)     0.00023       2.36455
    13    O    1  dx2y2  Ryd( 3d)     0.00084       2.39608
    14    O    1  dz2    Ryd( 3d)     0.00098       2.38022

    15    O    2  S      Cor( 1S)     1.99985     -20.38800
    16    O    2  S      Val( 2S)     1.75123      -1.15554
    17    O    2  S      Ryd( 3S)     0.00113       1.78336
    18    O    2  px     Val( 2p)     1.59345      -0.35872
    19    O    2  px     Ryd( 3p)     0.00183       1.30342
    20    O    2  py     Val( 2p)     1.90013      -0.46173
    21    O    2  py     Ryd( 3p)     0.00104       1.20219
    22    O    2  pz     Val( 2p)     1.73739      -0.42065
    23    O    2  pz     Ryd( 3p)     0.00033       1.20240
    24    O    2  dxy    Ryd( 3d)     0.00030       2.56809
    25    O    2  dxz    Ryd( 3d)     0.00189       3.00151
    26    O    2  dyz    Ryd( 3d)     0.00194       2.40554
    27    O    2  dx2y2  Ryd( 3d)     0.00019       2.42250
    28    O    2  dz2    Ryd( 3d)     0.00203       2.42190

    29    O    3  S      Cor( 1S)     1.99986     -20.39782
    30    O    3  S      Val( 2S)     1.75890      -1.16161
    31    O    3  S      Ryd( 3S)     0.00102       1.69138
    32    O    3  px     Val( 2p)     1.74882      -0.41433
    33    O    3  px     Ryd( 3p)     0.00143       1.23774
    34    O    3  py     Val( 2p)     1.72184      -0.41329
    35    O    3  py     Ryd( 3p)     0.00091       1.22569
    36    O    3  pz     Val( 2p)     1.76862      -0.42669
    37    O    3  pz     Ryd( 3p)     0.00088       1.20899
    38    O    3  dxy    Ryd( 3d)     0.00110       2.60957
    39    O    3  dxz    Ryd( 3d)     0.00128       2.73761
    40    O    3  dyz    Ryd( 3d)     0.00152       2.35158
    41    O    3  dx2y2  Ryd( 3d)     0.00111       2.54529
    42    O    3  dz2    Ryd( 3d)     0.00150       2.53488

    43    O    4  S      Cor( 1S)     1.99986     -20.40772
    44    O    4  S      Val( 2S)     1.75666      -1.16859
    45    O    4  S      Ryd( 3S)     0.00108       1.68376
    46    O    4  px     Val( 2p)     1.60739      -0.37746
    47    O    4  px     Ryd( 3p)     0.00185       1.29055
    48    O    4  py     Val( 2p)     1.69710      -0.41340
    49    O    4  py     Ryd( 3p)     0.00111       1.32285
    50    O    4  pz     Val( 2p)     1.93382      -0.48667
    51    O    4  pz     Ryd( 3p)     0.00044       1.17604
    52    O    4  dxy    Ryd( 3d)     0.00095       2.62423
    53    O    4  dxz    Ryd( 3d)     0.00095       2.53312
    54    O    4  dyz    Ryd( 3d)     0.00151       2.34085
    55    O    4  dx2y2  Ryd( 3d)     0.00122       2.85729
    56    O    4  dz2    Ryd( 3d)     0.00133       2.40845

    57    H    5  S      Val( 1S)     0.48422       0.27883
    58    H    5  S      Ryd( 2S)     0.00072       0.64186
    59    H    5  px     Ryd( 2p)     0.00080       2.73021
    60    H    5  py     Ryd( 2p)     0.00116       3.06970
    61    H    5  pz     Ryd( 2p)     0.00098       2.61012

    62    H    6  S      Val( 1S)     0.48157       0.28477
    63    H    6  S      Ryd( 2S)     0.00109       0.69472
    64    H    6  px     Ryd( 2p)     0.00114       2.97411
    65    H    6  py     Ryd( 2p)     0.00096       2.92886
    66    H    6  pz     Ryd( 2p)     0.00081       2.53498

    67    H    7  S      Val( 1S)     0.47878       0.37007
    68    H    7  S      Ryd( 2S)     0.00117       0.83706
    69    H    7  px     Ryd( 2p)     0.00112       3.09726
    70    H    7  py     Ryd( 2p)     0.00120       2.80493
    71    H    7  pz     Ryd( 2p)     0.00080       2.86490

    72    H    8  S      Val( 1S)     0.52901       0.30019
    73    H    8  S      Ryd( 2S)     0.00118       0.78372
    74    H    8  px     Ryd( 2p)     0.00103       2.98026
    75    H    8  py     Ryd( 2p)     0.00097       2.63206
    76    H    8  pz     Ryd( 2p)     0.00121       3.02227

    77    H    9  S      Val( 1S)     0.51298       0.31953
    78    H    9  S      Ryd( 2S)     0.00154       0.76447
    79    H    9  px     Ryd( 2p)     0.00111       2.92698
    80    H    9  py     Ryd( 2p)     0.00068       2.63668
    81    H    9  pz     Ryd( 2p)     0.00139       3.07589

    82    H   10  S      Val( 1S)     0.47024       0.38645
    83    H   10  S      Ryd( 2S)     0.00070       0.74618
    84    H   10  px     Ryd( 2p)     0.00103       2.79826
    85    H   10  py     Ryd( 2p)     0.00153       3.25235
    86    H   10  pz     Ryd( 2p)     0.00066       2.64506

    87    H   11  S      Val( 1S)     0.50217       0.32442
    88    H   11  S      Ryd( 2S)     0.00100       0.71037
    89    H   11  px     Ryd( 2p)     0.00075       2.79147
    90    H   11  py     Ryd( 2p)     0.00146       3.21846
    91    H   11  pz     Ryd( 2p)     0.00092       2.62428

    92    H   12  S      Val( 1S)     0.47414       0.37334
    93    H   12  S      Ryd( 2S)     0.00074       0.75279
    94    H   12  px     Ryd( 2p)     0.00155       3.29886
    95    H   12  py     Ryd( 2p)     0.00057       2.68203
    96    H   12  pz     Ryd( 2p)     0.00103       2.72184


 Summary of Natural Population Analysis:                  
                                                          
                                       Natural Population 
                Natural  -----------------------------------------------
    Atom  No    Charge         Core      Valence    Rydberg      Total
 -----------------------------------------------------------------------
      O    1   -1.02708      1.99986     7.01791    0.00931     9.02708
      O    2   -0.99273      1.99985     6.98220    0.01068     8.99273
      O    3   -1.00880      1.99986     6.99818    0.01076     9.00880
      O    4   -1.00528      1.99986     6.99497    0.01045     9.00528
      H    5    0.51211      0.00000     0.48422    0.00367     0.48789
      H    6    0.51443      0.00000     0.48157    0.00400     0.48557
      H    7    0.51693      0.00000     0.47878    0.00429     0.48307
      H    8    0.46660      0.00000     0.52901    0.00439     0.53340
      H    9    0.48231      0.00000     0.51298    0.00472     0.51769
      H   10    0.52584      0.00000     0.47024    0.00392     0.47416
      H   11    0.49371      0.00000     0.50217    0.00413     0.50629
      H   12    0.52197      0.00000     0.47414    0.00389     0.47803
 =======================================================================
   * Total *   -0.00000      7.99944    31.92635    0.07421    40.00000

                                 Natural Population      
 --------------------------------------------------------
   Core                       7.99944 ( 99.9929% of   8)
   Valence                   31.92635 ( 99.7698% of  32)
   Natural Minimal Basis     39.92579 ( 99.8145% of  40)
   Natural Rydberg Basis      0.07421 (  0.1855% of  40)
 --------------------------------------------------------

    Atom  No          Natural Electron Configuration
 ----------------------------------------------------------------------------
      O    1      [core]2S( 1.76)2p( 5.26)3d( 0.01)
      O    2      [core]2S( 1.75)2p( 5.23)3d( 0.01)
      O    3      [core]2S( 1.76)2p( 5.24)3d( 0.01)
      O    4      [core]2S( 1.76)2p( 5.24)3d( 0.01)
      H    5            1S( 0.48)
      H    6            1S( 0.48)
      H    7            1S( 0.48)
      H    8            1S( 0.53)
      H    9            1S( 0.51)
      H   10            1S( 0.47)
      H   11            1S( 0.50)
      H   12            1S( 0.47)


 NBO analysis skipped by request.
 Leave Link  607 at Fri May 15 22:35:22 2020, MaxMem=   134217728 cpu:               0.6 elap:               0.2
 (Enter /home/soft/g16/l9999.exe)

 Test job not archived.
 1\1\GINC-MASTER\SP\RHF\6-31G(d,p)\H8O4\LIWEI01\15-May-2020\0\\#p hf/6-
 31g** 5d 7f pop=npa charge nosymm\\Atom number=12\\0,1\O,0,13.457564,-
 11.773284,-9.774029\O,0,12.996031,-14.71385,-11.210036\O,0,11.471495,-
 15.355316,-7.518016\O,0,11.324452,-17.011592,-10.76277\H,0,13.908886,-
 10.996207,-10.103715\H,0,14.150775,-12.423635,-9.661183\H,0,12.28642,-
 15.161884,-10.749655\H,0,13.635659,-14.51236,-10.527021\H,0,10.864403,
 -15.35575,-8.258065\H,0,11.907538,-14.504542,-7.565812\H,0,11.716545,-
 17.863306,-10.570212\H,0,10.44278,-17.064361,-10.39385\\Version=ES64L-
 G16RevA.03\HF=-317.8314836\RMSD=9.421e-09\Dipole=0.3095415,-0.2286342,
 0.4872751\Quadrupole=18.3426403,16.0886969,-34.4313372,-5.4621403,7.70
 48284,-7.7678972\PG=C01 [X(H8O4)]\\@


 MICRO CREDO - NEVER TRUST A COMPUTER BIGGER
               BIGGER THAN YOU CAN LIFT.
 Job cpu time:       0 days  0 hours  0 minutes  7.5 seconds.
 Elapsed time:       0 days  0 hours  0 minutes  2.3 seconds.
 File lengths (MBytes):  RWF=     72 Int=      0 D2E=      0 Chk=      8 Scr=      8
 Normal termination of Gaussian 16 at Fri May 15 22:35:22 2020.
