 Entering Gaussian System, Link 0=g16
 Input=w32_46.gjf
 Output=w32_46.log
 Initial command:
 /home/soft/g16/l1.exe "/tmp/liwei01/gaussian/wsr/Gau-7249.inp" -scrdir="/tmp/liwei01/gaussian/wsr/"
 Entering Link 1 = /home/soft/g16/l1.exe PID=      7250.
  
 Copyright (c) 1988,1990,1992,1993,1995,1998,2003,2009,2016,
            Gaussian, Inc.  All Rights Reserved.
  
 This is part of the Gaussian(R) 16 program.  It is based on
 the Gaussian(R) 09 system (copyright 2009, Gaussian, Inc.),
 the Gaussian(R) 03 system (copyright 2003, Gaussian, Inc.),
 the Gaussian(R) 98 system (copyright 1998, Gaussian, Inc.),
 the Gaussian(R) 94 system (copyright 1995, Gaussian, Inc.),
 the Gaussian 92(TM) system (copyright 1992, Gaussian, Inc.),
 the Gaussian 90(TM) system (copyright 1990, Gaussian, Inc.),
 the Gaussian 88(TM) system (copyright 1988, Gaussian, Inc.),
 the Gaussian 86(TM) system (copyright 1986, Carnegie Mellon
 University), and the Gaussian 82(TM) system (copyright 1983,
 Carnegie Mellon University). Gaussian is a federally registered
 trademark of Gaussian, Inc.
  
 This software contains proprietary and confidential information,
 including trade secrets, belonging to Gaussian, Inc.
  
 This software is provided under written license and may be
 used, copied, transmitted, or stored only in accord with that
 written license.
  
 The following legend is applicable only to US Government
 contracts under FAR:
  
                    RESTRICTED RIGHTS LEGEND
  
 Use, reproduction and disclosure by the US Government is
 subject to restrictions as set forth in subparagraphs (a)
 and (c) of the Commercial Computer Software - Restricted
 Rights clause in FAR 52.227-19.
  
 Gaussian, Inc.
 340 Quinnipiac St., Bldg. 40, Wallingford CT 06492
  
  
 ---------------------------------------------------------------
 Warning -- This program may not be used in any manner that
 competes with the business of Gaussian, Inc. or will provide
 assistance to any competitor of Gaussian, Inc.  The licensee
 of this program is prohibited from giving any competitor of
 Gaussian, Inc. access to this program.  By using this program,
 the user acknowledges that Gaussian, Inc. is engaged in the
 business of creating and licensing software in the field of
 computational chemistry and represents and warrants to the
 licensee that it is not a competitor of Gaussian, Inc. and that
 it will not use this program in any manner prohibited above.
 ---------------------------------------------------------------
  

 Cite this work as:
 Gaussian 16, Revision A.03,
 M. J. Frisch, G. W. Trucks, H. B. Schlegel, G. E. Scuseria, 
 M. A. Robb, J. R. Cheeseman, G. Scalmani, V. Barone, 
 G. A. Petersson, H. Nakatsuji, X. Li, M. Caricato, A. V. Marenich, 
 J. Bloino, B. G. Janesko, R. Gomperts, B. Mennucci, H. P. Hratchian, 
 J. V. Ortiz, A. F. Izmaylov, J. L. Sonnenberg, D. Williams-Young, 
 F. Ding, F. Lipparini, F. Egidi, J. Goings, B. Peng, A. Petrone, 
 T. Henderson, D. Ranasinghe, V. G. Zakrzewski, J. Gao, N. Rega, 
 G. Zheng, W. Liang, M. Hada, M. Ehara, K. Toyota, R. Fukuda, 
 J. Hasegawa, M. Ishida, T. Nakajima, Y. Honda, O. Kitao, H. Nakai, 
 T. Vreven, K. Throssell, J. A. Montgomery, Jr., J. E. Peralta, 
 F. Ogliaro, M. J. Bearpark, J. J. Heyd, E. N. Brothers, K. N. Kudin, 
 V. N. Staroverov, T. A. Keith, R. Kobayashi, J. Normand, 
 K. Raghavachari, A. P. Rendell, J. C. Burant, S. S. Iyengar, 
 J. Tomasi, M. Cossi, J. M. Millam, M. Klene, C. Adamo, R. Cammi, 
 J. W. Ochterski, R. L. Martin, K. Morokuma, O. Farkas, 
 J. B. Foresman, and D. J. Fox, Gaussian, Inc., Wallingford CT, 2016.
 
 ******************************************
 Gaussian 16:  ES64L-G16RevA.03 25-Dec-2016
                15-May-2020 
 ******************************************
 %chk=w32_46.chk
 %nproc=4
 Will use up to    4 processors via shared memory.
 %mem=1gb
 -----------------------------------------
 #p hf/6-31g** 5d 7f pop=npa charge nosymm
 -----------------------------------------
 1/18=10,28=-2,38=1,125=101,172=1/1;
 2/12=2,15=1,17=6,18=5,40=1/2;
 3/5=1,6=6,7=101,8=11,11=9,25=1,30=1/1,2,3;
 4//1;
 5/5=2,38=5/2;
 6/7=2,8=2,9=2,10=2,28=1,40=-1/1,7;
 99/5=1,9=1/99;
 Leave Link    1 at Fri May 15 22:35:51 2020, MaxMem=   134217728 cpu:               0.3 elap:               0.1
 (Enter /home/soft/g16/l101.exe)
 --------------
 Atom number=12
 --------------
 Symbolic Z-matrix:
 Charge =  0 Multiplicity = 1
 o                     7.25028  -9.85963  -13.10346 
 o                     6.96619  -9.24779  -10.27431 
 o                     4.64126  -8.13828  -12.67115 
 o                     4.90696  -7.91001  -9.13004 
 h                     7.12066  -10.22147  -13.9801 
 h                     7.34148  -10.62674  -12.53826 
 h                     6.97515  -9.84502  -11.02229 
 h                     7.68438  -8.63847  -10.4451 
 h                     4.59781  -7.27204  -12.2662 
 h                     5.5765   -8.33841  -12.70997 
 h                     4.06352  -8.02651  -9.56738 
 h                     5.42273  -8.67097  -9.39679 
 
 ITRead=  0  0  0  0  0  0  0  0  0  0  0  0
 MicOpt= -1 -1 -1 -1 -1 -1 -1 -1 -1 -1 -1 -1
 NAtoms=     12 NQM=       12 NQMF=       0 NMMI=      0 NMMIF=      0
                NMic=       0 NMicF=      0.
                    Isotopes and Nuclear Properties:
 (Nuclear quadrupole moments (NQMom) in fm**2, nuclear magnetic moments (NMagM)
  in nuclear magnetons)

  Atom         1           2           3           4           5           6           7           8           9          10
 IAtWgt=          16          16          16          16           1           1           1           1           1           1
 AtmWgt=  15.9949146  15.9949146  15.9949146  15.9949146   1.0078250   1.0078250   1.0078250   1.0078250   1.0078250   1.0078250
 NucSpn=           0           0           0           0           1           1           1           1           1           1
 AtZEff=  -0.0000000  -0.0000000  -0.0000000  -0.0000000  -0.0000000  -0.0000000  -0.0000000  -0.0000000  -0.0000000  -0.0000000
 NQMom=    0.0000000   0.0000000   0.0000000   0.0000000   0.0000000   0.0000000   0.0000000   0.0000000   0.0000000   0.0000000
 NMagM=    0.0000000   0.0000000   0.0000000   0.0000000   2.7928460   2.7928460   2.7928460   2.7928460   2.7928460   2.7928460
 AtZNuc=   8.0000000   8.0000000   8.0000000   8.0000000   1.0000000   1.0000000   1.0000000   1.0000000   1.0000000   1.0000000

  Atom        11          12
 IAtWgt=           1           1
 AtmWgt=   1.0078250   1.0078250
 NucSpn=           1           1
 AtZEff=  -0.0000000  -0.0000000
 NQMom=    0.0000000   0.0000000
 NMagM=    2.7928460   2.7928460
 AtZNuc=   1.0000000   1.0000000
 Background charge distribution read from input stream:
 Point Charges:
 XYZ=    8.3923  -11.8129  -11.2005 Q=   -1.0561 A=    0.0000 R=    0.0000 C=    0.0000
 XYZ=    8.1753  -12.5378  -10.6142 Q=    0.5233 A=    0.0000 R=    0.0000 C=    0.0000
 XYZ=    9.2522  -11.5141  -10.9045 Q=    0.5177 A=    0.0000 R=    0.0000 C=    0.0000
 XYZ=   10.7060  -10.8489  -10.0915 Q=   -1.0357 A=    0.0000 R=    0.0000 C=    0.0000
 XYZ=   11.5214  -11.3203   -9.9208 Q=    0.5206 A=    0.0000 R=    0.0000 C=    0.0000
 XYZ=   10.5678  -10.3169   -9.3078 Q=    0.5156 A=    0.0000 R=    0.0000 C=    0.0000
 XYZ=    8.6932  -14.0693   -9.5471 Q=   -1.0099 A=    0.0000 R=    0.0000 C=    0.0000
 XYZ=    8.2201  -13.7327   -8.7861 Q=    0.4999 A=    0.0000 R=    0.0000 C=    0.0000
 XYZ=    8.5528  -15.0157   -9.5178 Q=    0.5079 A=    0.0000 R=    0.0000 C=    0.0000
 XYZ=    5.5704  -12.7600  -10.7338 Q=   -1.0500 A=    0.0000 R=    0.0000 C=    0.0000
 XYZ=    4.6427  -12.8278  -10.5079 Q=    0.5214 A=    0.0000 R=    0.0000 C=    0.0000
 XYZ=    5.9838  -12.4052   -9.9468 Q=    0.5064 A=    0.0000 R=    0.0000 C=    0.0000
 XYZ=    6.9426  -11.8294   -8.3710 Q=   -1.0528 A=    0.0000 R=    0.0000 C=    0.0000
 XYZ=    7.4956  -12.0911   -7.6348 Q=    0.5210 A=    0.0000 R=    0.0000 C=    0.0000
 XYZ=    7.3075  -10.9928   -8.6597 Q=    0.5255 A=    0.0000 R=    0.0000 C=    0.0000
 XYZ=    9.7397  -14.5602  -13.0841 Q=   -1.0029 A=    0.0000 R=    0.0000 C=    0.0000
 XYZ=    9.4367  -13.9209  -12.4394 Q=    0.5215 A=    0.0000 R=    0.0000 C=    0.0000
 XYZ=   10.6527  -14.3230  -13.2466 Q=    0.4988 A=    0.0000 R=    0.0000 C=    0.0000
 XYZ=   10.0849   -9.6030  -13.6944 Q=   -1.0549 A=    0.0000 R=    0.0000 C=    0.0000
 XYZ=    9.8380   -9.8779  -14.5774 Q=    0.5180 A=    0.0000 R=    0.0000 C=    0.0000
 XYZ=    9.2671   -9.6284  -13.1976 Q=    0.5226 A=    0.0000 R=    0.0000 C=    0.0000
 XYZ=    9.4738   -7.9972  -10.9180 Q=   -0.9971 A=    0.0000 R=    0.0000 C=    0.0000
 XYZ=    9.9975   -8.7956  -10.8516 Q=    0.5301 A=    0.0000 R=    0.0000 C=    0.0000
 XYZ=    9.6234   -7.5424  -10.0892 Q=    0.4920 A=    0.0000 R=    0.0000 C=    0.0000
 XYZ=    8.4516  -10.6356  -15.6859 Q=   -1.0322 A=    0.0000 R=    0.0000 C=    0.0000
 XYZ=    8.1250  -10.4069  -16.5562 Q=    0.4798 A=    0.0000 R=    0.0000 C=    0.0000
 XYZ=    9.2622  -11.1166  -15.8526 Q=    0.5341 A=    0.0000 R=    0.0000 C=    0.0000
 XYZ=    4.0391  -11.2243  -12.8044 Q=   -0.9921 A=    0.0000 R=    0.0000 C=    0.0000
 XYZ=    4.5248  -12.0476  -12.7552 Q=    0.4802 A=    0.0000 R=    0.0000 C=    0.0000
 XYZ=    4.4321  -10.7575  -13.5420 Q=    0.5046 A=    0.0000 R=    0.0000 C=    0.0000
 XYZ=    5.5848  -15.5922  -11.4699 Q=   -1.0129 A=    0.0000 R=    0.0000 C=    0.0000
 XYZ=    4.6785  -15.3483  -11.6582 Q=    0.5050 A=    0.0000 R=    0.0000 C=    0.0000
 XYZ=    6.0031  -14.7735  -11.2032 Q=    0.5257 A=    0.0000 R=    0.0000 C=    0.0000
 XYZ=    8.8013  -12.4259   -6.4973 Q=   -0.9852 A=    0.0000 R=    0.0000 C=    0.0000
 XYZ=    9.0556  -11.7490   -5.8701 Q=    0.5006 A=    0.0000 R=    0.0000 C=    0.0000
 XYZ=    8.9395  -13.2499   -6.0303 Q=    0.5083 A=    0.0000 R=    0.0000 C=    0.0000
 XYZ=   10.5523   -9.0602   -7.7657 Q=   -0.9799 A=    0.0000 R=    0.0000 C=    0.0000
 XYZ=   10.0296   -9.4526   -7.0665 Q=    0.5003 A=    0.0000 R=    0.0000 C=    0.0000
 XYZ=   10.0576   -8.2839   -8.0284 Q=    0.4937 A=    0.0000 R=    0.0000 C=    0.0000
 XYZ=    8.4919  -14.1596  -15.7110 Q=   -0.9823 A=    0.0000 R=    0.0000 C=    0.0000
 XYZ=    8.8439  -15.0437  -15.8144 Q=    0.4799 A=    0.0000 R=    0.0000 C=    0.0000
 XYZ=    8.9183  -13.8221  -14.9233 Q=    0.4950 A=    0.0000 R=    0.0000 C=    0.0000
 XYZ=   10.6752  -11.9252  -15.8192 Q=   -0.9837 A=    0.0000 R=    0.0000 C=    0.0000
 XYZ=   11.1454  -12.2597  -15.0555 Q=    0.5055 A=    0.0000 R=    0.0000 C=    0.0000
 XYZ=   10.7694  -12.6123  -16.4789 Q=    0.5125 A=    0.0000 R=    0.0000 C=    0.0000
 XYZ=    7.7593  -16.5050  -13.2460 Q=   -1.0112 A=    0.0000 R=    0.0000 C=    0.0000
 XYZ=    7.3079  -16.2111  -12.4547 Q=    0.4926 A=    0.0000 R=    0.0000 C=    0.0000
 XYZ=    8.5373  -15.9498  -13.2987 Q=    0.4973 A=    0.0000 R=    0.0000 C=    0.0000
 XYZ=   13.4576  -11.7733   -9.7740 Q=   -0.9993 A=    0.0000 R=    0.0000 C=    0.0000
 XYZ=   13.9089  -10.9962  -10.1037 Q=    0.5128 A=    0.0000 R=    0.0000 C=    0.0000
 XYZ=   14.1508  -12.4236   -9.6612 Q=    0.5076 A=    0.0000 R=    0.0000 C=    0.0000
 XYZ=    5.5914  -15.5335   -8.7002 Q=   -1.0162 A=    0.0000 R=    0.0000 C=    0.0000
 XYZ=    6.3093  -16.0707   -8.3652 Q=    0.4831 A=    0.0000 R=    0.0000 C=    0.0000
 XYZ=    5.4763  -15.8239   -9.6050 Q=    0.5237 A=    0.0000 R=    0.0000 C=    0.0000
 XYZ=    5.3398  -11.2122  -15.4745 Q=   -0.9760 A=    0.0000 R=    0.0000 C=    0.0000
 XYZ=    5.8801  -10.4587  -15.7120 Q=    0.4863 A=    0.0000 R=    0.0000 C=    0.0000
 XYZ=    5.4896  -11.8457  -16.1763 Q=    0.4965 A=    0.0000 R=    0.0000 C=    0.0000
 XYZ=   12.9960  -14.7139  -11.2100 Q=   -0.9778 A=    0.0000 R=    0.0000 C=    0.0000
 XYZ=   12.2864  -15.1619  -10.7497 Q=    0.5059 A=    0.0000 R=    0.0000 C=    0.0000
 XYZ=   13.6357  -14.5124  -10.5270 Q=    0.4638 A=    0.0000 R=    0.0000 C=    0.0000
 XYZ=    8.9611  -17.0167   -9.2755 Q=   -0.9921 A=    0.0000 R=    0.0000 C=    0.0000
 XYZ=    8.6736  -17.2191   -8.3852 Q=    0.5092 A=    0.0000 R=    0.0000 C=    0.0000
 XYZ=    8.3026  -17.4234   -9.8386 Q=    0.5103 A=    0.0000 R=    0.0000 C=    0.0000
 XYZ=   12.8900   -9.6906  -13.7511 Q=   -0.9984 A=    0.0000 R=    0.0000 C=    0.0000
 XYZ=   13.4884   -9.8459  -13.0204 Q=    0.4670 A=    0.0000 R=    0.0000 C=    0.0000
 XYZ=   12.0171   -9.7427  -13.3618 Q=    0.5160 A=    0.0000 R=    0.0000 C=    0.0000
 XYZ=    2.9547  -12.7024   -9.8757 Q=   -0.9915 A=    0.0000 R=    0.0000 C=    0.0000
 XYZ=    3.0641  -13.5048   -9.3654 Q=    0.5019 A=    0.0000 R=    0.0000 C=    0.0000
 XYZ=    2.7384  -12.0329   -9.2268 Q=    0.5105 A=    0.0000 R=    0.0000 C=    0.0000
 XYZ=    4.2108  -13.3306   -7.5546 Q=   -1.0293 A=    0.0000 R=    0.0000 C=    0.0000
 XYZ=    4.9638  -12.7453   -7.4735 Q=    0.4979 A=    0.0000 R=    0.0000 C=    0.0000
 XYZ=    4.5835  -14.1618   -7.8486 Q=    0.5197 A=    0.0000 R=    0.0000 C=    0.0000
 XYZ=    8.5389   -6.2611  -12.9484 Q=   -1.0019 A=    0.0000 R=    0.0000 C=    0.0000
 XYZ=    8.8800   -6.8491  -12.2745 Q=    0.5098 A=    0.0000 R=    0.0000 C=    0.0000
 XYZ=    9.2767   -6.1230  -13.5423 Q=    0.4773 A=    0.0000 R=    0.0000 C=    0.0000
 XYZ=   11.4715  -15.3553   -7.5180 Q=   -1.0197 A=    0.0000 R=    0.0000 C=    0.0000
 XYZ=   10.8644  -15.3558   -8.2581 Q=    0.4753 A=    0.0000 R=    0.0000 C=    0.0000
 XYZ=   11.9075  -14.5045   -7.5658 Q=    0.5146 A=    0.0000 R=    0.0000 C=    0.0000
 XYZ=   12.8138  -13.0185   -7.3663 Q=   -0.9959 A=    0.0000 R=    0.0000 C=    0.0000
 XYZ=   12.4819  -12.4171   -6.6996 Q=    0.4994 A=    0.0000 R=    0.0000 C=    0.0000
 XYZ=   12.6552  -12.5682   -8.1960 Q=    0.5110 A=    0.0000 R=    0.0000 C=    0.0000
 XYZ=   11.3245  -17.0116  -10.7628 Q=   -1.0019 A=    0.0000 R=    0.0000 C=    0.0000
 XYZ=   11.7165  -17.8633  -10.5702 Q=    0.4876 A=    0.0000 R=    0.0000 C=    0.0000
 XYZ=   10.4428  -17.0644  -10.3939 Q=    0.5095 A=    0.0000 R=    0.0000 C=    0.0000
 Pt Chg Charge=              0.0151 electrons
 Pt Chg Dipole moment (Debye):
    X=             13.8311    Y=             -4.2530    Z=             19.3665  Tot=             24.1754
 Pt Chg Quadrupole moment (Debye-Ang):
   XX=            218.9035   YY=            108.2580   ZZ=           -354.8814
   XY=           -167.9977   XZ=             19.2877   YZ=           -180.2697
 Pt Chg Traceless Quadrupole moment (Debye-Ang):
   XX=            228.1435   YY=            117.4980   ZZ=           -345.6415
   XY=           -167.9977   XZ=             19.2877   YZ=           -180.2697
 Pt Chg Octapole moment (Debye-Ang**2):
  XXX=           3018.0679  YYY=          -2487.7742  ZZZ=           4588.7764  XYY=           2180.2032
  XXY=          -2406.6354  XXZ=           -889.6416  XZZ=          -1411.2325  YZZ=           3608.4452
  YYZ=           1640.8231  XYZ=             55.1304
 Pt Chg Hexadecapole moment (Debye-Ang**3):
 XXXX=          42224.0974 YYYY=          54845.6867 ZZZZ=         -44746.4172 XXXY=         -31878.6446
 XXXZ=         -19019.5741 YYYX=         -31994.6427 YYYZ=         -11756.9286 ZZZX=          21459.0393
 ZZZY=         -47849.7959 XXYY=          27470.6592 XXZZ=          -1427.0804 YYZZ=         -39605.1235
 XXYZ=          12205.6117 YYXZ=          -3514.1322 ZZXY=          11458.1312
 Leave Link  101 at Fri May 15 22:35:52 2020, MaxMem=   134217728 cpu:               0.7 elap:               0.2
 (Enter /home/soft/g16/l202.exe)
                          Input orientation:                          
 ---------------------------------------------------------------------
 Center     Atomic      Atomic             Coordinates (Angstroms)
 Number     Number       Type             X           Y           Z
 ---------------------------------------------------------------------
      1          8           0        7.250284   -9.859627  -13.103456
      2          8           0        6.966193   -9.247795  -10.274305
      3          8           0        4.641258   -8.138278  -12.671145
      4          8           0        4.906964   -7.910014   -9.130039
      5          1           0        7.120660  -10.221473  -13.980096
      6          1           0        7.341484  -10.626744  -12.538261
      7          1           0        6.975152   -9.845016  -11.022289
      8          1           0        7.684375   -8.638472  -10.445098
      9          1           0        4.597809   -7.272042  -12.266198
     10          1           0        5.576498   -8.338407  -12.709967
     11          1           0        4.063520   -8.026505   -9.567378
     12          1           0        5.422730   -8.670974   -9.396791
 ---------------------------------------------------------------------
                    Distance matrix (angstroms):
                    1          2          3          4          5
     1  O    0.000000
     2  O    2.908460   0.000000
     3  O    3.155464   3.518692   0.000000
     4  O    5.008012   2.709138   3.558390   0.000000
     5  H    0.957200   3.834683   3.492920   5.810882   0.000000
     6  H    0.957200   2.677282   3.674417   4.992343   1.513901
     7  H    2.099325   0.957201   3.328474   3.406207   2.985216
     8  H    2.957452   0.957199   3.803425   3.158171   3.914062
     9  H    3.798976   3.671577   0.957201   3.215288   4.242802
    10  H    2.295758   2.947997   0.957200   3.667108   2.746562
    11  H    5.100946   3.227508   3.159057   0.957201   5.799661
    12  H    4.300258   1.866824   3.408204   0.957200   5.127738
                    6          7          8          9         10
     6  H    0.000000
     7  H    1.744554   0.000000
     8  H    2.907255   1.513901   0.000000
     9  H    4.342326   3.717427   3.835417   0.000000
    10  H    2.895021   2.659767   3.108507   1.513901   0.000000
    11  H    5.131514   3.728451   3.775644   2.852772   3.501750
    12  H    4.168391   2.535869   2.492999   3.297120   3.333374
                   11         12
    11  H    0.000000
    12  H    1.513900   0.000000
 Symmetry turned off by external request.
 Stoichiometry    H8O4
 Framework group  C1[X(H8O4)]
 Deg. of freedom    30
 Full point group                 C1      NOp   1
 Rotational constants (GHZ):           4.3590441           2.1751441           1.4736597
 Leave Link  202 at Fri May 15 22:35:52 2020, MaxMem=   134217728 cpu:               0.1 elap:               0.0
 (Enter /home/soft/g16/l301.exe)
 Standard basis: 6-31G(d,p) (5D, 7F)
 Ernie: Thresh=  0.10000D-02 Tol=  0.10000D-05 Strict=F.
    96 basis functions,   168 primitive gaussians,   100 cartesian basis functions
    20 alpha electrons       20 beta electrons
       nuclear repulsion energy       132.4529499179 Hartrees.
 IExCor=    0 DFT=F Ex=HF Corr=None ExCW=0 ScaHFX=  1.000000
 ScaDFX=  1.000000  1.000000  1.000000  1.000000 ScalE2=  1.000000  1.000000
 IRadAn=      5 IRanWt=     -1 IRanGd=            0 ICorTp=0 IEmpDi=  4
 NAtoms=   12 NActive=   12 NUniq=   12 SFac= 1.00D+00 NAtFMM=   60 NAOKFM=F Big=F
 Integral buffers will be    131072 words long.
 Raffenetti 1 integral format.
 Two-electron integral symmetry is turned off.
 Background charge distribution read from rwf.
 PtFMM for NChg=        96 BoxLen=    40.00 Levels= 1 LMax=20 SMax=    22.2 ICnFMM=     1:
 Self energy of the charges =       -13.6062498887 a.u.
 MM   energy of the charges =         0.0000000000 a.u.
 Nuclei-charges interaction =        -1.8400568175 a.u.
 Nuclear repulsion after external point charges =      117.0066432118 Hartrees.
 Leave Link  301 at Fri May 15 22:35:52 2020, MaxMem=   134217728 cpu:               0.3 elap:               0.1
 (Enter /home/soft/g16/l302.exe)
 NPDir=0 NMtPBC=     1 NCelOv=     1 NCel=       1 NClECP=     1 NCelD=      1
         NCelK=      1 NCelE2=     1 NClLst=     1 CellRange=     0.0.
 One-electron integrals computed using PRISM.
 NBasis=    96 RedAO= T EigKep=  2.79D-02  NBF=    96
 NBsUse=    96 1.00D-06 EigRej= -1.00D+00 NBFU=    96
 Leave Link  302 at Fri May 15 22:35:52 2020, MaxMem=   134217728 cpu:               0.5 elap:               0.2
 (Enter /home/soft/g16/l303.exe)
 DipDrv:  MaxL=1.
 Leave Link  303 at Fri May 15 22:35:52 2020, MaxMem=   134217728 cpu:               0.1 elap:               0.1
 (Enter /home/soft/g16/l401.exe)
 ExpMin= 1.61D-01 ExpMax= 5.48D+03 ExpMxC= 8.25D+02 IAcc=3 IRadAn=         5 AccDes= 0.00D+00
 Harris functional with IExCor=  205 and IRadAn=       5 diagonalized for initial guess.
 HarFok:  IExCor=  205 AccDes= 0.00D+00 IRadAn=         5 IDoV= 1 UseB2=F ITyADJ=14
 ICtDFT=  3500011 ScaDFX=  1.000000  1.000000  1.000000  1.000000
 FoFCou: FMM=F IPFlag=           0 FMFlag=      100000 FMFlg1=           0
         NFxFlg=           0 DoJE=T BraDBF=F KetDBF=T FulRan=T
         wScrn=  0.000000 ICntrl=       500 IOpCl=  0 I1Cent=   200000004 NGrid=           0
         NMat0=    1 NMatS0=      1 NMatT0=    0 NMatD0=    1 NMtDS0=    0 NMtDT0=    0
 Symmetry not used in FoFCou.
 Harris En= -318.125496631259    
 JPrj=0 DoOrth=F DoCkMO=F.
 Leave Link  401 at Fri May 15 22:35:52 2020, MaxMem=   134217728 cpu:               1.9 elap:               0.5
 (Enter /home/soft/g16/l502.exe)
 Keep R1 ints in memory in canonical form, NReq=11713041.
 FoFCou: FMM=F IPFlag=           0 FMFlag=           0 FMFlg1=           0
         NFxFlg=           0 DoJE=F BraDBF=F KetDBF=F FulRan=T
         wScrn=  0.000000 ICntrl=       600 IOpCl=  0 I1Cent=           0 NGrid=           0
         NMat0=    1 NMatS0=   4656 NMatT0=    0 NMatD0=    1 NMtDS0=    0 NMtDT0=    0
 Symmetry not used in FoFCou.
 Two-electron integral symmetry not used.
 Closed shell SCF:
 Using DIIS extrapolation, IDIIS=  1040.
 NGot=   134217728 LenX=   123354636 LenY=   123344195
 Requested convergence on RMS density matrix=1.00D-08 within 128 cycles.
 Requested convergence on MAX density matrix=1.00D-06.
 Requested convergence on             energy=1.00D-06.
 No special actions if energy rises.

 Cycle   1  Pass 1  IDiag  1:
 E= -317.455530788367    
 DIIS: error= 4.35D-02 at cycle   1 NSaved=   1.
 NSaved= 1 IEnMin= 1 EnMin= -317.455530788367     IErMin= 1 ErrMin= 4.35D-02
 ErrMax= 4.35D-02  0.00D+00 EMaxC= 1.00D-01 BMatC= 4.62D-01 BMatP= 4.62D-01
 IDIUse=3 WtCom= 5.65D-01 WtEn= 4.35D-01
 Coeff-Com:  0.100D+01
 Coeff-En:   0.100D+01
 Coeff:      0.100D+01
 Gap=     0.637 Goal=   None    Shift=    0.000
 GapD=    0.637 DampG=2.000 DampE=0.500 DampFc=1.0000 IDamp=-1.
 RMSDP=5.77D-03 MaxDP=1.21D-01              OVMax= 1.15D-01

 Cycle   2  Pass 1  IDiag  1:
 E= -317.668768325492     Delta-E=       -0.213237537125 Rises=F Damp=F
 DIIS: error= 2.56D-02 at cycle   2 NSaved=   2.
 NSaved= 2 IEnMin= 2 EnMin= -317.668768325492     IErMin= 2 ErrMin= 2.56D-02
 ErrMax= 2.56D-02  0.00D+00 EMaxC= 1.00D-01 BMatC= 1.37D-01 BMatP= 4.62D-01
 IDIUse=3 WtCom= 7.44D-01 WtEn= 2.56D-01
 Coeff-Com:  0.340D+00 0.660D+00
 Coeff-En:   0.702D-01 0.930D+00
 Coeff:      0.271D+00 0.729D+00
 Gap=     0.669 Goal=   None    Shift=    0.000
 RMSDP=2.58D-03 MaxDP=4.95D-02 DE=-2.13D-01 OVMax= 4.44D-02

 Cycle   3  Pass 1  IDiag  1:
 E= -317.760408423854     Delta-E=       -0.091640098361 Rises=F Damp=F
 DIIS: error= 4.15D-03 at cycle   3 NSaved=   3.
 NSaved= 3 IEnMin= 3 EnMin= -317.760408423854     IErMin= 3 ErrMin= 4.15D-03
 ErrMax= 4.15D-03  0.00D+00 EMaxC= 1.00D-01 BMatC= 3.06D-03 BMatP= 1.37D-01
 IDIUse=3 WtCom= 9.58D-01 WtEn= 4.15D-02
 Coeff-Com: -0.322D-01 0.835D-01 0.949D+00
 Coeff-En:   0.000D+00 0.000D+00 0.100D+01
 Coeff:     -0.309D-01 0.801D-01 0.951D+00
 Gap=     0.654 Goal=   None    Shift=    0.000
 RMSDP=3.46D-04 MaxDP=7.29D-03 DE=-9.16D-02 OVMax= 8.12D-03

 Cycle   4  Pass 1  IDiag  1:
 E= -317.762825928572     Delta-E=       -0.002417504718 Rises=F Damp=F
 DIIS: error= 4.42D-04 at cycle   4 NSaved=   4.
 NSaved= 4 IEnMin= 4 EnMin= -317.762825928572     IErMin= 4 ErrMin= 4.42D-04
 ErrMax= 4.42D-04  0.00D+00 EMaxC= 1.00D-01 BMatC= 2.72D-05 BMatP= 3.06D-03
 IDIUse=3 WtCom= 9.96D-01 WtEn= 4.42D-03
 Coeff-Com:  0.662D-02-0.394D-01-0.300D+00 0.133D+01
 Coeff-En:   0.000D+00 0.000D+00 0.000D+00 0.100D+01
 Coeff:      0.659D-02-0.392D-01-0.299D+00 0.133D+01
 Gap=     0.656 Goal=   None    Shift=    0.000
 RMSDP=8.85D-05 MaxDP=1.27D-03 DE=-2.42D-03 OVMax= 2.31D-03

 Cycle   5  Pass 1  IDiag  1:
 E= -317.762878841542     Delta-E=       -0.000052912971 Rises=F Damp=F
 DIIS: error= 1.20D-04 at cycle   5 NSaved=   5.
 NSaved= 5 IEnMin= 5 EnMin= -317.762878841542     IErMin= 5 ErrMin= 1.20D-04
 ErrMax= 1.20D-04  0.00D+00 EMaxC= 1.00D-01 BMatC= 1.36D-06 BMatP= 2.72D-05
 IDIUse=3 WtCom= 9.99D-01 WtEn= 1.20D-03
 Coeff-Com:  0.203D-02-0.850D-02-0.716D-01 0.161D+00 0.917D+00
 Coeff-En:   0.000D+00 0.000D+00 0.000D+00 0.000D+00 0.100D+01
 Coeff:      0.202D-02-0.849D-02-0.715D-01 0.161D+00 0.917D+00
 Gap=     0.656 Goal=   None    Shift=    0.000
 RMSDP=1.61D-05 MaxDP=2.55D-04 DE=-5.29D-05 OVMax= 4.06D-04

 Cycle   6  Pass 1  IDiag  1:
 E= -317.762880850197     Delta-E=       -0.000002008655 Rises=F Damp=F
 DIIS: error= 4.81D-05 at cycle   6 NSaved=   6.
 NSaved= 6 IEnMin= 6 EnMin= -317.762880850197     IErMin= 6 ErrMin= 4.81D-05
 ErrMax= 4.81D-05  0.00D+00 EMaxC= 1.00D-01 BMatC= 1.68D-07 BMatP= 1.36D-06
 IDIUse=1 WtCom= 1.00D+00 WtEn= 0.00D+00
 Coeff-Com: -0.347D-03 0.269D-02 0.206D-01-0.122D+00 0.148D+00 0.951D+00
 Coeff:     -0.347D-03 0.269D-02 0.206D-01-0.122D+00 0.148D+00 0.951D+00
 Gap=     0.656 Goal=   None    Shift=    0.000
 RMSDP=6.12D-06 MaxDP=1.24D-04 DE=-2.01D-06 OVMax= 1.41D-04

 Cycle   7  Pass 1  IDiag  1:
 E= -317.762881093358     Delta-E=       -0.000000243161 Rises=F Damp=F
 DIIS: error= 7.23D-06 at cycle   7 NSaved=   7.
 NSaved= 7 IEnMin= 7 EnMin= -317.762881093358     IErMin= 7 ErrMin= 7.23D-06
 ErrMax= 7.23D-06  0.00D+00 EMaxC= 1.00D-01 BMatC= 5.20D-09 BMatP= 1.68D-07
 IDIUse=1 WtCom= 1.00D+00 WtEn= 0.00D+00
 Coeff-Com: -0.103D-03 0.389D-03 0.349D-02-0.535D-02-0.613D-01-0.374D-01
 Coeff-Com:  0.110D+01
 Coeff:     -0.103D-03 0.389D-03 0.349D-02-0.535D-02-0.613D-01-0.374D-01
 Coeff:      0.110D+01
 Gap=     0.656 Goal=   None    Shift=    0.000
 RMSDP=1.45D-06 MaxDP=2.19D-05 DE=-2.43D-07 OVMax= 3.51D-05

 Cycle   8  Pass 1  IDiag  1:
 E= -317.762881104688     Delta-E=       -0.000000011330 Rises=F Damp=F
 DIIS: error= 1.30D-06 at cycle   8 NSaved=   8.
 NSaved= 8 IEnMin= 8 EnMin= -317.762881104688     IErMin= 8 ErrMin= 1.30D-06
 ErrMax= 1.30D-06  0.00D+00 EMaxC= 1.00D-01 BMatC= 2.99D-10 BMatP= 5.20D-09
 IDIUse=1 WtCom= 1.00D+00 WtEn= 0.00D+00
 Coeff-Com:  0.450D-04-0.239D-03-0.201D-02 0.727D-02 0.129D-01-0.299D-01
 Coeff-Com: -0.327D+00 0.134D+01
 Coeff:      0.450D-04-0.239D-03-0.201D-02 0.727D-02 0.129D-01-0.299D-01
 Coeff:     -0.327D+00 0.134D+01
 Gap=     0.656 Goal=   None    Shift=    0.000
 RMSDP=3.42D-07 MaxDP=5.68D-06 DE=-1.13D-08 OVMax= 8.21D-06

 Cycle   9  Pass 1  IDiag  1:
 E= -317.762881105430     Delta-E=       -0.000000000742 Rises=F Damp=F
 DIIS: error= 2.87D-07 at cycle   9 NSaved=   9.
 NSaved= 9 IEnMin= 9 EnMin= -317.762881105430     IErMin= 9 ErrMin= 2.87D-07
 ErrMax= 2.87D-07  0.00D+00 EMaxC= 1.00D-01 BMatC= 1.32D-11 BMatP= 2.99D-10
 IDIUse=1 WtCom= 1.00D+00 WtEn= 0.00D+00
 Coeff-Com:  0.351D-05-0.122D-04-0.105D-03 0.430D-06 0.285D-02 0.300D-02
 Coeff-Com: -0.450D-01-0.280D-01 0.107D+01
 Coeff:      0.351D-05-0.122D-04-0.105D-03 0.430D-06 0.285D-02 0.300D-02
 Coeff:     -0.450D-01-0.280D-01 0.107D+01
 Gap=     0.656 Goal=   None    Shift=    0.000
 RMSDP=6.45D-08 MaxDP=1.19D-06 DE=-7.42D-10 OVMax= 1.96D-06

 Cycle  10  Pass 1  IDiag  1:
 E= -317.762881105461     Delta-E=       -0.000000000031 Rises=F Damp=F
 DIIS: error= 1.10D-07 at cycle  10 NSaved=  10.
 NSaved=10 IEnMin=10 EnMin= -317.762881105461     IErMin=10 ErrMin= 1.10D-07
 ErrMax= 1.10D-07  0.00D+00 EMaxC= 1.00D-01 BMatC= 2.01D-12 BMatP= 1.32D-11
 IDIUse=1 WtCom= 1.00D+00 WtEn= 0.00D+00
 Coeff-Com: -0.292D-05 0.171D-04 0.144D-03-0.621D-03-0.405D-03 0.318D-02
 Coeff-Com:  0.168D-01-0.115D+00 0.223D+00 0.874D+00
 Coeff:     -0.292D-05 0.171D-04 0.144D-03-0.621D-03-0.405D-03 0.318D-02
 Coeff:      0.168D-01-0.115D+00 0.223D+00 0.874D+00
 Gap=     0.656 Goal=   None    Shift=    0.000
 RMSDP=1.91D-08 MaxDP=3.94D-07 DE=-3.09D-11 OVMax= 6.64D-07

 Cycle  11  Pass 1  IDiag  1:
 E= -317.762881105464     Delta-E=       -0.000000000002 Rises=F Damp=F
 DIIS: error= 3.21D-08 at cycle  11 NSaved=  11.
 NSaved=11 IEnMin=11 EnMin= -317.762881105464     IErMin=11 ErrMin= 3.21D-08
 ErrMax= 3.21D-08  0.00D+00 EMaxC= 1.00D-01 BMatC= 1.52D-13 BMatP= 2.01D-12
 IDIUse=1 WtCom= 1.00D+00 WtEn= 0.00D+00
 Coeff-Com: -0.468D-06 0.184D-05 0.159D-04-0.144D-04-0.353D-03-0.333D-03
 Coeff-Com:  0.555D-02 0.217D-02-0.125D+00-0.733D-02 0.113D+01
 Coeff:     -0.468D-06 0.184D-05 0.159D-04-0.144D-04-0.353D-03-0.333D-03
 Coeff:      0.555D-02 0.217D-02-0.125D+00-0.733D-02 0.113D+01
 Gap=     0.656 Goal=   None    Shift=    0.000
 RMSDP=8.97D-09 MaxDP=2.20D-07 DE=-2.33D-12 OVMax= 3.68D-07

 SCF Done:  E(RHF) =  -317.762881105     A.U. after   11 cycles
            NFock= 11  Conv=0.90D-08     -V/T= 2.0465
 KE= 3.036467647091D+02 PE=-9.855609484369D+02 EE= 2.471446594106D+02
 Leave Link  502 at Fri May 15 22:35:53 2020, MaxMem=   134217728 cpu:               1.5 elap:               0.5
 (Enter /home/soft/g16/l601.exe)
 Copying SCF densities to generalized density rwf, IOpCl= 0 IROHF=0.

 **********************************************************************

            Population analysis using the SCF density.

 **********************************************************************

 Alpha  occ. eigenvalues --  -20.54333 -20.53042 -20.49198 -20.48140  -1.33106
 Alpha  occ. eigenvalues --   -1.31261  -1.27749  -1.26441  -0.70198  -0.66747
 Alpha  occ. eigenvalues --   -0.65426  -0.63052  -0.56267  -0.54369  -0.51108
 Alpha  occ. eigenvalues --   -0.49521  -0.48430  -0.47314  -0.43472  -0.42069
 Alpha virt. eigenvalues --    0.23576   0.28426   0.30541   0.33774   0.36885
 Alpha virt. eigenvalues --    0.42862   0.43878   0.48207   0.99617   1.05320
 Alpha virt. eigenvalues --    1.07523   1.09149   1.10761   1.12357   1.13419
 Alpha virt. eigenvalues --    1.14863   1.17553   1.20737   1.23155   1.25549
 Alpha virt. eigenvalues --    1.26853   1.31780   1.32392   1.33010   1.35491
 Alpha virt. eigenvalues --    1.40906   1.43106   1.45009   1.62246   1.66790
 Alpha virt. eigenvalues --    1.75082   1.79322   1.82419   1.84284   1.85497
 Alpha virt. eigenvalues --    1.87285   1.88463   1.89816   1.91589   1.95280
 Alpha virt. eigenvalues --    1.95798   2.00199   2.03236   2.06654   2.57873
 Alpha virt. eigenvalues --    2.58720   2.62883   2.65422   2.65818   2.67344
 Alpha virt. eigenvalues --    2.69476   2.71630   2.81222   2.87690   2.89612
 Alpha virt. eigenvalues --    2.90222   3.00336   3.01154   3.02755   3.03712
 Alpha virt. eigenvalues --    3.04474   3.05878   3.07404   3.13466   3.41483
 Alpha virt. eigenvalues --    3.43410   3.45847   3.46394   3.80294   3.81044
 Alpha virt. eigenvalues --    3.83551   3.85582   3.97125   4.00760   4.03380
 Alpha virt. eigenvalues --    4.05892
          Condensed to atoms (all electrons):
               1          2          3          4          5          6
     1  O    8.127894  -0.004798  -0.002769  -0.000000   0.311628   0.304742
     2  O   -0.004798   8.132660  -0.000409  -0.015726   0.000226   0.000479
     3  O   -0.002769  -0.000409   8.092818  -0.000510   0.000196   0.000115
     4  O   -0.000000  -0.015726  -0.000510   8.140714   0.000000   0.000000
     5  H    0.311628   0.000226   0.000196   0.000000   0.315582  -0.016124
     6  H    0.304742   0.000479   0.000115   0.000000  -0.016124   0.318775
     7  H    0.009459   0.311523   0.000527   0.000495  -0.000349  -0.000264
     8  H    0.001058   0.316608   0.000048   0.001087  -0.000022   0.000116
     9  H    0.000075   0.000031   0.307606   0.001690  -0.000004  -0.000001
    10  H    0.012082   0.002447   0.308458   0.000023  -0.000623  -0.000757
    11  H    0.000000   0.000942   0.002022   0.312758  -0.000000  -0.000001
    12  H   -0.000007   0.015875   0.000507   0.307548  -0.000000   0.000002
               7          8          9         10         11         12
     1  O    0.009459   0.001058   0.000075   0.012082   0.000000  -0.000007
     2  O    0.311523   0.316608   0.000031   0.002447   0.000942   0.015875
     3  O    0.000527   0.000048   0.307606   0.308458   0.002022   0.000507
     4  O    0.000495   0.001087   0.001690   0.000023   0.312758   0.307548
     5  H   -0.000349  -0.000022  -0.000004  -0.000623  -0.000000  -0.000000
     6  H   -0.000264   0.000116  -0.000001  -0.000757  -0.000001   0.000002
     7  H    0.298794  -0.023605   0.000002  -0.000011  -0.000016  -0.000753
     8  H   -0.023605   0.333713   0.000021   0.000044  -0.000030  -0.001529
     9  H    0.000002   0.000021   0.387333  -0.025226  -0.000052  -0.000155
    10  H   -0.000011   0.000044  -0.025226   0.338857  -0.000041   0.000020
    11  H   -0.000016  -0.000030  -0.000052  -0.000041   0.371073  -0.025230
    12  H   -0.000753  -0.001529  -0.000155   0.000020  -0.025230   0.318897
 Mulliken charges:
               1
     1  O   -0.759363
     2  O   -0.759857
     3  O   -0.708608
     4  O   -0.748079
     5  H    0.389490
     6  H    0.392917
     7  H    0.404199
     8  H    0.372493
     9  H    0.328682
    10  H    0.364727
    11  H    0.338574
    12  H    0.384825
 Sum of Mulliken charges =  -0.00000
 Mulliken charges with hydrogens summed into heavy atoms:
               1
     1  O    0.023044
     2  O    0.016835
     3  O   -0.015199
     4  O   -0.024679
 Electronic spatial extent (au):  <R**2>=          35174.2097
 Charge=             -0.0000 electrons
 Dipole moment (field-independent basis, Debye):
    X=              2.9730    Y=             -3.2835    Z=             -3.8370  Tot=              5.8603
 Quadrupole moment (field-independent basis, Debye-Ang):
   XX=             12.1964   YY=             40.2883   ZZ=             53.8329
   XY=            -48.6196   XZ=            -60.1216   YZ=             72.8555
 Traceless Quadrupole moment (field-independent basis, Debye-Ang):
   XX=            -23.2428   YY=              4.8491   ZZ=             18.3937
   XY=            -48.6196   XZ=            -60.1216   YZ=             72.8555
 Octapole moment (field-independent basis, Debye-Ang**2):
  XXX=            -97.5721  YYY=           -313.6066  ZZZ=           -397.6237  XYY=            528.5071
  XXY=           -257.2398  XXZ=           -306.8046  XZZ=            799.3349  YZZ=           -961.8667
  YYZ=           -806.4945  XYZ=            805.0125
 Hexadecapole moment (field-independent basis, Debye-Ang**3):
 XXXX=          -2626.1872 YYYY=           1176.8753 ZZZZ=          -1567.9056 XXXY=            -59.3008
 XXXZ=            121.8121 YYYX=          -4712.9131 YYYZ=           7089.2580 ZZZX=          -8586.5646
 ZZZY=           9782.6976 XXYY=           3005.3806 XXZZ=           4276.6929 YYZZ=          10875.5709
 XXYZ=           4582.3017 YYXZ=          -8527.3405 ZZXY=         -10520.6890
 N-N= 1.170066432118D+02 E-N=-9.855609483155D+02  KE= 3.036467647091D+02
 No NMR shielding tensors so no spin-rotation constants.
 Leave Link  601 at Fri May 15 22:35:53 2020, MaxMem=   134217728 cpu:               0.5 elap:               0.1
 (Enter /home/soft/g16/l607.exe)
 ******************************Gaussian NBO Version 3.1******************************
             N A T U R A L   A T O M I C   O R B I T A L   A N D
          N A T U R A L   B O N D   O R B I T A L   A N A L Y S I S
 ******************************Gaussian NBO Version 3.1******************************
       /RESON  / : Allow strongly delocalized NBO set

 Analyzing the SCF density

 Job title: Atom number=12                                                  

 Storage needed:     28188 in NPA ( 134216936 available)
 GSVD:  LWork=        4224 too small for GESVD, short by        5328 words or        5328 for optimal perf.


 NATURAL POPULATIONS:  Natural atomic orbital occupancies 
                                                          
   NAO  Atom  No  lang   Type(AO)    Occupancy      Energy
 ----------------------------------------------------------
     1    O    1  S      Cor( 1S)     1.99986     -20.36697
     2    O    1  S      Val( 2S)     1.75753      -1.13658
     3    O    1  S      Ryd( 3S)     0.00104       1.72767
     4    O    1  px     Val( 2p)     1.98257      -0.46671
     5    O    1  px     Ryd( 3p)     0.00073       1.22870
     6    O    1  py     Val( 2p)     1.74270      -0.39355
     7    O    1  py     Ryd( 3p)     0.00034       1.31698
     8    O    1  pz     Val( 2p)     1.54666      -0.32316
     9    O    1  pz     Ryd( 3p)     0.00156       1.40153
    10    O    1  dxy    Ryd( 3d)     0.00147       2.28717
    11    O    1  dxz    Ryd( 3d)     0.00012       2.34766
    12    O    1  dyz    Ryd( 3d)     0.00170       3.07961
    13    O    1  dx2y2  Ryd( 3d)     0.00186       2.51807
    14    O    1  dz2    Ryd( 3d)     0.00053       2.74888

    15    O    2  S      Cor( 1S)     1.99985     -20.37593
    16    O    2  S      Val( 2S)     1.74800      -1.14774
    17    O    2  S      Ryd( 3S)     0.00067       1.83213
    18    O    2  px     Val( 2p)     1.78765      -0.41837
    19    O    2  px     Ryd( 3p)     0.00112       1.35256
    20    O    2  py     Val( 2p)     1.69138      -0.38251
    21    O    2  py     Ryd( 3p)     0.00173       1.32502
    22    O    2  pz     Val( 2p)     1.79686      -0.42966
    23    O    2  pz     Ryd( 3p)     0.00068       1.27589
    24    O    2  dxy    Ryd( 3d)     0.00097       2.76374
    25    O    2  dxz    Ryd( 3d)     0.00116       2.38018
    26    O    2  dyz    Ryd( 3d)     0.00105       2.80601
    27    O    2  dx2y2  Ryd( 3d)     0.00054       2.40756
    28    O    2  dz2    Ryd( 3d)     0.00125       2.55932

    29    O    3  S      Cor( 1S)     1.99985     -20.31554
    30    O    3  S      Val( 2S)     1.75353      -1.07824
    31    O    3  S      Ryd( 3S)     0.00114       1.85075
    32    O    3  px     Val( 2p)     1.65402      -0.31179
    33    O    3  px     Ryd( 3p)     0.00100       1.33148
    34    O    3  py     Val( 2p)     1.64628      -0.30111
    35    O    3  py     Ryd( 3p)     0.00129       1.33437
    36    O    3  pz     Val( 2p)     1.92352      -0.39393
    37    O    3  pz     Ryd( 3p)     0.00085       1.26645
    38    O    3  dxy    Ryd( 3d)     0.00120       2.54723
    39    O    3  dxz    Ryd( 3d)     0.00113       2.36474
    40    O    3  dyz    Ryd( 3d)     0.00116       2.62830
    41    O    3  dx2y2  Ryd( 3d)     0.00183       3.13048
    42    O    3  dz2    Ryd( 3d)     0.00124       2.52836

    43    O    4  S      Cor( 1S)     1.99984     -20.31937
    44    O    4  S      Val( 2S)     1.74818      -1.09651
    45    O    4  S      Ryd( 3S)     0.00103       1.85823
    46    O    4  px     Val( 2p)     1.57139      -0.29093
    47    O    4  px     Ryd( 3p)     0.00191       1.35633
    48    O    4  py     Val( 2p)     1.78542      -0.37332
    49    O    4  py     Ryd( 3p)     0.00068       1.28071
    50    O    4  pz     Val( 2p)     1.90467      -0.40669
    51    O    4  pz     Ryd( 3p)     0.00052       1.24767
    52    O    4  dxy    Ryd( 3d)     0.00103       2.78115
    53    O    4  dxz    Ryd( 3d)     0.00090       2.71535
    54    O    4  dyz    Ryd( 3d)     0.00166       2.46329
    55    O    4  dx2y2  Ryd( 3d)     0.00110       2.73370
    56    O    4  dz2    Ryd( 3d)     0.00130       2.43200

    57    H    5  S      Val( 1S)     0.46914       0.41621
    58    H    5  S      Ryd( 2S)     0.00055       0.77965
    59    H    5  px     Ryd( 2p)     0.00075       2.66012
    60    H    5  py     Ryd( 2p)     0.00075       2.80931
    61    H    5  pz     Ryd( 2p)     0.00143       3.33756

    62    H    6  S      Val( 1S)     0.47436       0.41052
    63    H    6  S      Ryd( 2S)     0.00074       0.85899
    64    H    6  px     Ryd( 2p)     0.00083       2.64698
    65    H    6  py     Ryd( 2p)     0.00142       3.19568
    66    H    6  pz     Ryd( 2p)     0.00084       2.98742

    67    H    7  S      Val( 1S)     0.46742       0.41264
    68    H    7  S      Ryd( 2S)     0.00107       0.89352
    69    H    7  px     Ryd( 2p)     0.00058       2.69673
    70    H    7  py     Ryd( 2p)     0.00088       3.00895
    71    H    7  pz     Ryd( 2p)     0.00131       3.15384

    72    H    8  S      Val( 1S)     0.48020       0.38130
    73    H    8  S      Ryd( 2S)     0.00073       0.74778
    74    H    8  px     Ryd( 2p)     0.00129       3.07527
    75    H    8  py     Ryd( 2p)     0.00108       2.99061
    76    H    8  pz     Ryd( 2p)     0.00069       2.69470

    77    H    9  S      Val( 1S)     0.51941       0.38779
    78    H    9  S      Ryd( 2S)     0.00138       0.82231
    79    H    9  px     Ryd( 2p)     0.00063       2.72576
    80    H    9  py     Ryd( 2p)     0.00148       3.32436
    81    H    9  pz     Ryd( 2p)     0.00113       2.80387

    82    H   10  S      Val( 1S)     0.48954       0.43352
    83    H   10  S      Ryd( 2S)     0.00122       0.90916
    84    H   10  px     Ryd( 2p)     0.00161       3.50046
    85    H   10  py     Ryd( 2p)     0.00071       2.76877
    86    H   10  pz     Ryd( 2p)     0.00084       2.68977

    87    H   11  S      Val( 1S)     0.51134       0.38557
    88    H   11  S      Ryd( 2S)     0.00121       0.80571
    89    H   11  px     Ryd( 2p)     0.00133       3.29397
    90    H   11  py     Ryd( 2p)     0.00071       2.70444
    91    H   11  pz     Ryd( 2p)     0.00109       2.82669

    92    H   12  S      Val( 1S)     0.47706       0.43033
    93    H   12  S      Ryd( 2S)     0.00096       0.88743
    94    H   12  px     Ryd( 2p)     0.00093       2.99635
    95    H   12  py     Ryd( 2p)     0.00124       3.22037
    96    H   12  pz     Ryd( 2p)     0.00090       2.75755


 Summary of Natural Population Analysis:                  
                                                          
                                       Natural Population 
                Natural  -----------------------------------------------
    Atom  No    Charge         Core      Valence    Rydberg      Total
 -----------------------------------------------------------------------
      O    1   -1.03866      1.99986     7.02945    0.00935     9.03866
      O    2   -1.03291      1.99985     7.02389    0.00917     9.03291
      O    3   -0.98803      1.99985     6.97734    0.01083     8.98803
      O    4   -1.01963      1.99984     7.00965    0.01013     9.01963
      H    5    0.52739      0.00000     0.46914    0.00348     0.47261
      H    6    0.52181      0.00000     0.47436    0.00383     0.47819
      H    7    0.52875      0.00000     0.46742    0.00383     0.47125
      H    8    0.51601      0.00000     0.48020    0.00379     0.48399
      H    9    0.47598      0.00000     0.51941    0.00461     0.52402
      H   10    0.50608      0.00000     0.48954    0.00438     0.49392
      H   11    0.48431      0.00000     0.51134    0.00435     0.51569
      H   12    0.51891      0.00000     0.47706    0.00403     0.48109
 =======================================================================
   * Total *   -0.00000      7.99941    31.92881    0.07178    40.00000

                                 Natural Population      
 --------------------------------------------------------
   Core                       7.99941 ( 99.9926% of   8)
   Valence                   31.92881 ( 99.7775% of  32)
   Natural Minimal Basis     39.92822 ( 99.8206% of  40)
   Natural Rydberg Basis      0.07178 (  0.1794% of  40)
 --------------------------------------------------------

    Atom  No          Natural Electron Configuration
 ----------------------------------------------------------------------------
      O    1      [core]2S( 1.76)2p( 5.27)3d( 0.01)
      O    2      [core]2S( 1.75)2p( 5.28)
      O    3      [core]2S( 1.75)2p( 5.22)3d( 0.01)
      O    4      [core]2S( 1.75)2p( 5.26)3d( 0.01)
      H    5            1S( 0.47)
      H    6            1S( 0.47)
      H    7            1S( 0.47)
      H    8            1S( 0.48)
      H    9            1S( 0.52)
      H   10            1S( 0.49)
      H   11            1S( 0.51)
      H   12            1S( 0.48)


 NBO analysis skipped by request.
 Leave Link  607 at Fri May 15 22:35:53 2020, MaxMem=   134217728 cpu:               0.6 elap:               0.2
 (Enter /home/soft/g16/l9999.exe)

 Test job not archived.
 1\1\GINC-MASTER\SP\RHF\6-31G(d,p)\H8O4\LIWEI01\15-May-2020\0\\#p hf/6-
 31g** 5d 7f pop=npa charge nosymm\\Atom number=12\\0,1\O,0,7.250284,-9
 .859627,-13.103456\O,0,6.966193,-9.247795,-10.274305\O,0,4.641258,-8.1
 38278,-12.671145\O,0,4.906964,-7.910014,-9.130039\H,0,7.12066,-10.2214
 73,-13.980096\H,0,7.341484,-10.626744,-12.538261\H,0,6.975152,-9.84501
 6,-11.022289\H,0,7.684375,-8.638472,-10.445098\H,0,4.597809,-7.272042,
 -12.266198\H,0,5.576498,-8.338407,-12.709967\H,0,4.06352,-8.026505,-9.
 567378\H,0,5.42273,-8.670974,-9.396791\\Version=ES64L-G16RevA.03\HF=-3
 17.7628811\RMSD=8.975e-09\Dipole=1.1696517,-1.2918454,-1.5095947\Quadr
 upole=-17.280433,3.6051637,13.6752693,-36.1474753,-44.6989598,54.16628
 84\PG=C01 [X(H8O4)]\\@


 REALITY IS FOR PEOPLE WHO CAN'T FACE SCIENCE FICTION.
 Job cpu time:       0 days  0 hours  0 minutes  6.6 seconds.
 Elapsed time:       0 days  0 hours  0 minutes  2.0 seconds.
 File lengths (MBytes):  RWF=     72 Int=      0 D2E=      0 Chk=      8 Scr=      8
 Normal termination of Gaussian 16 at Fri May 15 22:35:53 2020.
