Atom number=9                                                           
SP        RHF                                                         6-31G(d,p)          
Number of atoms                            I                9
Info1-9                                    I   N=           9
         107         106           0           0           0         111
           1           1           2
Full Title                                 C   N=           2
Atom number=9           
Route                                      C   N=           4
#p hf/6-31g** 5d 7f pop=npa charge nosymm       
Charge                                     I                0
Multiplicity                               I                1
Number of electrons                        I               30
Number of alpha electrons                  I               15
Number of beta electrons                   I               15
Number of basis functions                  I               72
Number of independent functions            I               72
Number of point charges in /Mol/           I                0
Number of translation vectors              I                0
Atomic numbers                             I   N=           9
           8           8           8           1           1           1
           1           1           1
Nuclear charges                            R   N=           9
  8.00000000E+00  8.00000000E+00  8.00000000E+00  1.00000000E+00  1.00000000E+00
  1.00000000E+00  1.00000000E+00  1.00000000E+00  1.00000000E+00
Current cartesian coordinates              R   N=          27
  1.58591958E+01 -2.23232232E+01 -2.11658453E+01  1.31641969E+01 -1.74757998E+01
 -1.94156226E+01  7.63287216E+00 -2.12107811E+01 -2.41968281E+01  1.54490326E+01
 -2.36930366E+01 -2.00580047E+01  1.74840371E+01 -2.17584956E+01 -2.06064713E+01
  1.31811270E+01 -1.86043839E+01 -2.08291075E+01  1.45213642E+01 -1.63243462E+01
 -1.97383746E+01  8.55071592E+00 -2.27666815E+01 -2.41037950E+01  8.37549106E+00
 -2.03288025E+01 -2.55905880E+01
Number of symbols in /Mol/                 I                0
Force Field                                I                0
Atom Types                                 C   N=           9
                                                            
                                                
Int Atom Types                             I   N=           9
           0           0           0           0           0           0
           0           0           0
MM charges                                 R   N=           9
  0.00000000E+00  0.00000000E+00  0.00000000E+00  0.00000000E+00  0.00000000E+00
  0.00000000E+00  0.00000000E+00  0.00000000E+00  0.00000000E+00
Integer atomic weights                     I   N=           9
          16          16          16           1           1           1
           1           1           1
Real atomic weights                        R   N=           9
  1.59949146E+01  1.59949146E+01  1.59949146E+01  1.00782504E+00  1.00782504E+00
  1.00782504E+00  1.00782504E+00  1.00782504E+00  1.00782504E+00
Atom fragment info                         I   N=           9
           0           0           0           0           0           0
           0           0           0
Atom residue num                           I   N=           9
           0           0           0           0           0           0
           0           0           0
Nuclear spins                              I   N=           9
           0           0           0           1           1           1
           1           1           1
Nuclear ZEff                               R   N=           9
 -5.60000000E+00 -5.60000000E+00 -5.60000000E+00 -1.00000000E+00 -1.00000000E+00
 -1.00000000E+00 -1.00000000E+00 -1.00000000E+00 -1.00000000E+00
Nuclear ZNuc                               R   N=           9
  8.00000000E+00  8.00000000E+00  8.00000000E+00  1.00000000E+00  1.00000000E+00
  1.00000000E+00  1.00000000E+00  1.00000000E+00  1.00000000E+00
Nuclear QMom                               R   N=           9
  0.00000000E+00  0.00000000E+00  0.00000000E+00  0.00000000E+00  0.00000000E+00
  0.00000000E+00  0.00000000E+00  0.00000000E+00  0.00000000E+00
Nuclear GFac                               R   N=           9
  0.00000000E+00  0.00000000E+00  0.00000000E+00  2.79284600E+00  2.79284600E+00
  2.79284600E+00  2.79284600E+00  2.79284600E+00  2.79284600E+00
MicOpt                                     I   N=           9
          -1          -1          -1          -1          -1          -1
          -1          -1          -1
Number of residues                         I                0
Number of secondary structures             I                0
Number of contracted shells                I               30
Number of primitive shells                 I               63
Pure/Cartesian d shells                    I                0
Pure/Cartesian f shells                    I                0
Highest angular momentum                   I                2
Largest degree of contraction              I                6
Shell types                                I   N=          30
           0          -1          -1          -2           0          -1
          -1          -2           0          -1          -1          -2
           0           0           1           0           0           1
           0           0           1           0           0           1
           0           0           1           0           0           1
Number of primitives per shell             I   N=          30
           6           3           1           1           6           3
           1           1           6           3           1           1
           3           1           1           3           1           1
           3           1           1           3           1           1
           3           1           1           3           1           1
Shell to atom map                          I   N=          30
           1           1           1           1           2           2
           2           2           3           3           3           3
           4           4           4           5           5           5
           6           6           6           7           7           7
           8           8           8           9           9           9
Primitive exponents                        R   N=          63
  5.48467166E+03  8.25234946E+02  1.88046958E+02  5.29645000E+01  1.68975704E+01
  5.79963534E+00  1.55396162E+01  3.59993359E+00  1.01376175E+00  2.70005823E-01
  8.00000000E-01  5.48467166E+03  8.25234946E+02  1.88046958E+02  5.29645000E+01
  1.68975704E+01  5.79963534E+00  1.55396162E+01  3.59993359E+00  1.01376175E+00
  2.70005823E-01  8.00000000E-01  5.48467166E+03  8.25234946E+02  1.88046958E+02
  5.29645000E+01  1.68975704E+01  5.79963534E+00  1.55396162E+01  3.59993359E+00
  1.01376175E+00  2.70005823E-01  8.00000000E-01  1.87311370E+01  2.82539436E+00
  6.40121692E-01  1.61277759E-01  1.10000000E+00  1.87311370E+01  2.82539436E+00
  6.40121692E-01  1.61277759E-01  1.10000000E+00  1.87311370E+01  2.82539436E+00
  6.40121692E-01  1.61277759E-01  1.10000000E+00  1.87311370E+01  2.82539436E+00
  6.40121692E-01  1.61277759E-01  1.10000000E+00  1.87311370E+01  2.82539436E+00
  6.40121692E-01  1.61277759E-01  1.10000000E+00  1.87311370E+01  2.82539436E+00
  6.40121692E-01  1.61277759E-01  1.10000000E+00
Contraction coefficients                   R   N=          63
  1.83107443E-03  1.39501722E-02  6.84450781E-02  2.32714336E-01  4.70192898E-01
  3.58520853E-01 -1.10777550E-01 -1.48026263E-01  1.13076702E+00  1.00000000E+00
  1.00000000E+00  1.83107443E-03  1.39501722E-02  6.84450781E-02  2.32714336E-01
  4.70192898E-01  3.58520853E-01 -1.10777550E-01 -1.48026263E-01  1.13076702E+00
  1.00000000E+00  1.00000000E+00  1.83107443E-03  1.39501722E-02  6.84450781E-02
  2.32714336E-01  4.70192898E-01  3.58520853E-01 -1.10777550E-01 -1.48026263E-01
  1.13076702E+00  1.00000000E+00  1.00000000E+00  3.34946043E-02  2.34726953E-01
  8.13757326E-01  1.00000000E+00  1.00000000E+00  3.34946043E-02  2.34726953E-01
  8.13757326E-01  1.00000000E+00  1.00000000E+00  3.34946043E-02  2.34726953E-01
  8.13757326E-01  1.00000000E+00  1.00000000E+00  3.34946043E-02  2.34726953E-01
  8.13757326E-01  1.00000000E+00  1.00000000E+00  3.34946043E-02  2.34726953E-01
  8.13757326E-01  1.00000000E+00  1.00000000E+00  3.34946043E-02  2.34726953E-01
  8.13757326E-01  1.00000000E+00  1.00000000E+00
P(S=P) Contraction coefficients            R   N=          63
  0.00000000E+00  0.00000000E+00  0.00000000E+00  0.00000000E+00  0.00000000E+00
  0.00000000E+00  7.08742682E-02  3.39752839E-01  7.27158577E-01  1.00000000E+00
  0.00000000E+00  0.00000000E+00  0.00000000E+00  0.00000000E+00  0.00000000E+00
  0.00000000E+00  0.00000000E+00  7.08742682E-02  3.39752839E-01  7.27158577E-01
  1.00000000E+00  0.00000000E+00  0.00000000E+00  0.00000000E+00  0.00000000E+00
  0.00000000E+00  0.00000000E+00  0.00000000E+00  7.08742682E-02  3.39752839E-01
  7.27158577E-01  1.00000000E+00  0.00000000E+00  0.00000000E+00  0.00000000E+00
  0.00000000E+00  0.00000000E+00  0.00000000E+00  0.00000000E+00  0.00000000E+00
  0.00000000E+00  0.00000000E+00  0.00000000E+00  0.00000000E+00  0.00000000E+00
  0.00000000E+00  0.00000000E+00  0.00000000E+00  0.00000000E+00  0.00000000E+00
  0.00000000E+00  0.00000000E+00  0.00000000E+00  0.00000000E+00  0.00000000E+00
  0.00000000E+00  0.00000000E+00  0.00000000E+00  0.00000000E+00  0.00000000E+00
  0.00000000E+00  0.00000000E+00  0.00000000E+00
Coordinates of each shell                  R   N=          90
  1.58591958E+01 -2.23232232E+01 -2.11658453E+01  1.58591958E+01 -2.23232232E+01
 -2.11658453E+01  1.58591958E+01 -2.23232232E+01 -2.11658453E+01  1.58591958E+01
 -2.23232232E+01 -2.11658453E+01  1.31641969E+01 -1.74757998E+01 -1.94156226E+01
  1.31641969E+01 -1.74757998E+01 -1.94156226E+01  1.31641969E+01 -1.74757998E+01
 -1.94156226E+01  1.31641969E+01 -1.74757998E+01 -1.94156226E+01  7.63287216E+00
 -2.12107811E+01 -2.41968281E+01  7.63287216E+00 -2.12107811E+01 -2.41968281E+01
  7.63287216E+00 -2.12107811E+01 -2.41968281E+01  7.63287216E+00 -2.12107811E+01
 -2.41968281E+01  1.54490326E+01 -2.36930366E+01 -2.00580047E+01  1.54490326E+01
 -2.36930366E+01 -2.00580047E+01  1.54490326E+01 -2.36930366E+01 -2.00580047E+01
  1.74840371E+01 -2.17584956E+01 -2.06064713E+01  1.74840371E+01 -2.17584956E+01
 -2.06064713E+01  1.74840371E+01 -2.17584956E+01 -2.06064713E+01  1.31811270E+01
 -1.86043839E+01 -2.08291075E+01  1.31811270E+01 -1.86043839E+01 -2.08291075E+01
  1.31811270E+01 -1.86043839E+01 -2.08291075E+01  1.45213642E+01 -1.63243462E+01
 -1.97383746E+01  1.45213642E+01 -1.63243462E+01 -1.97383746E+01  1.45213642E+01
 -1.63243462E+01 -1.97383746E+01  8.55071592E+00 -2.27666815E+01 -2.41037950E+01
  8.55071592E+00 -2.27666815E+01 -2.41037950E+01  8.55071592E+00 -2.27666815E+01
 -2.41037950E+01  8.37549106E+00 -2.03288025E+01 -2.55905880E+01  8.37549106E+00
 -2.03288025E+01 -2.55905880E+01  8.37549106E+00 -2.03288025E+01 -2.55905880E+01
Num ILSW                                   I              100
ILSW                                       I   N=         100
           0           0           0           0           2           0
           0           0           0           0           0          -1
           5           0           0           0           0           0
           0           0           0           0           0           0
           1           1           0           0           0           0
           0           0      100000           0          -1           0
           0           0           0           0           0           0
           0           0           0           1           0           0
           0 -2000000000           1           0           0           0
           0           0           4          52           0           0
           0           1           0           0           0           0
           0           0           0           9           0           1
           0           0           0           0           0           0
           0           0           0           0           0           0
           0           0           0           0           0           0
           0           0           0           0           0           0
           0           0           0           0
Num RLSW                                   I               52
RLSW                                       R   N=          52
  1.00000000E+00  1.00000000E+00  1.00000000E+00  1.00000000E+00  1.00000000E+00
  0.00000000E+00  0.00000000E+00  1.00000000E+00  0.00000000E+00  0.00000000E+00
  0.00000000E+00  0.00000000E+00  1.00000000E+00  0.00000000E+00  0.00000000E+00
  0.00000000E+00  0.00000000E+00  1.00000000E+00  0.00000000E+00  0.00000000E+00
  0.00000000E+00  0.00000000E+00  1.00000000E+00  0.00000000E+00  0.00000000E+00
  0.00000000E+00  0.00000000E+00  1.00000000E+00  0.00000000E+00  0.00000000E+00
  0.00000000E+00  0.00000000E+00  1.00000000E+00  0.00000000E+00  0.00000000E+00
  0.00000000E+00  0.00000000E+00  0.00000000E+00  1.00000000E+00  1.00000000E+00
  0.00000000E+00  1.00000000E+00  0.00000000E+00  0.00000000E+00  0.00000000E+00
  0.00000000E+00  0.00000000E+00  0.00000000E+00  0.00000000E+00  0.00000000E+00
  0.00000000E+00  0.00000000E+00
MxBond                                     I                2
NBond                                      I   N=           9
           2           2           2           1           1           1
           1           1           1
IBond                                      I   N=          18
           4           5           6           7           8           9
           1           0           1           0           2           0
           2           0           3           0           3           0
RBond                                      R   N=          18
  1.00000000E+00  1.00000000E+00  1.00000000E+00  1.00000000E+00  1.00000000E+00
  1.00000000E+00  1.00000000E+00  0.00000000E+00  1.00000000E+00  0.00000000E+00
  1.00000000E+00  0.00000000E+00  1.00000000E+00  0.00000000E+00  1.00000000E+00
  0.00000000E+00  1.00000000E+00  0.00000000E+00
Virial Ratio                               R      2.063791531854832E+00
SCF Energy                                 R     -2.421980269521966E+02
Total Energy                               R     -2.421980269521966E+02
RMS Density                                R      3.464933612075791E-09
Job Status                                 I                1
Nuclear derivative order                   I                0
External E-field                           R   N=          35
  0.00000000E+00  0.00000000E+00  0.00000000E+00  0.00000000E+00  0.00000000E+00
  0.00000000E+00  0.00000000E+00  0.00000000E+00  0.00000000E+00  0.00000000E+00
  0.00000000E+00  0.00000000E+00  0.00000000E+00  0.00000000E+00  0.00000000E+00
  0.00000000E+00  0.00000000E+00  0.00000000E+00  0.00000000E+00  0.00000000E+00
  0.00000000E+00  0.00000000E+00  0.00000000E+00  0.00000000E+00  0.00000000E+00
  0.00000000E+00  0.00000000E+00  0.00000000E+00  0.00000000E+00  0.00000000E+00
  0.00000000E+00  0.00000000E+00  0.00000000E+00  0.00000000E+00  0.00000000E+00
IOpCl                                      I                0
IROHF                                      I                0
Alpha Orbital Energies                     R   N=          72
 -2.05460811E+01 -2.05414561E+01 -2.04567549E+01 -1.32945589E+00 -1.32256486E+00
 -1.23872133E+00 -6.87960889E-01 -6.85869886E-01 -6.01042805E-01 -5.71827512E-01
 -5.60545017E-01 -4.98497296E-01 -4.77659740E-01 -4.69648758E-01 -3.97434537E-01
  2.40178801E-01  2.95453807E-01  3.19111164E-01  3.71628517E-01  3.81456043E-01
  4.20443627E-01  1.01389690E+00  1.03508950E+00  1.09074792E+00  1.10857184E+00
  1.12318882E+00  1.13873353E+00  1.18133346E+00  1.19610156E+00  1.19832490E+00
  1.26280688E+00  1.28855129E+00  1.29517686E+00  1.31684065E+00  1.36140554E+00
  1.39834493E+00  1.60766691E+00  1.66960868E+00  1.70120926E+00  1.81844148E+00
  1.82898598E+00  1.83172401E+00  1.84911093E+00  1.90573433E+00  1.93071782E+00
  1.93236649E+00  1.96990857E+00  2.02542264E+00  2.59872970E+00  2.60422510E+00
  2.61201333E+00  2.62081213E+00  2.68241729E+00  2.69436774E+00  2.82671058E+00
  2.83868394E+00  2.91138250E+00  2.99263057E+00  2.99928777E+00  3.01469874E+00
  3.03326618E+00  3.08172911E+00  3.09629935E+00  3.40044440E+00  3.40651840E+00
  3.48222654E+00  3.76729090E+00  3.79689254E+00  3.85031983E+00  3.95165877E+00
  3.96401941E+00  4.03026722E+00
Alpha MO coefficients                      R   N=        5184
  9.95700397E-01  2.20175484E-02  1.05240940E-03 -6.68948646E-04  1.48588483E-03
 -5.94544601E-03 -4.21948258E-04  2.21608394E-04 -6.79999257E-04 -1.19741095E-04
  7.70084161E-05 -2.46269951E-04  6.31768897E-05  3.39796105E-04  3.84072599E-05
  9.24552976E-05 -2.50892927E-05  1.56939101E-05 -4.51722294E-06 -4.14005525E-04
  8.54661962E-05  1.78831851E-04  2.10048344E-04 -2.84447918E-05  1.96540393E-06
 -5.27741873E-05  2.73025666E-05  1.09346029E-05 -1.30036508E-06 -4.78879579E-06
  4.25176090E-06  2.46670708E-06  3.53361137E-06  3.16665706E-05 -3.27944917E-06
 -9.61533775E-06 -1.49011219E-05  9.51248747E-07 -1.53823533E-06 -6.18780690E-07
 -2.02990942E-06 -1.33635136E-06 -5.21241540E-04  1.20838039E-03 -2.19357022E-04
 -8.54477321E-04  7.39204328E-04 -5.08840832E-04  1.21387774E-03  1.02402628E-03
  3.29190458E-04  4.00711267E-04 -1.77779379E-05  6.52083960E-04  1.09211508E-05
  5.54052324E-05  9.96367449E-05  8.45366607E-06 -1.56306564E-04  6.09667991E-06
  1.98065907E-05 -1.16869499E-05  4.53977881E-06 -2.50343319E-05  4.43071143E-06
 -2.95207527E-06  2.06817941E-06  4.47360136E-06 -2.40487364E-05  3.95347166E-06
  3.58872712E-06 -1.81204146E-06 -3.03268910E-05  4.90300142E-05 -2.65669627E-05
  2.66029826E-05 -1.93608880E-05 -2.79126373E-05  1.47435793E-04 -1.50329091E-04
  8.83249495E-05  1.79820421E-05  1.43260165E-05 -1.46200925E-05  1.34432666E-05
  3.53828564E-05  9.95703381E-01  2.20206981E-02  1.24843100E-03  2.65016629E-05
 -1.49454121E-03 -6.08669718E-03 -5.67035897E-04  5.09064257E-05  7.95032706E-04
 -4.27010792E-05 -6.83462809E-05  2.32970840E-04 -8.24561700E-05  3.23407530E-04
 -2.17826507E-06 -7.89529330E-06  8.71226880E-06  5.01678076E-06  7.29690281E-06
  5.79158767E-05 -8.99265313E-06 -1.61138149E-05 -3.12286508E-05  2.47384004E-06
 -3.20658690E-06 -1.16819405E-06 -3.83402693E-06 -2.02614109E-06 -3.63614369E-05
 -5.70858121E-05 -2.63911250E-05 -1.08500316E-05  5.34404482E-06 -3.67355127E-05
 -5.97944817E-05  1.64509111E-05  2.52761571E-05 -5.53566390E-06 -4.93037356E-04
  1.45834631E-03  6.37460141E-05 -6.48210912E-04 -8.73011754E-04 -5.08551332E-04
  1.22621250E-03  8.74508070E-04  7.00827524E-04 -2.64671626E-04  9.68210058E-06
 -4.25898907E-05  8.32850636E-06 -4.31674800E-06  4.21459799E-06  1.01961618E-05
 -5.18385656E-05  8.26012808E-06  7.27665789E-06 -3.83922275E-06  1.54948502E-07
 -4.23536919E-06 -1.77935961E-06 -5.56040780E-08 -1.64364241E-06  2.27884632E-05
  1.24533041E-05 -3.97191765E-07  1.11946553E-05 -1.25302891E-06  2.58331729E-06
 -1.95855517E-07  2.19217825E-06  1.47244819E-06  8.96345466E-07 -2.83801504E-06
 -5.52316367E-07  3.38715570E-07 -3.09942423E-07  1.30598969E-05  2.09839044E-06
 -3.61842420E-06 -3.90857850E-06  1.00654995E-07 -1.11096339E-07  8.21473252E-07
 -2.74444533E-07  6.98080360E-07  9.95708151E-01  2.19606559E-02  1.57071501E-03
 -6.77479410E-04 -1.22369177E-03 -5.91789519E-03 -7.20948156E-04  3.03579153E-04
  5.64665518E-04 -4.09425777E-05 -1.73343538E-04 -3.01560077E-04 -2.03917572E-04
 -1.49890231E-04  2.18624441E-06 -1.67575460E-05 -2.85101217E-06 -2.61255322E-06
  4.95031331E-07 -1.05668234E-05 -4.80454880E-06  3.75253980E-06  1.86551481E-06
  4.78414061E-07  1.17689954E-06 -1.77070960E-05  9.59768911E-07 -1.45173754E-06
 -1.62630404E-06 -2.11759660E-06  1.85512871E-06  2.36169963E-07  4.90546771E-07
 -3.31709385E-07 -5.26847930E-04  1.26472452E-03  6.32937767E-04 -9.94297290E-04
  8.80966786E-06 -5.16561080E-04  1.25391673E-03  5.16231759E-04  5.15234325E-04
 -9.00601845E-04 -1.98026518E-01  4.35988574E-01  4.06675179E-02 -2.56248137E-02
  5.58134281E-02  4.19715264E-01  1.48629556E-02 -5.90243852E-03  1.87633597E-02
  2.56797502E-04  2.05939433E-03 -2.17155680E-03  6.08242269E-05 -1.90393240E-04
 -7.82053694E-02  1.72383983E-01  1.88709397E-02 -1.24708442E-03 -2.25727072E-02
  1.63810681E-01  7.31104994E-03 -1.87472302E-03 -5.48030402E-03  1.47362021E-04
 -1.00758321E-03  6.96971655E-04  3.22573405E-04  1.92289834E-04 -5.97010168E-05
  2.68173290E-04  2.99871909E-05 -2.05558913E-05 -1.12132635E-05 -4.38306818E-04
 -8.31662385E-05  2.57507141E-04  6.26584683E-05  1.77543565E-05  5.96049419E-06
  7.44330520E-06  2.47557675E-05  3.75290077E-05  1.30844236E-01  7.20012900E-03
  6.99931739E-03  1.91051810E-02 -1.40312910E-02  1.29976500E-01  5.39274011E-03
 -2.25565195E-02 -9.36667792E-03 -6.39632651E-03  5.35314040E-02  4.20999173E-03
  8.82519843E-04  5.87963743E-03  7.16894874E-03  5.19655306E-02  3.88730541E-03
 -7.16933802E-03 -6.62682636E-03  1.30818992E-03  4.60538702E-05  6.83853262E-04
 -5.43469156E-05  8.39495546E-05 -1.17253717E-05  4.45663132E-05  1.05956930E-04
 -1.17299603E-05 -2.64566977E-05  1.70701365E-05  7.91670411E-02 -1.75100322E-01
 -1.74071923E-02  1.20443304E-02 -2.21715488E-02 -1.67905342E-01 -8.64311026E-03
  5.98325365E-03 -7.50763114E-03 -3.03329060E-04 -1.01252945E-03  1.25175423E-03
 -2.75729759E-04 -3.72193062E-04 -1.98432279E-01  4.37770641E-01  4.70081851E-02
  7.71683047E-04 -5.56414778E-02  4.19922847E-01  1.65630317E-02 -1.21769102E-03
 -1.47428287E-02  5.27451215E-04 -2.42459990E-03  1.24014716E-03  1.09084609E-03
  1.30652648E-03 -9.48831504E-05  2.64199575E-04  3.24167602E-05 -6.66298848E-06
 -2.75799755E-05 -1.04699719E-04  5.03858376E-05  2.23109276E-05  2.30789655E-04
 -1.51942381E-05  1.70607078E-05  1.13837378E-05  9.63280854E-06 -2.95387587E-06
 -5.28172402E-02 -1.97571156E-03 -2.65614082E-03 -7.63401053E-03  5.51393755E-03
 -5.24856983E-02 -3.24658384E-04  8.90389694E-03  3.55840857E-03  2.51242660E-03
  1.30670766E-01  3.00020630E-03  1.30077637E-03  1.61520355E-02  1.82220117E-02
  1.33130730E-01  8.12363846E-03 -1.79661039E-02 -1.66959646E-02  3.36258988E-03
  4.63607900E-05  9.34376572E-05 -2.14591165E-05  1.52815100E-05 -1.82254076E-05
  3.75117733E-05  4.23989325E-04 -3.61457025E-05 -4.05680340E-05  3.76281191E-05
  5.04674694E-05 -2.46859898E-05 -6.20774458E-05  5.44871188E-05 -1.86164694E-05
 -2.60046200E-04  1.08366824E-04 -2.33329672E-04 -4.26494595E-05  1.40915307E-05
 -1.59928400E-06 -1.48042102E-05 -8.68687115E-07  1.29994760E-05  1.98440700E-04
 -1.00325517E-04 -7.14867069E-05 -6.69085361E-05 -1.01135936E-05 -1.81849948E-03
 -3.37226158E-05  6.44481260E-04  6.82225899E-04 -6.20948590E-05  1.39397562E-05
 -1.28937439E-04  4.64268588E-05 -5.35247363E-06 -2.12366034E-01  4.70384518E-01
  6.17142617E-02 -2.63839345E-02 -4.81642034E-02  4.42602213E-01  2.35720479E-02
 -1.12732235E-02 -1.86965065E-02 -3.42973802E-04 -2.95396704E-03 -7.51389814E-04
  2.57258821E-04 -1.86121208E-03 -5.98463382E-05  8.60295058E-06 -1.70309494E-05
  4.28510693E-06  1.57622602E-05  4.71111943E-06 -8.26813907E-05 -5.84630658E-06
  2.47842630E-05  3.93838440E-06 -7.76193741E-05  2.38398281E-03 -1.56654075E-05
  1.51056668E-04  1.94268171E-04 -3.40238473E-05 -4.79908841E-04  3.20166929E-05
  2.50212377E-06 -2.73864140E-05  1.45759675E-01  1.16585813E-02 -1.22707703E-02
  2.29758496E-02 -3.40316892E-03  1.42522591E-01  7.27248024E-03 -9.23519999E-03
 -1.42840321E-02  2.01281952E-02 -7.44388080E-04 -5.09310353E-05  3.48715375E-01
  3.48909504E-01 -1.02744634E-01  7.84319007E-03  2.03673220E-01  2.08599176E-01
 -6.21544360E-02 -8.39414506E-03  1.30497622E-02  1.84532816E-02  1.98479012E-02
  4.20119311E-03  1.62745402E-03 -3.62114125E-03 -3.13101282E-02 -6.90552155E-02
 -3.63087508E-02 -6.57149567E-03 -1.63595483E-02 -4.10206376E-02 -2.21726557E-02
  2.52578939E-03  3.35426081E-05  3.31360189E-03 -1.28509022E-03 -2.96502546E-03
 -4.30664018E-05 -1.25379218E-04 -2.07719179E-05  5.41179758E-04 -9.71253596E-05
  1.03518989E-03  2.14605259E-04 -2.63946051E-04  9.11418631E-05 -3.62640026E-05
  7.59239180E-06 -1.04572199E-05 -2.58367290E-05 -4.57387792E-05 -2.34234253E-01
 -1.02208210E-01  2.43924270E-03 -1.54081773E-02  1.66707025E-02  2.23688953E-01
  9.80548320E-02 -1.90708494E-02 -9.73598505E-04 -1.24635527E-02  4.04057566E-02
  1.88470165E-02 -3.50961107E-04  1.49115515E-03  3.14681465E-03 -3.74263131E-02
 -1.49761616E-02  2.78264061E-03  1.20297785E-03 -2.13692748E-03 -2.77250302E-04
 -1.70428846E-03  9.95188829E-05 -1.54330545E-04  4.47625940E-06  1.87162788E-04
  3.86771347E-04 -2.03369893E-05  8.84043902E-06  3.56358491E-05  9.56437078E-04
 -1.88297603E-03  8.82507103E-02  3.01507527E-02 -9.30671938E-03 -6.00345400E-03
  5.68185999E-02  1.20562447E-02 -5.41598894E-03 -1.46193979E-03  3.40847686E-03
  1.77391676E-03  3.79514301E-03  8.54117581E-04  1.19396543E-03 -3.62862768E-03
  2.31991117E-01  3.98235923E-01  1.92277593E-01 -4.93680646E-03  1.35882240E-01
  2.31664677E-01  1.13181937E-01 -1.55529802E-02 -2.80595629E-03 -1.83533664E-02
  9.68162335E-03  1.60386922E-02 -2.68897023E-04  5.00622590E-04 -1.00465146E-03
 -4.64899351E-04 -8.98577164E-04  1.62700870E-03 -8.24577448E-04 -9.48828784E-04
 -1.10019131E-03  3.65330050E-05 -6.28200621E-05 -5.62997089E-06 -1.06494901E-04
 -8.03256701E-05 -2.98366424E-02 -1.66115583E-02  1.35258320E-03 -2.33579014E-03
  2.25918127E-03  4.74810519E-02  1.98124653E-02 -3.81306003E-03 -1.21813971E-03
 -2.36182857E-03 -2.29054530E-01 -1.05225660E-01  5.80070712E-03 -8.19668188E-03
 -1.95213738E-02  2.29420416E-01  1.12604289E-01 -1.67194458E-02 -9.32602479E-03
  1.24245919E-02  1.10240943E-04 -1.40427693E-03  3.78577433E-05 -1.08025106E-04
  5.47596240E-07  2.17338298E-04 -5.31275003E-04 -1.70891649E-05  1.97074004E-05
 -2.51695177E-05  2.58514668E-04 -5.96559478E-04  1.03834758E-03 -1.57844754E-03
  2.04230945E-03 -9.68683572E-04  1.20106786E-03 -1.18206551E-03  1.68010352E-03
  3.92468779E-05  7.86230114E-05 -9.35134510E-05  2.19594844E-06 -1.26479518E-05
 -2.07160331E-05  7.63708398E-05 -4.51206495E-04  3.18599249E-05 -2.35548829E-04
 -3.15518004E-05 -3.50165708E-04  2.48514083E-04 -1.71114420E-04  1.09094451E-05
  9.87659403E-06 -2.07456986E-05 -2.30905171E-06  6.47542928E-06 -2.26382489E-03
  4.94454700E-03 -2.90868032E-02  4.28561163E-01 -2.62796103E-01  1.35144984E-02
 -1.39288539E-02  2.40265636E-01 -1.48611155E-01  1.79462590E-02 -1.16965896E-02
 -1.10365124E-02  8.00933015E-03  2.16056861E-02  1.07906554E-03  8.84078636E-05
  3.41564670E-05  5.63975782E-05 -2.94161611E-05  2.76494200E-04 -4.22171491E-05
  3.95333229E-06 -3.91971142E-05  4.17145810E-05  5.92636879E-05  2.67706968E-04
 -1.99729236E-05  5.47785373E-05  2.64514571E-05 -1.66102216E-04 -1.39598399E-04
  1.48018005E-05  1.26472819E-05 -1.08235565E-05 -2.40617408E-01 -1.34299540E-01
  1.53204092E-02 -1.45969425E-02 -5.08111764E-03  2.36840577E-01  1.17089439E-01
 -1.34507198E-02 -3.80201588E-03  1.76473307E-02  4.57779169E-02 -1.07039366E-01
  2.50013038E-01 -1.60157134E-01  2.85668175E-01 -1.94061715E-01  1.83092465E-01
 -1.24334356E-01  2.14458490E-01  4.36039978E-03  1.33276265E-02 -9.67060004E-03
  4.59476485E-03 -2.35289413E-03 -4.47257008E-02  9.98823492E-02 -2.51702825E-01
 -1.88512896E-02  2.64701163E-01  2.05225407E-01 -1.90350254E-01 -1.47035530E-02
  1.90729031E-01 -3.12118558E-03  1.32492048E-02 -7.35043029E-04 -5.27323534E-03
 -3.51131114E-03 -3.07333072E-04  1.92488038E-04 -1.28377135E-03 -2.02608323E-03
  9.05858336E-04  3.21991047E-03 -4.41887139E-04 -2.49188106E-03  6.68656613E-04
 -1.51544389E-04  6.57199933E-05  3.40201731E-05 -1.88202579E-04 -2.68563508E-04
  9.59554715E-02  4.13933843E-02  9.81113472E-03  6.32565301E-03 -7.06627920E-04
  1.11473276E-01  4.41158883E-02 -7.58533731E-03 -9.40067707E-03  2.32610155E-03
 -8.17399792E-02 -6.55448160E-02 -7.70431805E-03 -6.26628565E-03 -2.45632492E-03
 -1.07677796E-01 -4.47997078E-02  4.03986346E-03  8.86244579E-03  3.93640063E-03
  8.52145559E-04 -3.22835360E-03  8.48920085E-05 -2.91787239E-04  2.15759863E-05
 -1.17278933E-03 -4.33908006E-04 -5.66754342E-06  4.31082388E-05 -1.05619721E-04
 -4.42251853E-02  1.04320160E-01 -1.84911550E-01  1.09868813E-01 -3.07643338E-01
  1.85954488E-01 -1.33711260E-01  7.85577641E-02 -2.29517231E-01 -5.60894197E-03
 -1.18621152E-02  8.02410101E-03 -2.80952208E-03  1.89478092E-03 -4.49985545E-02
  1.06150591E-01 -2.40321343E-01  8.12445718E-03  3.41235837E-01  1.81690544E-01
 -1.78704257E-01  1.00852221E-02  2.62109895E-01 -7.44101974E-03  1.44554320E-02
 -3.80622429E-03 -3.94188746E-03 -2.94296362E-03  1.23739744E-04  1.86202896E-04
  1.13575847E-04  1.34073983E-03 -1.26537964E-03 -2.31827458E-03 -4.40655350E-04
  2.08245898E-03 -9.83998402E-04  1.82075051E-04 -7.67110146E-05 -3.62971646E-05
  1.14066080E-04  2.38027377E-04 -9.48828680E-02 -4.13180564E-02 -8.12063377E-03
 -7.52309512E-03 -2.00476176E-04 -9.22776357E-02 -4.32112147E-02  7.29395537E-03
  7.37273622E-03 -4.08000232E-03 -1.13325679E-01 -1.34877285E-02 -5.53742763E-03
 -9.60014128E-03 -2.66435679E-03 -9.78785091E-02 -4.44648827E-02  3.48687705E-03
  9.06376338E-03  5.98131704E-03 -7.38898482E-04  3.01722736E-03 -1.32961437E-04
  2.58399740E-04 -5.14009375E-05  9.96002398E-04 -1.71910881E-04 -1.83928624E-05
 -4.77612778E-05  2.89172298E-05  3.17804530E-03 -8.72352668E-03 -2.07248235E-01
  3.01745889E-01  3.14806333E-01 -1.34550765E-02 -1.70423240E-01  2.50342241E-01
  2.53400876E-01  1.49828597E-02  7.46040032E-04  5.04155542E-03 -1.10850071E-03
  8.45972257E-03 -2.60776527E-04 -3.64137986E-03  2.25001349E-01 -2.14055984E-01
  2.40681215E-01  7.10195730E-03  1.84430073E-01 -1.80774842E-01  1.91140439E-01