 Entering Gaussian System, Link 0=g16
 Input=w32_19.gjf
 Output=w32_19.log
 Initial command:
 /home/soft/g16/l1.exe "/tmp/liwei01/gaussian/wsr/Gau-5956.inp" -scrdir="/tmp/liwei01/gaussian/wsr/"
 Entering Link 1 = /home/soft/g16/l1.exe PID=      5957.
  
 Copyright (c) 1988,1990,1992,1993,1995,1998,2003,2009,2016,
            Gaussian, Inc.  All Rights Reserved.
  
 This is part of the Gaussian(R) 16 program.  It is based on
 the Gaussian(R) 09 system (copyright 2009, Gaussian, Inc.),
 the Gaussian(R) 03 system (copyright 2003, Gaussian, Inc.),
 the Gaussian(R) 98 system (copyright 1998, Gaussian, Inc.),
 the Gaussian(R) 94 system (copyright 1995, Gaussian, Inc.),
 the Gaussian 92(TM) system (copyright 1992, Gaussian, Inc.),
 the Gaussian 90(TM) system (copyright 1990, Gaussian, Inc.),
 the Gaussian 88(TM) system (copyright 1988, Gaussian, Inc.),
 the Gaussian 86(TM) system (copyright 1986, Carnegie Mellon
 University), and the Gaussian 82(TM) system (copyright 1983,
 Carnegie Mellon University). Gaussian is a federally registered
 trademark of Gaussian, Inc.
  
 This software contains proprietary and confidential information,
 including trade secrets, belonging to Gaussian, Inc.
  
 This software is provided under written license and may be
 used, copied, transmitted, or stored only in accord with that
 written license.
  
 The following legend is applicable only to US Government
 contracts under FAR:
  
                    RESTRICTED RIGHTS LEGEND
  
 Use, reproduction and disclosure by the US Government is
 subject to restrictions as set forth in subparagraphs (a)
 and (c) of the Commercial Computer Software - Restricted
 Rights clause in FAR 52.227-19.
  
 Gaussian, Inc.
 340 Quinnipiac St., Bldg. 40, Wallingford CT 06492
  
  
 ---------------------------------------------------------------
 Warning -- This program may not be used in any manner that
 competes with the business of Gaussian, Inc. or will provide
 assistance to any competitor of Gaussian, Inc.  The licensee
 of this program is prohibited from giving any competitor of
 Gaussian, Inc. access to this program.  By using this program,
 the user acknowledges that Gaussian, Inc. is engaged in the
 business of creating and licensing software in the field of
 computational chemistry and represents and warrants to the
 licensee that it is not a competitor of Gaussian, Inc. and that
 it will not use this program in any manner prohibited above.
 ---------------------------------------------------------------
  

 Cite this work as:
 Gaussian 16, Revision A.03,
 M. J. Frisch, G. W. Trucks, H. B. Schlegel, G. E. Scuseria, 
 M. A. Robb, J. R. Cheeseman, G. Scalmani, V. Barone, 
 G. A. Petersson, H. Nakatsuji, X. Li, M. Caricato, A. V. Marenich, 
 J. Bloino, B. G. Janesko, R. Gomperts, B. Mennucci, H. P. Hratchian, 
 J. V. Ortiz, A. F. Izmaylov, J. L. Sonnenberg, D. Williams-Young, 
 F. Ding, F. Lipparini, F. Egidi, J. Goings, B. Peng, A. Petrone, 
 T. Henderson, D. Ranasinghe, V. G. Zakrzewski, J. Gao, N. Rega, 
 G. Zheng, W. Liang, M. Hada, M. Ehara, K. Toyota, R. Fukuda, 
 J. Hasegawa, M. Ishida, T. Nakajima, Y. Honda, O. Kitao, H. Nakai, 
 T. Vreven, K. Throssell, J. A. Montgomery, Jr., J. E. Peralta, 
 F. Ogliaro, M. J. Bearpark, J. J. Heyd, E. N. Brothers, K. N. Kudin, 
 V. N. Staroverov, T. A. Keith, R. Kobayashi, J. Normand, 
 K. Raghavachari, A. P. Rendell, J. C. Burant, S. S. Iyengar, 
 J. Tomasi, M. Cossi, J. M. Millam, M. Klene, C. Adamo, R. Cammi, 
 J. W. Ochterski, R. L. Martin, K. Morokuma, O. Farkas, 
 J. B. Foresman, and D. J. Fox, Gaussian, Inc., Wallingford CT, 2016.
 
 ******************************************
 Gaussian 16:  ES64L-G16RevA.03 25-Dec-2016
                15-May-2020 
 ******************************************
 %chk=w32_19.chk
 %nproc=4
 Will use up to    4 processors via shared memory.
 %mem=1gb
 -----------------------------------------
 #p hf/6-31g** 5d 7f pop=npa charge nosymm
 -----------------------------------------
 1/18=10,28=-2,38=1,125=101,172=1/1;
 2/12=2,15=1,17=6,18=5,40=1/2;
 3/5=1,6=6,7=101,8=11,11=9,25=1,30=1/1,2,3;
 4//1;
 5/5=2,38=5/2;
 6/7=2,8=2,9=2,10=2,28=1,40=-1/1,7;
 99/5=1,9=1/99;
 Leave Link    1 at Fri May 15 22:35:17 2020, MaxMem=   134217728 cpu:               0.9 elap:               0.3
 (Enter /home/soft/g16/l101.exe)
 --------------
 Atom number=12
 --------------
 Symbolic Z-matrix:
 Charge =  0 Multiplicity = 1
 o                     10.70602  -10.84886  -10.09151 
 o                     13.45756  -11.77328  -9.77403 
 o                     12.99603  -14.71385  -11.21004 
 o                     12.81376  -13.01847  -7.36632 
 h                     11.52141  -11.32028  -9.92081 
 h                     10.5678  -10.31688  -9.30785 
 h                     13.90889  -10.99621  -10.10371 
 h                     14.15077  -12.42364  -9.66118 
 h                     12.28642  -15.16188  -10.74966 
 h                     13.63566  -14.51236  -10.52702 
 h                     12.4819  -12.41714  -6.69961 
 h                     12.65515  -12.56817  -8.19596 
 
 ITRead=  0  0  0  0  0  0  0  0  0  0  0  0
 MicOpt= -1 -1 -1 -1 -1 -1 -1 -1 -1 -1 -1 -1
 NAtoms=     12 NQM=       12 NQMF=       0 NMMI=      0 NMMIF=      0
                NMic=       0 NMicF=      0.
                    Isotopes and Nuclear Properties:
 (Nuclear quadrupole moments (NQMom) in fm**2, nuclear magnetic moments (NMagM)
  in nuclear magnetons)

  Atom         1           2           3           4           5           6           7           8           9          10
 IAtWgt=          16          16          16          16           1           1           1           1           1           1
 AtmWgt=  15.9949146  15.9949146  15.9949146  15.9949146   1.0078250   1.0078250   1.0078250   1.0078250   1.0078250   1.0078250
 NucSpn=           0           0           0           0           1           1           1           1           1           1
 AtZEff=  -0.0000000  -0.0000000  -0.0000000  -0.0000000  -0.0000000  -0.0000000  -0.0000000  -0.0000000  -0.0000000  -0.0000000
 NQMom=    0.0000000   0.0000000   0.0000000   0.0000000   0.0000000   0.0000000   0.0000000   0.0000000   0.0000000   0.0000000
 NMagM=    0.0000000   0.0000000   0.0000000   0.0000000   2.7928460   2.7928460   2.7928460   2.7928460   2.7928460   2.7928460
 AtZNuc=   8.0000000   8.0000000   8.0000000   8.0000000   1.0000000   1.0000000   1.0000000   1.0000000   1.0000000   1.0000000

  Atom        11          12
 IAtWgt=           1           1
 AtmWgt=   1.0078250   1.0078250
 NucSpn=           1           1
 AtZEff=  -0.0000000  -0.0000000
 NQMom=    0.0000000   0.0000000
 NMagM=    2.7928460   2.7928460
 AtZNuc=   1.0000000   1.0000000
 Background charge distribution read from input stream:
 Point Charges:
 XYZ=    8.3923  -11.8129  -11.2005 Q=   -1.0561 A=    0.0000 R=    0.0000 C=    0.0000
 XYZ=    8.1753  -12.5378  -10.6142 Q=    0.5233 A=    0.0000 R=    0.0000 C=    0.0000
 XYZ=    9.2522  -11.5141  -10.9045 Q=    0.5177 A=    0.0000 R=    0.0000 C=    0.0000
 XYZ=    8.6932  -14.0693   -9.5471 Q=   -1.0099 A=    0.0000 R=    0.0000 C=    0.0000
 XYZ=    8.2201  -13.7327   -8.7861 Q=    0.4999 A=    0.0000 R=    0.0000 C=    0.0000
 XYZ=    8.5528  -15.0157   -9.5178 Q=    0.5079 A=    0.0000 R=    0.0000 C=    0.0000
 XYZ=    7.2503   -9.8596  -13.1035 Q=   -1.0243 A=    0.0000 R=    0.0000 C=    0.0000
 XYZ=    7.1207  -10.2215  -13.9801 Q=    0.5152 A=    0.0000 R=    0.0000 C=    0.0000
 XYZ=    7.3415  -10.6267  -12.5383 Q=    0.5154 A=    0.0000 R=    0.0000 C=    0.0000
 XYZ=    5.5704  -12.7600  -10.7338 Q=   -1.0500 A=    0.0000 R=    0.0000 C=    0.0000
 XYZ=    4.6427  -12.8278  -10.5079 Q=    0.5214 A=    0.0000 R=    0.0000 C=    0.0000
 XYZ=    5.9838  -12.4052   -9.9468 Q=    0.5064 A=    0.0000 R=    0.0000 C=    0.0000
 XYZ=    6.9662   -9.2478  -10.2743 Q=   -1.0324 A=    0.0000 R=    0.0000 C=    0.0000
 XYZ=    6.9752   -9.8450  -11.0223 Q=    0.5142 A=    0.0000 R=    0.0000 C=    0.0000
 XYZ=    7.6844   -8.6385  -10.4451 Q=    0.5185 A=    0.0000 R=    0.0000 C=    0.0000
 XYZ=    6.9426  -11.8294   -8.3710 Q=   -1.0528 A=    0.0000 R=    0.0000 C=    0.0000
 XYZ=    7.4956  -12.0911   -7.6348 Q=    0.5210 A=    0.0000 R=    0.0000 C=    0.0000
 XYZ=    7.3075  -10.9928   -8.6597 Q=    0.5255 A=    0.0000 R=    0.0000 C=    0.0000
 XYZ=    9.7397  -14.5602  -13.0841 Q=   -1.0029 A=    0.0000 R=    0.0000 C=    0.0000
 XYZ=    9.4367  -13.9209  -12.4394 Q=    0.5215 A=    0.0000 R=    0.0000 C=    0.0000
 XYZ=   10.6527  -14.3230  -13.2466 Q=    0.4988 A=    0.0000 R=    0.0000 C=    0.0000
 XYZ=   10.0849   -9.6030  -13.6944 Q=   -1.0549 A=    0.0000 R=    0.0000 C=    0.0000
 XYZ=    9.8380   -9.8779  -14.5774 Q=    0.5180 A=    0.0000 R=    0.0000 C=    0.0000
 XYZ=    9.2671   -9.6284  -13.1976 Q=    0.5226 A=    0.0000 R=    0.0000 C=    0.0000
 XYZ=    9.4738   -7.9972  -10.9180 Q=   -0.9971 A=    0.0000 R=    0.0000 C=    0.0000
 XYZ=    9.9975   -8.7956  -10.8516 Q=    0.5301 A=    0.0000 R=    0.0000 C=    0.0000
 XYZ=    9.6234   -7.5424  -10.0892 Q=    0.4920 A=    0.0000 R=    0.0000 C=    0.0000
 XYZ=    8.4516  -10.6356  -15.6859 Q=   -1.0322 A=    0.0000 R=    0.0000 C=    0.0000
 XYZ=    8.1250  -10.4069  -16.5562 Q=    0.4798 A=    0.0000 R=    0.0000 C=    0.0000
 XYZ=    9.2622  -11.1166  -15.8526 Q=    0.5341 A=    0.0000 R=    0.0000 C=    0.0000
 XYZ=    4.0391  -11.2243  -12.8044 Q=   -0.9921 A=    0.0000 R=    0.0000 C=    0.0000
 XYZ=    4.5248  -12.0476  -12.7552 Q=    0.4802 A=    0.0000 R=    0.0000 C=    0.0000
 XYZ=    4.4321  -10.7575  -13.5420 Q=    0.5046 A=    0.0000 R=    0.0000 C=    0.0000
 XYZ=    5.5848  -15.5922  -11.4699 Q=   -1.0129 A=    0.0000 R=    0.0000 C=    0.0000
 XYZ=    4.6785  -15.3483  -11.6582 Q=    0.5050 A=    0.0000 R=    0.0000 C=    0.0000
 XYZ=    6.0031  -14.7735  -11.2032 Q=    0.5257 A=    0.0000 R=    0.0000 C=    0.0000
 XYZ=    8.8013  -12.4259   -6.4973 Q=   -0.9852 A=    0.0000 R=    0.0000 C=    0.0000
 XYZ=    9.0556  -11.7490   -5.8701 Q=    0.5006 A=    0.0000 R=    0.0000 C=    0.0000
 XYZ=    8.9395  -13.2499   -6.0303 Q=    0.5083 A=    0.0000 R=    0.0000 C=    0.0000
 XYZ=   10.5523   -9.0602   -7.7657 Q=   -0.9799 A=    0.0000 R=    0.0000 C=    0.0000
 XYZ=   10.0296   -9.4526   -7.0665 Q=    0.5003 A=    0.0000 R=    0.0000 C=    0.0000
 XYZ=   10.0576   -8.2839   -8.0284 Q=    0.4937 A=    0.0000 R=    0.0000 C=    0.0000
 XYZ=    8.4919  -14.1596  -15.7110 Q=   -0.9823 A=    0.0000 R=    0.0000 C=    0.0000
 XYZ=    8.8439  -15.0437  -15.8144 Q=    0.4799 A=    0.0000 R=    0.0000 C=    0.0000
 XYZ=    8.9183  -13.8221  -14.9233 Q=    0.4950 A=    0.0000 R=    0.0000 C=    0.0000
 XYZ=   10.6752  -11.9252  -15.8192 Q=   -0.9837 A=    0.0000 R=    0.0000 C=    0.0000
 XYZ=   11.1454  -12.2597  -15.0555 Q=    0.5055 A=    0.0000 R=    0.0000 C=    0.0000
 XYZ=   10.7694  -12.6123  -16.4789 Q=    0.5125 A=    0.0000 R=    0.0000 C=    0.0000
 XYZ=    7.7593  -16.5050  -13.2460 Q=   -1.0112 A=    0.0000 R=    0.0000 C=    0.0000
 XYZ=    7.3079  -16.2111  -12.4547 Q=    0.4926 A=    0.0000 R=    0.0000 C=    0.0000
 XYZ=    8.5373  -15.9498  -13.2987 Q=    0.4973 A=    0.0000 R=    0.0000 C=    0.0000
 XYZ=    5.5914  -15.5335   -8.7002 Q=   -1.0162 A=    0.0000 R=    0.0000 C=    0.0000
 XYZ=    6.3093  -16.0707   -8.3652 Q=    0.4831 A=    0.0000 R=    0.0000 C=    0.0000
 XYZ=    5.4763  -15.8239   -9.6050 Q=    0.5237 A=    0.0000 R=    0.0000 C=    0.0000
 XYZ=    5.3398  -11.2122  -15.4745 Q=   -0.9760 A=    0.0000 R=    0.0000 C=    0.0000
 XYZ=    5.8801  -10.4587  -15.7120 Q=    0.4863 A=    0.0000 R=    0.0000 C=    0.0000
 XYZ=    5.4896  -11.8457  -16.1763 Q=    0.4965 A=    0.0000 R=    0.0000 C=    0.0000
 XYZ=    4.6413   -8.1383  -12.6711 Q=   -0.9897 A=    0.0000 R=    0.0000 C=    0.0000
 XYZ=    4.5978   -7.2720  -12.2662 Q=    0.4876 A=    0.0000 R=    0.0000 C=    0.0000
 XYZ=    5.5765   -8.3384  -12.7100 Q=    0.4969 A=    0.0000 R=    0.0000 C=    0.0000
 XYZ=    8.9611  -17.0167   -9.2755 Q=   -0.9921 A=    0.0000 R=    0.0000 C=    0.0000
 XYZ=    8.6736  -17.2191   -8.3852 Q=    0.5092 A=    0.0000 R=    0.0000 C=    0.0000
 XYZ=    8.3026  -17.4234   -9.8386 Q=    0.5103 A=    0.0000 R=    0.0000 C=    0.0000
 XYZ=   12.8900   -9.6906  -13.7511 Q=   -0.9984 A=    0.0000 R=    0.0000 C=    0.0000
 XYZ=   13.4884   -9.8459  -13.0204 Q=    0.4670 A=    0.0000 R=    0.0000 C=    0.0000
 XYZ=   12.0171   -9.7427  -13.3618 Q=    0.5160 A=    0.0000 R=    0.0000 C=    0.0000
 XYZ=    4.9070   -7.9100   -9.1300 Q=   -1.0105 A=    0.0000 R=    0.0000 C=    0.0000
 XYZ=    4.0635   -8.0265   -9.5674 Q=    0.4764 A=    0.0000 R=    0.0000 C=    0.0000
 XYZ=    5.4227   -8.6710   -9.3968 Q=    0.5176 A=    0.0000 R=    0.0000 C=    0.0000
 XYZ=    2.9547  -12.7024   -9.8757 Q=   -0.9915 A=    0.0000 R=    0.0000 C=    0.0000
 XYZ=    3.0641  -13.5048   -9.3654 Q=    0.5019 A=    0.0000 R=    0.0000 C=    0.0000
 XYZ=    2.7384  -12.0329   -9.2268 Q=    0.5105 A=    0.0000 R=    0.0000 C=    0.0000
 XYZ=    4.2108  -13.3306   -7.5546 Q=   -1.0293 A=    0.0000 R=    0.0000 C=    0.0000
 XYZ=    4.9638  -12.7453   -7.4735 Q=    0.4979 A=    0.0000 R=    0.0000 C=    0.0000
 XYZ=    4.5835  -14.1618   -7.8486 Q=    0.5197 A=    0.0000 R=    0.0000 C=    0.0000
 XYZ=    8.5389   -6.2611  -12.9484 Q=   -1.0019 A=    0.0000 R=    0.0000 C=    0.0000
 XYZ=    8.8800   -6.8491  -12.2745 Q=    0.5098 A=    0.0000 R=    0.0000 C=    0.0000
 XYZ=    9.2767   -6.1230  -13.5423 Q=    0.4773 A=    0.0000 R=    0.0000 C=    0.0000
 XYZ=   11.4715  -15.3553   -7.5180 Q=   -1.0197 A=    0.0000 R=    0.0000 C=    0.0000
 XYZ=   10.8644  -15.3558   -8.2581 Q=    0.4753 A=    0.0000 R=    0.0000 C=    0.0000
 XYZ=   11.9075  -14.5045   -7.5658 Q=    0.5146 A=    0.0000 R=    0.0000 C=    0.0000
 XYZ=   11.3245  -17.0116  -10.7628 Q=   -1.0019 A=    0.0000 R=    0.0000 C=    0.0000
 XYZ=   11.7165  -17.8633  -10.5702 Q=    0.4876 A=    0.0000 R=    0.0000 C=    0.0000
 XYZ=   10.4428  -17.0644  -10.3939 Q=    0.5095 A=    0.0000 R=    0.0000 C=    0.0000
 Pt Chg Charge=             -0.0280 electrons
 Pt Chg Dipole moment (Debye):
    X=             11.9691    Y=             -7.9206    Z=             13.1989  Tot=             19.4989
 Pt Chg Quadrupole moment (Debye-Ang):
   XX=            158.2693   YY=            209.7360   ZZ=           -204.3631
   XY=           -195.1453   XZ=            -42.1051   YZ=            -54.7426
 Pt Chg Traceless Quadrupole moment (Debye-Ang):
   XX=            103.7219   YY=            155.1886   ZZ=           -258.9105
   XY=           -195.1453   XZ=            -42.1051   YZ=            -54.7426
 Pt Chg Octapole moment (Debye-Ang**2):
  XXX=           1550.1811  YYY=          -4210.6911  ZZZ=           2070.2616  XYY=           3002.4096
  XXY=          -2191.5389  XXZ=          -1052.0829  XZZ=            107.7430  YZZ=           1329.8611
  YYZ=           -373.3605  XYZ=           1205.8551
 Pt Chg Hexadecapole moment (Debye-Ang**3):
 XXXX=          13419.5457 YYYY=          79495.5473 ZZZZ=          -7435.4777 XXXY=         -20593.4156
 XXXZ=         -11902.1407 YYYX=         -46636.5153 YYYZ=          17033.4771 ZZZX=          -4412.7879
 ZZZY=         -12779.4207 XXYY=          30406.1336 XXZZ=           9183.9028 YYZZ=          -7207.7543
 XXYZ=          18688.7393 YYXZ=         -21711.0378 ZZXY=         -10599.9270
 Leave Link  101 at Fri May 15 22:35:18 2020, MaxMem=   134217728 cpu:               0.5 elap:               0.1
 (Enter /home/soft/g16/l202.exe)
                          Input orientation:                          
 ---------------------------------------------------------------------
 Center     Atomic      Atomic             Coordinates (Angstroms)
 Number     Number       Type             X           Y           Z
 ---------------------------------------------------------------------
      1          8           0       10.706017  -10.848862  -10.091512
      2          8           0       13.457564  -11.773284   -9.774029
      3          8           0       12.996031  -14.713850  -11.210036
      4          8           0       12.813764  -13.018467   -7.366324
      5          1           0       11.521407  -11.320280   -9.920812
      6          1           0       10.567797  -10.316883   -9.307849
      7          1           0       13.908886  -10.996207  -10.103715
      8          1           0       14.150775  -12.423635   -9.661183
      9          1           0       12.286420  -15.161884  -10.749655
     10          1           0       13.635659  -14.512360  -10.527021
     11          1           0       12.481900  -12.417138   -6.699613
     12          1           0       12.655150  -12.568166   -8.195965
 ---------------------------------------------------------------------
                    Distance matrix (angstroms):
                    1          2          3          4          5
     1  O    0.000000
     2  O    2.919994   0.000000
     3  O    4.629621   3.304854   0.000000
     4  O    4.071417   2.786037   4.204957   0.000000
     5  H    0.957201   1.993856   3.918282   3.328578   0.000000
     6  H    0.957201   3.269431   5.371029   4.014031   1.513903
     7  H    3.206280   0.957201   3.984736   3.575211   2.416306
     8  H    3.812014   0.957200   2.996242   2.721728   2.863281
     9  H    4.640365   3.715647   0.957201   4.039710   4.003767
    10  H    4.711018   2.846270   0.957200   3.591272   3.876458
    11  H    4.137418   3.289149   5.087547   0.957201   3.535784
    12  H    3.216866   1.940616   3.715479   0.957201   2.411989
                    6          7          8          9         10
     6  H    0.000000
     7  H    3.501108   0.000000
     8  H    4.171448   1.513901   0.000000
     9  H    5.339148   4.516913   3.486918   0.000000
    10  H    5.338556   3.552066   2.319007   1.513900   0.000000
    11  H    3.857169   3.955154   3.399424   4.896395   4.513332
    12  H    3.265211   2.771718   2.098725   3.658506   3.189845
                   11         12
    11  H    0.000000
    12  H    1.513900   0.000000
 Symmetry turned off by external request.
 Stoichiometry    H8O4
 Framework group  C1[X(H8O4)]
 Deg. of freedom    30
 Full point group                 C1      NOp   1
 Rotational constants (GHZ):           2.8309732           2.1116403           1.5190382
 Leave Link  202 at Fri May 15 22:35:18 2020, MaxMem=   134217728 cpu:               0.0 elap:               0.0
 (Enter /home/soft/g16/l301.exe)
 Standard basis: 6-31G(d,p) (5D, 7F)
 Ernie: Thresh=  0.10000D-02 Tol=  0.10000D-05 Strict=F.
    96 basis functions,   168 primitive gaussians,   100 cartesian basis functions
    20 alpha electrons       20 beta electrons
       nuclear repulsion energy       127.9040731917 Hartrees.
 IExCor=    0 DFT=F Ex=HF Corr=None ExCW=0 ScaHFX=  1.000000
 ScaDFX=  1.000000  1.000000  1.000000  1.000000 ScalE2=  1.000000  1.000000
 IRadAn=      5 IRanWt=     -1 IRanGd=            0 ICorTp=0 IEmpDi=  4
 NAtoms=   12 NActive=   12 NUniq=   12 SFac= 1.00D+00 NAtFMM=   60 NAOKFM=F Big=F
 Integral buffers will be    131072 words long.
 Raffenetti 1 integral format.
 Two-electron integral symmetry is turned off.
 Background charge distribution read from rwf.
 PtFMM for NChg=        96 BoxLen=    40.00 Levels= 1 LMax=20 SMax=    22.2 ICnFMM=     1:
 Self energy of the charges =       -13.6383314069 a.u.
 MM   energy of the charges =         0.0000000000 a.u.
 Nuclei-charges interaction =         1.5872359123 a.u.
 Nuclear repulsion after external point charges =      115.8529776971 Hartrees.
 Leave Link  301 at Fri May 15 22:35:18 2020, MaxMem=   134217728 cpu:               0.2 elap:               0.1
 (Enter /home/soft/g16/l302.exe)
 NPDir=0 NMtPBC=     1 NCelOv=     1 NCel=       1 NClECP=     1 NCelD=      1
         NCelK=      1 NCelE2=     1 NClLst=     1 CellRange=     0.0.
 One-electron integrals computed using PRISM.
 NBasis=    96 RedAO= T EigKep=  2.26D-02  NBF=    96
 NBsUse=    96 1.00D-06 EigRej= -1.00D+00 NBFU=    96
 Leave Link  302 at Fri May 15 22:35:18 2020, MaxMem=   134217728 cpu:               0.6 elap:               0.2
 (Enter /home/soft/g16/l303.exe)
 DipDrv:  MaxL=1.
 Leave Link  303 at Fri May 15 22:35:18 2020, MaxMem=   134217728 cpu:               0.1 elap:               0.0
 (Enter /home/soft/g16/l401.exe)
 ExpMin= 1.61D-01 ExpMax= 5.48D+03 ExpMxC= 8.25D+02 IAcc=3 IRadAn=         5 AccDes= 0.00D+00
 Harris functional with IExCor=  205 and IRadAn=       5 diagonalized for initial guess.
 HarFok:  IExCor=  205 AccDes= 0.00D+00 IRadAn=         5 IDoV= 1 UseB2=F ITyADJ=14
 ICtDFT=  3500011 ScaDFX=  1.000000  1.000000  1.000000  1.000000
 FoFCou: FMM=F IPFlag=           0 FMFlag=      100000 FMFlg1=           0
         NFxFlg=           0 DoJE=T BraDBF=F KetDBF=T FulRan=T
         wScrn=  0.000000 ICntrl=       500 IOpCl=  0 I1Cent=   200000004 NGrid=           0
         NMat0=    1 NMatS0=      1 NMatT0=    0 NMatD0=    1 NMtDS0=    0 NMtDT0=    0
 Symmetry not used in FoFCou.
 Harris En= -318.160911652193    
 JPrj=0 DoOrth=F DoCkMO=F.
 Leave Link  401 at Fri May 15 22:35:18 2020, MaxMem=   134217728 cpu:               1.7 elap:               0.4
 (Enter /home/soft/g16/l502.exe)
 Keep R1 ints in memory in canonical form, NReq=11711812.
 FoFCou: FMM=F IPFlag=           0 FMFlag=           0 FMFlg1=           0
         NFxFlg=           0 DoJE=F BraDBF=F KetDBF=F FulRan=T
         wScrn=  0.000000 ICntrl=       600 IOpCl=  0 I1Cent=           0 NGrid=           0
         NMat0=    1 NMatS0=   4656 NMatT0=    0 NMatD0=    1 NMtDS0=    0 NMtDT0=    0
 Symmetry not used in FoFCou.
 Two-electron integral symmetry not used.
 Closed shell SCF:
 Using DIIS extrapolation, IDIIS=  1040.
 NGot=   134217728 LenX=   123354636 LenY=   123344195
 Requested convergence on RMS density matrix=1.00D-08 within 128 cycles.
 Requested convergence on MAX density matrix=1.00D-06.
 Requested convergence on             energy=1.00D-06.
 No special actions if energy rises.

 Cycle   1  Pass 1  IDiag  1:
 E= -317.479794181419    
 DIIS: error= 5.05D-02 at cycle   1 NSaved=   1.
 NSaved= 1 IEnMin= 1 EnMin= -317.479794181419     IErMin= 1 ErrMin= 5.05D-02
 ErrMax= 5.05D-02  0.00D+00 EMaxC= 1.00D-01 BMatC= 4.72D-01 BMatP= 4.72D-01
 IDIUse=3 WtCom= 4.95D-01 WtEn= 5.05D-01
 Coeff-Com:  0.100D+01
 Coeff-En:   0.100D+01
 Coeff:      0.100D+01
 Gap=     0.504 Goal=   None    Shift=    0.000
 GapD=    0.504 DampG=2.000 DampE=0.500 DampFc=1.0000 IDamp=-1.
 RMSDP=5.85D-03 MaxDP=1.26D-01              OVMax= 1.26D-01

 Cycle   2  Pass 1  IDiag  1:
 E= -317.698319828235     Delta-E=       -0.218525646816 Rises=F Damp=F
 DIIS: error= 3.13D-02 at cycle   2 NSaved=   2.
 NSaved= 2 IEnMin= 2 EnMin= -317.698319828235     IErMin= 2 ErrMin= 3.13D-02
 ErrMax= 3.13D-02  0.00D+00 EMaxC= 1.00D-01 BMatC= 1.42D-01 BMatP= 4.72D-01
 IDIUse=3 WtCom= 6.87D-01 WtEn= 3.13D-01
 Coeff-Com:  0.342D+00 0.658D+00
 Coeff-En:   0.747D-01 0.925D+00
 Coeff:      0.258D+00 0.742D+00
 Gap=     0.635 Goal=   None    Shift=    0.000
 RMSDP=2.65D-03 MaxDP=5.21D-02 DE=-2.19D-01 OVMax= 4.67D-02

 Cycle   3  Pass 1  IDiag  1:
 E= -317.792626492106     Delta-E=       -0.094306663871 Rises=F Damp=F
 DIIS: error= 4.89D-03 at cycle   3 NSaved=   3.
 NSaved= 3 IEnMin= 3 EnMin= -317.792626492106     IErMin= 3 ErrMin= 4.89D-03
 ErrMax= 4.89D-03  0.00D+00 EMaxC= 1.00D-01 BMatC= 4.05D-03 BMatP= 1.42D-01
 IDIUse=3 WtCom= 9.51D-01 WtEn= 4.89D-02
 Coeff-Com: -0.324D-01 0.100D+00 0.932D+00
 Coeff-En:   0.000D+00 0.000D+00 0.100D+01
 Coeff:     -0.308D-01 0.951D-01 0.936D+00
 Gap=     0.617 Goal=   None    Shift=    0.000
 RMSDP=3.90D-04 MaxDP=8.67D-03 DE=-9.43D-02 OVMax= 9.99D-03

 Cycle   4  Pass 1  IDiag  1:
 E= -317.795736389670     Delta-E=       -0.003109897564 Rises=F Damp=F
 DIIS: error= 5.77D-04 at cycle   4 NSaved=   4.
 NSaved= 4 IEnMin= 4 EnMin= -317.795736389670     IErMin= 4 ErrMin= 5.77D-04
 ErrMax= 5.77D-04  0.00D+00 EMaxC= 1.00D-01 BMatC= 3.04D-05 BMatP= 4.05D-03
 IDIUse=3 WtCom= 9.94D-01 WtEn= 5.77D-03
 Coeff-Com:  0.612D-02-0.443D-01-0.276D+00 0.131D+01
 Coeff-En:   0.000D+00 0.000D+00 0.000D+00 0.100D+01
 Coeff:      0.608D-02-0.440D-01-0.274D+00 0.131D+01
 Gap=     0.621 Goal=   None    Shift=    0.000
 RMSDP=8.35D-05 MaxDP=1.42D-03 DE=-3.11D-03 OVMax= 2.08D-03

 Cycle   5  Pass 1  IDiag  1:
 E= -317.795789071454     Delta-E=       -0.000052681783 Rises=F Damp=F
 DIIS: error= 1.24D-04 at cycle   5 NSaved=   5.
 NSaved= 5 IEnMin= 5 EnMin= -317.795789071454     IErMin= 5 ErrMin= 1.24D-04
 ErrMax= 1.24D-04  0.00D+00 EMaxC= 1.00D-01 BMatC= 1.83D-06 BMatP= 3.04D-05
 IDIUse=3 WtCom= 9.99D-01 WtEn= 1.24D-03
 Coeff-Com:  0.247D-02-0.128D-01-0.884D-01 0.244D+00 0.855D+00
 Coeff-En:   0.000D+00 0.000D+00 0.000D+00 0.000D+00 0.100D+01
 Coeff:      0.247D-02-0.128D-01-0.883D-01 0.244D+00 0.855D+00
 Gap=     0.621 Goal=   None    Shift=    0.000
 RMSDP=1.63D-05 MaxDP=3.24D-04 DE=-5.27D-05 OVMax= 4.57D-04

 Cycle   6  Pass 1  IDiag  1:
 E= -317.795791424010     Delta-E=       -0.000002352556 Rises=F Damp=F
 DIIS: error= 4.91D-05 at cycle   6 NSaved=   6.
 NSaved= 6 IEnMin= 6 EnMin= -317.795791424010     IErMin= 6 ErrMin= 4.91D-05
 ErrMax= 4.91D-05  0.00D+00 EMaxC= 1.00D-01 BMatC= 1.73D-07 BMatP= 1.83D-06
 IDIUse=1 WtCom= 1.00D+00 WtEn= 0.00D+00
 Coeff-Com: -0.350D-03 0.320D-02 0.201D-01-0.123D+00 0.852D-01 0.102D+01
 Coeff:     -0.350D-03 0.320D-02 0.201D-01-0.123D+00 0.852D-01 0.102D+01
 Gap=     0.621 Goal=   None    Shift=    0.000
 RMSDP=6.94D-06 MaxDP=1.48D-04 DE=-2.35D-06 OVMax= 1.70D-04

 Cycle   7  Pass 1  IDiag  1:
 E= -317.795791709864     Delta-E=       -0.000000285855 Rises=F Damp=F
 DIIS: error= 6.88D-06 at cycle   7 NSaved=   7.
 NSaved= 7 IEnMin= 7 EnMin= -317.795791709864     IErMin= 7 ErrMin= 6.88D-06
 ErrMax= 6.88D-06  0.00D+00 EMaxC= 1.00D-01 BMatC= 5.04D-09 BMatP= 1.73D-07
 IDIUse=1 WtCom= 1.00D+00 WtEn= 0.00D+00
 Coeff-Com: -0.892D-04 0.349D-03 0.269D-02-0.142D-02-0.542D-01-0.885D-01
 Coeff-Com:  0.114D+01
 Coeff:     -0.892D-04 0.349D-03 0.269D-02-0.142D-02-0.542D-01-0.885D-01
 Coeff:      0.114D+01
 Gap=     0.621 Goal=   None    Shift=    0.000
 RMSDP=1.48D-06 MaxDP=2.34D-05 DE=-2.86D-07 OVMax= 3.95D-05

 Cycle   8  Pass 1  IDiag  1:
 E= -317.795791721190     Delta-E=       -0.000000011326 Rises=F Damp=F
 DIIS: error= 1.51D-06 at cycle   8 NSaved=   8.
 NSaved= 8 IEnMin= 8 EnMin= -317.795791721190     IErMin= 8 ErrMin= 1.51D-06
 ErrMax= 1.51D-06  0.00D+00 EMaxC= 1.00D-01 BMatC= 2.77D-10 BMatP= 5.04D-09
 IDIUse=1 WtCom= 1.00D+00 WtEn= 0.00D+00
 Coeff-Com:  0.409D-04-0.241D-03-0.170D-02 0.562D-02 0.149D-01-0.984D-02
 Coeff-Com: -0.364D+00 0.136D+01
 Coeff:      0.409D-04-0.241D-03-0.170D-02 0.562D-02 0.149D-01-0.984D-02
 Coeff:     -0.364D+00 0.136D+01
 Gap=     0.621 Goal=   None    Shift=    0.000
 RMSDP=3.22D-07 MaxDP=7.08D-06 DE=-1.13D-08 OVMax= 8.86D-06

 Cycle   9  Pass 1  IDiag  1:
 E= -317.795791721879     Delta-E=       -0.000000000689 Rises=F Damp=F
 DIIS: error= 3.64D-07 at cycle   9 NSaved=   9.
 NSaved= 9 IEnMin= 9 EnMin= -317.795791721879     IErMin= 9 ErrMin= 3.64D-07
 ErrMax= 3.64D-07  0.00D+00 EMaxC= 1.00D-01 BMatC= 1.76D-11 BMatP= 2.77D-10
 IDIUse=1 WtCom= 1.00D+00 WtEn= 0.00D+00
 Coeff-Com:  0.808D-05-0.394D-04-0.284D-03 0.567D-03 0.427D-02 0.345D-02
 Coeff-Com: -0.955D-01 0.156D+00 0.932D+00
 Coeff:      0.808D-05-0.394D-04-0.284D-03 0.567D-03 0.427D-02 0.345D-02
 Coeff:     -0.955D-01 0.156D+00 0.932D+00
 Gap=     0.621 Goal=   None    Shift=    0.000
 RMSDP=6.05D-08 MaxDP=1.60D-06 DE=-6.89D-10 OVMax= 1.97D-06

 Cycle  10  Pass 1  IDiag  1:
 E= -317.795791721911     Delta-E=       -0.000000000031 Rises=F Damp=F
 DIIS: error= 1.11D-07 at cycle  10 NSaved=  10.
 NSaved=10 IEnMin=10 EnMin= -317.795791721911     IErMin=10 ErrMin= 1.11D-07
 ErrMax= 1.11D-07  0.00D+00 EMaxC= 1.00D-01 BMatC= 2.56D-12 BMatP= 1.76D-11
 IDIUse=1 WtCom= 1.00D+00 WtEn= 0.00D+00
 Coeff-Com: -0.397D-05 0.255D-04 0.179D-03-0.705D-03-0.109D-02 0.238D-02
 Coeff-Com:  0.304D-01-0.152D+00 0.157D+00 0.964D+00
 Coeff:     -0.397D-05 0.255D-04 0.179D-03-0.705D-03-0.109D-02 0.238D-02
 Coeff:      0.304D-01-0.152D+00 0.157D+00 0.964D+00
 Gap=     0.621 Goal=   None    Shift=    0.000
 RMSDP=2.61D-08 MaxDP=7.67D-07 DE=-3.13D-11 OVMax= 1.01D-06

 Cycle  11  Pass 1  IDiag  1:
 E= -317.795791721914     Delta-E=       -0.000000000004 Rises=F Damp=F
 DIIS: error= 3.12D-08 at cycle  11 NSaved=  11.
 NSaved=11 IEnMin=11 EnMin= -317.795791721914     IErMin=11 ErrMin= 3.12D-08
 ErrMax= 3.12D-08  0.00D+00 EMaxC= 1.00D-01 BMatC= 1.25D-13 BMatP= 2.56D-12
 IDIUse=1 WtCom= 1.00D+00 WtEn= 0.00D+00
 Coeff-Com: -0.530D-07-0.473D-06-0.285D-05 0.525D-04-0.157D-03-0.616D-03
 Coeff-Com:  0.244D-02 0.113D-01-0.920D-01-0.149D+00 0.123D+01
 Coeff:     -0.530D-07-0.473D-06-0.285D-05 0.525D-04-0.157D-03-0.616D-03
 Coeff:      0.244D-02 0.113D-01-0.920D-01-0.149D+00 0.123D+01
 Gap=     0.621 Goal=   None    Shift=    0.000
 RMSDP=9.67D-09 MaxDP=3.03D-07 DE=-3.69D-12 OVMax= 4.34D-07

 SCF Done:  E(RHF) =  -317.795791722     A.U. after   11 cycles
            NFock= 11  Conv=0.97D-08     -V/T= 2.0466
 KE= 3.036349026876D+02 PE=-9.797195719189D+02 EE= 2.424358998122D+02
 Leave Link  502 at Fri May 15 22:35:19 2020, MaxMem=   134217728 cpu:               1.3 elap:               0.5
 (Enter /home/soft/g16/l601.exe)
 Copying SCF densities to generalized density rwf, IOpCl= 0 IROHF=0.

 **********************************************************************

            Population analysis using the SCF density.

 **********************************************************************

 Alpha  occ. eigenvalues --  -20.64227 -20.60752 -20.60264 -20.55536  -1.42763
 Alpha  occ. eigenvalues --   -1.39128  -1.38662  -1.33756  -0.79603  -0.76142
 Alpha  occ. eigenvalues --   -0.74589  -0.69948  -0.66617  -0.62548  -0.61833
 Alpha  occ. eigenvalues --   -0.58077  -0.56939  -0.55079  -0.54721  -0.49461
 Alpha virt. eigenvalues --    0.12625   0.19481   0.21025   0.23200   0.27993
 Alpha virt. eigenvalues --    0.31178   0.35813   0.41156   0.93120   0.96017
 Alpha virt. eigenvalues --    0.98917   1.00481   1.01375   1.03183   1.05496
 Alpha virt. eigenvalues --    1.06877   1.11078   1.11904   1.13170   1.15016
 Alpha virt. eigenvalues --    1.16240   1.19268   1.22296   1.25139   1.28988
 Alpha virt. eigenvalues --    1.31296   1.31986   1.35005   1.51125   1.61304
 Alpha virt. eigenvalues --    1.64513   1.67786   1.73422   1.75057   1.76500
 Alpha virt. eigenvalues --    1.78620   1.79283   1.81592   1.83291   1.83471
 Alpha virt. eigenvalues --    1.87364   1.91295   1.92780   2.00062   2.47824
 Alpha virt. eigenvalues --    2.49965   2.54251   2.54782   2.58395   2.59696
 Alpha virt. eigenvalues --    2.60222   2.61261   2.73428   2.78370   2.79712
 Alpha virt. eigenvalues --    2.82139   2.87903   2.91712   2.93302   2.94409
 Alpha virt. eigenvalues --    2.97917   2.98437   3.00396   3.02985   3.30656
 Alpha virt. eigenvalues --    3.33989   3.36303   3.38369   3.70268   3.72717
 Alpha virt. eigenvalues --    3.74445   3.76902   3.88074   3.91824   3.94455
 Alpha virt. eigenvalues --    3.98060
          Condensed to atoms (all electrons):
               1          2          3          4          5          6
     1  O    8.169267  -0.006747  -0.000004  -0.000101   0.314732   0.317051
     2  O   -0.006747   8.069520  -0.000601  -0.010680   0.015875   0.000414
     3  O   -0.000004  -0.000601   8.088674  -0.000027   0.000124  -0.000000
     4  O   -0.000101  -0.010680  -0.000027   8.138386   0.000177  -0.000004
     5  H    0.314732   0.015875   0.000124   0.000177   0.290515  -0.024362
     6  H    0.317051   0.000414  -0.000000  -0.000004  -0.024362   0.329284
     7  H    0.000880   0.311125   0.000050   0.000427  -0.001848   0.000005
     8  H    0.000245   0.306651   0.001659   0.002867  -0.000488  -0.000015
     9  H    0.000001   0.000040   0.316523   0.000017   0.000004  -0.000000
    10  H   -0.000001   0.001396   0.305120   0.000134  -0.000006   0.000000
    11  H   -0.000021   0.000650   0.000000   0.315578   0.000070   0.000006
    12  H    0.001102   0.015450   0.000202   0.300411   0.002061   0.000205
               7          8          9         10         11         12
     1  O    0.000880   0.000245   0.000001  -0.000001  -0.000021   0.001102
     2  O    0.311125   0.306651   0.000040   0.001396   0.000650   0.015450
     3  O    0.000050   0.001659   0.316523   0.305120   0.000000   0.000202
     4  O    0.000427   0.002867   0.000017   0.000134   0.315578   0.300411
     5  H   -0.001848  -0.000488   0.000004  -0.000006   0.000070   0.002061
     6  H    0.000005  -0.000015  -0.000000   0.000000   0.000006   0.000205
     7  H    0.340119  -0.018205  -0.000001  -0.000054  -0.000026  -0.000477
     8  H   -0.018205   0.341771  -0.000046   0.000583  -0.000054  -0.004876
     9  H   -0.000001  -0.000046   0.315654  -0.024457  -0.000001   0.000051
    10  H   -0.000054   0.000583  -0.024457   0.396295  -0.000006   0.000125
    11  H   -0.000026  -0.000054  -0.000001  -0.000006   0.360398  -0.024761
    12  H   -0.000477  -0.004876   0.000051   0.000125  -0.024761   0.331829
 Mulliken charges:
               1
     1  O   -0.796405
     2  O   -0.703093
     3  O   -0.711721
     4  O   -0.747184
     5  H    0.403145
     6  H    0.377415
     7  H    0.368004
     8  H    0.369908
     9  H    0.392216
    10  H    0.320870
    11  H    0.348166
    12  H    0.378678
 Sum of Mulliken charges =  -0.00000
 Mulliken charges with hydrogens summed into heavy atoms:
               1
     1  O   -0.015844
     2  O    0.034819
     3  O    0.001365
     4  O   -0.020340
 Electronic spatial extent (au):  <R**2>=          58860.7466
 Charge=             -0.0000 electrons
 Dipole moment (field-independent basis, Debye):
    X=              2.9729    Y=              1.8657    Z=              3.1923  Tot=              4.7444
 Quadrupole moment (field-independent basis, Debye-Ang):
   XX=             50.2044   YY=            -67.5777   ZZ=            -93.7909
   XY=             -8.6095   XZ=              5.3839   YZ=            -53.6164
 Traceless Quadrupole moment (field-independent basis, Debye-Ang):
   XX=             87.2592   YY=            -30.5230   ZZ=            -56.7362
   XY=             -8.6095   XZ=              5.3839   YZ=            -53.6164
 Octapole moment (field-independent basis, Debye-Ang**2):
  XXX=            511.2020  YYY=           1666.1120  ZZZ=           1840.5435  XYY=           -514.1396
  XXY=           -205.2297  XXZ=           -128.6303  XZZ=           -791.8250  YZZ=           1288.5281
  YYZ=           1052.3769  XYZ=           -303.7114
 Hexadecapole moment (field-independent basis, Debye-Ang**3):
 XXXX=           1521.0662 YYYY=         -34824.1737 ZZZZ=         -30405.0975 XXXY=           -216.2399
 XXXZ=          -1356.4649 YYYX=          17676.0325 YYYZ=         -20653.6908 ZZZX=          18944.2961
 ZZZY=         -24237.8061 XXYY=          -6141.3506 XXZZ=          -7536.1141 YYZZ=         -19822.1083
 XXYZ=          -2155.4146 YYXZ=           9406.9248 ZZXY=          12155.0181
 N-N= 1.158529776971D+02 E-N=-9.797195718262D+02  KE= 3.036349026876D+02
 No NMR shielding tensors so no spin-rotation constants.
 Leave Link  601 at Fri May 15 22:35:19 2020, MaxMem=   134217728 cpu:               0.5 elap:               0.1
 (Enter /home/soft/g16/l607.exe)
 ******************************Gaussian NBO Version 3.1******************************
             N A T U R A L   A T O M I C   O R B I T A L   A N D
          N A T U R A L   B O N D   O R B I T A L   A N A L Y S I S
 ******************************Gaussian NBO Version 3.1******************************
       /RESON  / : Allow strongly delocalized NBO set

 Analyzing the SCF density

 Job title: Atom number=12                                                  

 Storage needed:     28188 in NPA ( 134216936 available)
 GSVD:  LWork=        4224 too small for GESVD, short by        5328 words or        5328 for optimal perf.


 NATURAL POPULATIONS:  Natural atomic orbital occupancies 
                                                          
   NAO  Atom  No  lang   Type(AO)    Occupancy      Energy
 ----------------------------------------------------------
     1    O    1  S      Cor( 1S)     1.99985     -20.43281
     2    O    1  S      Val( 2S)     1.75078      -1.20943
     3    O    1  S      Ryd( 3S)     0.00069       1.85949
     4    O    1  px     Val( 2p)     1.74514      -0.47041
     5    O    1  px     Ryd( 3p)     0.00122       1.18148
     6    O    1  py     Val( 2p)     1.78450      -0.47321
     7    O    1  py     Ryd( 3p)     0.00124       1.20612
     8    O    1  pz     Val( 2p)     1.75812      -0.47139
     9    O    1  pz     Ryd( 3p)     0.00067       1.17303
    10    O    1  dxy    Ryd( 3d)     0.00069       2.60176
    11    O    1  dxz    Ryd( 3d)     0.00120       2.37432
    12    O    1  dyz    Ryd( 3d)     0.00132       2.64253
    13    O    1  dx2y2  Ryd( 3d)     0.00050       2.40169
    14    O    1  dz2    Ryd( 3d)     0.00163       2.56011

    15    O    2  S      Cor( 1S)     1.99986     -20.48107
    16    O    2  S      Val( 2S)     1.75148      -1.24223
    17    O    2  S      Ryd( 3S)     0.00118       1.63348
    18    O    2  px     Val( 2p)     1.74591      -0.50783
    19    O    2  px     Ryd( 3p)     0.00059       1.34040
    20    O    2  py     Val( 2p)     1.55950      -0.43629
    21    O    2  py     Ryd( 3p)     0.00171       1.26018
    22    O    2  pz     Val( 2p)     1.94229      -0.56134
    23    O    2  pz     Ryd( 3p)     0.00053       1.20000
    24    O    2  dxy    Ryd( 3d)     0.00167       3.03294
    25    O    2  dxz    Ryd( 3d)     0.00139       2.22688
    26    O    2  dyz    Ryd( 3d)     0.00026       2.36626
    27    O    2  dx2y2  Ryd( 3d)     0.00083       2.40775
    28    O    2  dz2    Ryd( 3d)     0.00096       2.39997

    29    O    3  S      Cor( 1S)     1.99986     -20.39255
    30    O    3  S      Val( 2S)     1.75705      -1.15211
    31    O    3  S      Ryd( 3S)     0.00114       1.69601
    32    O    3  px     Val( 2p)     1.59232      -0.35469
    33    O    3  px     Ryd( 3p)     0.00181       1.28816
    34    O    3  py     Val( 2p)     1.89627      -0.45650
    35    O    3  py     Ryd( 3p)     0.00097       1.20270
    36    O    3  pz     Val( 2p)     1.73409      -0.41573
    37    O    3  pz     Ryd( 3p)     0.00033       1.20415
    38    O    3  dxy    Ryd( 3d)     0.00030       2.56188
    39    O    3  dxz    Ryd( 3d)     0.00192       3.00090
    40    O    3  dyz    Ryd( 3d)     0.00195       2.40573
    41    O    3  dx2y2  Ryd( 3d)     0.00018       2.42356
    42    O    3  dz2    Ryd( 3d)     0.00204       2.42387

    43    O    4  S      Cor( 1S)     1.99985     -20.43657
    44    O    4  S      Val( 2S)     1.75052      -1.21060
    45    O    4  S      Ryd( 3S)     0.00107       1.79872
    46    O    4  px     Val( 2p)     1.94182      -0.52939
    47    O    4  px     Ryd( 3p)     0.00064       1.13736
    48    O    4  py     Val( 2p)     1.79852      -0.49477
    49    O    4  py     Ryd( 3p)     0.00052       1.13513
    50    O    4  pz     Val( 2p)     1.51428      -0.38467
    51    O    4  pz     Ryd( 3p)     0.00232       1.28555
    52    O    4  dxy    Ryd( 3d)     0.00199       2.31185
    53    O    4  dxz    Ryd( 3d)     0.00053       2.39922
    54    O    4  dyz    Ryd( 3d)     0.00145       2.98443
    55    O    4  dx2y2  Ryd( 3d)     0.00178       2.25622
    56    O    4  dz2    Ryd( 3d)     0.00038       2.61487

    57    H    5  S      Val( 1S)     0.47185       0.33846
    58    H    5  S      Ryd( 2S)     0.00096       0.82462
    59    H    5  px     Ryd( 2p)     0.00140       3.19344
    60    H    5  py     Ryd( 2p)     0.00084       2.79842
    61    H    5  pz     Ryd( 2p)     0.00063       2.63929

    62    H    6  S      Val( 1S)     0.48378       0.32085
    63    H    6  S      Ryd( 2S)     0.00053       0.69077
    64    H    6  px     Ryd( 2p)     0.00054       2.61624
    65    H    6  py     Ryd( 2p)     0.00105       2.81586
    66    H    6  pz     Ryd( 2p)     0.00148       3.10400

    67    H    7  S      Val( 1S)     0.48131       0.28426
    68    H    7  S      Ryd( 2S)     0.00092       0.65639
    69    H    7  px     Ryd( 2p)     0.00081       2.77264
    70    H    7  py     Ryd( 2p)     0.00123       3.09870
    71    H    7  pz     Ryd( 2p)     0.00098       2.62285

    72    H    8  S      Val( 1S)     0.47995       0.28523
    73    H    8  S      Ryd( 2S)     0.00140       0.73632
    74    H    8  px     Ryd( 2p)     0.00114       2.99029
    75    H    8  py     Ryd( 2p)     0.00101       2.95989
    76    H    8  pz     Ryd( 2p)     0.00082       2.55045

    77    H    9  S      Val( 1S)     0.47139       0.39114
    78    H    9  S      Ryd( 2S)     0.00077       0.74760
    79    H    9  px     Ryd( 2p)     0.00116       3.07986
    80    H    9  py     Ryd( 2p)     0.00117       2.79424
    81    H    9  pz     Ryd( 2p)     0.00079       2.83557

    82    H   10  S      Val( 1S)     0.52931       0.30209
    83    H   10  S      Ryd( 2S)     0.00129       0.78018
    84    H   10  px     Ryd( 2p)     0.00104       2.98281
    85    H   10  py     Ryd( 2p)     0.00097       2.63297
    86    H   10  pz     Ryd( 2p)     0.00119       3.02403

    87    H   11  S      Val( 1S)     0.50251       0.28554
    88    H   11  S      Ryd( 2S)     0.00081       0.67950
    89    H   11  px     Ryd( 2p)     0.00094       2.63925
    90    H   11  py     Ryd( 2p)     0.00110       2.87832
    91    H   11  pz     Ryd( 2p)     0.00104       2.97584

    92    H   12  S      Val( 1S)     0.48545       0.31165
    93    H   12  S      Ryd( 2S)     0.00181       0.81828
    94    H   12  px     Ryd( 2p)     0.00082       2.64674
    95    H   12  py     Ryd( 2p)     0.00090       2.76940
    96    H   12  pz     Ryd( 2p)     0.00131       3.23405


 Summary of Natural Population Analysis:                  
                                                          
                                       Natural Population 
                Natural  -----------------------------------------------
    Atom  No    Charge         Core      Valence    Rydberg      Total
 -----------------------------------------------------------------------
      O    1   -1.04754      1.99985     7.03853    0.00916     9.04754
      O    2   -1.00815      1.99986     6.99918    0.00911     9.00815
      O    3   -0.99022      1.99986     6.97973    0.01063     8.99022
      O    4   -1.01567      1.99985     7.00515    0.01068     9.01567
      H    5    0.52432      0.00000     0.47185    0.00384     0.47568
      H    6    0.51261      0.00000     0.48378    0.00361     0.48739
      H    7    0.51475      0.00000     0.48131    0.00394     0.48525
      H    8    0.51568      0.00000     0.47995    0.00437     0.48432
      H    9    0.52472      0.00000     0.47139    0.00389     0.47528
      H   10    0.46619      0.00000     0.52931    0.00450     0.53381
      H   11    0.49360      0.00000     0.50251    0.00389     0.50640
      H   12    0.50972      0.00000     0.48545    0.00484     0.49028
 =======================================================================
   * Total *   -0.00000      7.99941    31.92814    0.07245    40.00000

                                 Natural Population      
 --------------------------------------------------------
   Core                       7.99941 ( 99.9927% of   8)
   Valence                   31.92814 ( 99.7754% of  32)
   Natural Minimal Basis     39.92755 ( 99.8189% of  40)
   Natural Rydberg Basis      0.07245 (  0.1811% of  40)
 --------------------------------------------------------

    Atom  No          Natural Electron Configuration
 ----------------------------------------------------------------------------
      O    1      [core]2S( 1.75)2p( 5.29)3d( 0.01)
      O    2      [core]2S( 1.75)2p( 5.25)3d( 0.01)
      O    3      [core]2S( 1.76)2p( 5.22)3d( 0.01)
      O    4      [core]2S( 1.75)2p( 5.25)3d( 0.01)
      H    5            1S( 0.47)
      H    6            1S( 0.48)
      H    7            1S( 0.48)
      H    8            1S( 0.48)
      H    9            1S( 0.47)
      H   10            1S( 0.53)
      H   11            1S( 0.50)
      H   12            1S( 0.49)


 NBO analysis skipped by request.
 Leave Link  607 at Fri May 15 22:35:19 2020, MaxMem=   134217728 cpu:               0.6 elap:               0.2
 (Enter /home/soft/g16/l9999.exe)

 Test job not archived.
 1\1\GINC-MASTER\SP\RHF\6-31G(d,p)\H8O4\LIWEI01\15-May-2020\0\\#p hf/6-
 31g** 5d 7f pop=npa charge nosymm\\Atom number=12\\0,1\O,0,10.706017,-
 10.848862,-10.091512\O,0,13.457564,-11.773284,-9.774029\O,0,12.996031,
 -14.71385,-11.210036\O,0,12.813764,-13.018467,-7.366324\H,0,11.521407,
 -11.32028,-9.920812\H,0,10.567797,-10.316883,-9.307849\H,0,13.908886,-
 10.996207,-10.103715\H,0,14.150775,-12.423635,-9.661183\H,0,12.28642,-
 15.161884,-10.749655\H,0,13.635659,-14.51236,-10.527021\H,0,12.4819,-1
 2.417138,-6.699613\H,0,12.65515,-12.568166,-8.195965\\Version=ES64L-G1
 6RevA.03\HF=-317.7957917\RMSD=9.667e-09\Dipole=1.1696188,0.734005,1.25
 59602\Quadrupole=64.8750479,-22.6930857,-42.1819622,-6.4009408,4.00278
 51,-39.8624945\PG=C01 [X(H8O4)]\\@


 CONTRAIWISE...CONTINUED TWEEDLEDEE, IF IT WAS SO, IT MIGHT BE,
 AND IF IT WERE SO, IT WOULD BE.....
 BUT AS IT ISN'T, IT AIN'T....
 THAT'S LOGIC.....
 ALICE THROUGH THE LOOKING GLASS
 Job cpu time:       0 days  0 hours  0 minutes  6.7 seconds.
 Elapsed time:       0 days  0 hours  0 minutes  2.0 seconds.
 File lengths (MBytes):  RWF=     72 Int=      0 D2E=      0 Chk=      8 Scr=      8
 Normal termination of Gaussian 16 at Fri May 15 22:35:19 2020.
