 Entering Gaussian System, Link 0=g16
 Input=w32_79.gjf
 Output=w32_79.log
 Initial command:
 /home/soft/g16/l1.exe "/tmp/liwei01/gaussian/wsr/Gau-8719.inp" -scrdir="/tmp/liwei01/gaussian/wsr/"
 Entering Link 1 = /home/soft/g16/l1.exe PID=      8720.
  
 Copyright (c) 1988,1990,1992,1993,1995,1998,2003,2009,2016,
            Gaussian, Inc.  All Rights Reserved.
  
 This is part of the Gaussian(R) 16 program.  It is based on
 the Gaussian(R) 09 system (copyright 2009, Gaussian, Inc.),
 the Gaussian(R) 03 system (copyright 2003, Gaussian, Inc.),
 the Gaussian(R) 98 system (copyright 1998, Gaussian, Inc.),
 the Gaussian(R) 94 system (copyright 1995, Gaussian, Inc.),
 the Gaussian 92(TM) system (copyright 1992, Gaussian, Inc.),
 the Gaussian 90(TM) system (copyright 1990, Gaussian, Inc.),
 the Gaussian 88(TM) system (copyright 1988, Gaussian, Inc.),
 the Gaussian 86(TM) system (copyright 1986, Carnegie Mellon
 University), and the Gaussian 82(TM) system (copyright 1983,
 Carnegie Mellon University). Gaussian is a federally registered
 trademark of Gaussian, Inc.
  
 This software contains proprietary and confidential information,
 including trade secrets, belonging to Gaussian, Inc.
  
 This software is provided under written license and may be
 used, copied, transmitted, or stored only in accord with that
 written license.
  
 The following legend is applicable only to US Government
 contracts under FAR:
  
                    RESTRICTED RIGHTS LEGEND
  
 Use, reproduction and disclosure by the US Government is
 subject to restrictions as set forth in subparagraphs (a)
 and (c) of the Commercial Computer Software - Restricted
 Rights clause in FAR 52.227-19.
  
 Gaussian, Inc.
 340 Quinnipiac St., Bldg. 40, Wallingford CT 06492
  
  
 ---------------------------------------------------------------
 Warning -- This program may not be used in any manner that
 competes with the business of Gaussian, Inc. or will provide
 assistance to any competitor of Gaussian, Inc.  The licensee
 of this program is prohibited from giving any competitor of
 Gaussian, Inc. access to this program.  By using this program,
 the user acknowledges that Gaussian, Inc. is engaged in the
 business of creating and licensing software in the field of
 computational chemistry and represents and warrants to the
 licensee that it is not a competitor of Gaussian, Inc. and that
 it will not use this program in any manner prohibited above.
 ---------------------------------------------------------------
  

 Cite this work as:
 Gaussian 16, Revision A.03,
 M. J. Frisch, G. W. Trucks, H. B. Schlegel, G. E. Scuseria, 
 M. A. Robb, J. R. Cheeseman, G. Scalmani, V. Barone, 
 G. A. Petersson, H. Nakatsuji, X. Li, M. Caricato, A. V. Marenich, 
 J. Bloino, B. G. Janesko, R. Gomperts, B. Mennucci, H. P. Hratchian, 
 J. V. Ortiz, A. F. Izmaylov, J. L. Sonnenberg, D. Williams-Young, 
 F. Ding, F. Lipparini, F. Egidi, J. Goings, B. Peng, A. Petrone, 
 T. Henderson, D. Ranasinghe, V. G. Zakrzewski, J. Gao, N. Rega, 
 G. Zheng, W. Liang, M. Hada, M. Ehara, K. Toyota, R. Fukuda, 
 J. Hasegawa, M. Ishida, T. Nakajima, Y. Honda, O. Kitao, H. Nakai, 
 T. Vreven, K. Throssell, J. A. Montgomery, Jr., J. E. Peralta, 
 F. Ogliaro, M. J. Bearpark, J. J. Heyd, E. N. Brothers, K. N. Kudin, 
 V. N. Staroverov, T. A. Keith, R. Kobayashi, J. Normand, 
 K. Raghavachari, A. P. Rendell, J. C. Burant, S. S. Iyengar, 
 J. Tomasi, M. Cossi, J. M. Millam, M. Klene, C. Adamo, R. Cammi, 
 J. W. Ochterski, R. L. Martin, K. Morokuma, O. Farkas, 
 J. B. Foresman, and D. J. Fox, Gaussian, Inc., Wallingford CT, 2016.
 
 ******************************************
 Gaussian 16:  ES64L-G16RevA.03 25-Dec-2016
                15-May-2020 
 ******************************************
 %chk=w32_79.chk
 %nproc=4
 Will use up to    4 processors via shared memory.
 %mem=1gb
 -----------------------------------------
 #p hf/6-31g** 5d 7f pop=npa charge nosymm
 -----------------------------------------
 1/18=10,28=-2,38=1,125=101,172=1/1;
 2/12=2,15=1,17=6,18=5,40=1/2;
 3/5=1,6=6,7=101,8=11,11=9,25=1,30=1/1,2,3;
 4//1;
 5/5=2,38=5/2;
 6/7=2,8=2,9=2,10=2,28=1,40=-1/1,7;
 99/5=1,9=1/99;
 Leave Link    1 at Fri May 15 22:36:21 2020, MaxMem=   134217728 cpu:               0.3 elap:               0.1
 (Enter /home/soft/g16/l101.exe)
 -------------
 Atom number=6
 -------------
 Symbolic Z-matrix:
 Charge =  0 Multiplicity = 1
 o                     8.80125  -12.42588  -6.49729 
 o                     10.55231  -9.06018  -7.76573 
 h                     9.05563  -11.74898  -5.87013 
 h                     8.9395   -13.2499  -6.03028 
 h                     10.02956  -9.45263  -7.06648 
 h                     10.05765  -8.28393  -8.02838 
 
 ITRead=  0  0  0  0  0  0
 MicOpt= -1 -1 -1 -1 -1 -1
 NAtoms=      6 NQM=        6 NQMF=       0 NMMI=      0 NMMIF=      0
                NMic=       0 NMicF=      0.
                    Isotopes and Nuclear Properties:
 (Nuclear quadrupole moments (NQMom) in fm**2, nuclear magnetic moments (NMagM)
  in nuclear magnetons)

  Atom         1           2           3           4           5           6
 IAtWgt=          16          16           1           1           1           1
 AtmWgt=  15.9949146  15.9949146   1.0078250   1.0078250   1.0078250   1.0078250
 NucSpn=           0           0           1           1           1           1
 AtZEff=  -0.0000000  -0.0000000  -0.0000000  -0.0000000  -0.0000000  -0.0000000
 NQMom=    0.0000000   0.0000000   0.0000000   0.0000000   0.0000000   0.0000000
 NMagM=    0.0000000   0.0000000   2.7928460   2.7928460   2.7928460   2.7928460
 AtZNuc=   8.0000000   8.0000000   1.0000000   1.0000000   1.0000000   1.0000000
 Background charge distribution read from input stream:
 Point Charges:
 XYZ=    8.3923  -11.8129  -11.2005 Q=   -1.0561 A=    0.0000 R=    0.0000 C=    0.0000
 XYZ=    8.1753  -12.5378  -10.6142 Q=    0.5233 A=    0.0000 R=    0.0000 C=    0.0000
 XYZ=    9.2522  -11.5141  -10.9045 Q=    0.5177 A=    0.0000 R=    0.0000 C=    0.0000
 XYZ=   10.7060  -10.8489  -10.0915 Q=   -1.0357 A=    0.0000 R=    0.0000 C=    0.0000
 XYZ=   11.5214  -11.3203   -9.9208 Q=    0.5206 A=    0.0000 R=    0.0000 C=    0.0000
 XYZ=   10.5678  -10.3169   -9.3078 Q=    0.5156 A=    0.0000 R=    0.0000 C=    0.0000
 XYZ=    8.6932  -14.0693   -9.5471 Q=   -1.0099 A=    0.0000 R=    0.0000 C=    0.0000
 XYZ=    8.2201  -13.7327   -8.7861 Q=    0.4999 A=    0.0000 R=    0.0000 C=    0.0000
 XYZ=    8.5528  -15.0157   -9.5178 Q=    0.5079 A=    0.0000 R=    0.0000 C=    0.0000
 XYZ=    7.2503   -9.8596  -13.1035 Q=   -1.0243 A=    0.0000 R=    0.0000 C=    0.0000
 XYZ=    7.1207  -10.2215  -13.9801 Q=    0.5152 A=    0.0000 R=    0.0000 C=    0.0000
 XYZ=    7.3415  -10.6267  -12.5383 Q=    0.5154 A=    0.0000 R=    0.0000 C=    0.0000
 XYZ=    5.5704  -12.7600  -10.7338 Q=   -1.0500 A=    0.0000 R=    0.0000 C=    0.0000
 XYZ=    4.6427  -12.8278  -10.5079 Q=    0.5214 A=    0.0000 R=    0.0000 C=    0.0000
 XYZ=    5.9838  -12.4052   -9.9468 Q=    0.5064 A=    0.0000 R=    0.0000 C=    0.0000
 XYZ=    6.9662   -9.2478  -10.2743 Q=   -1.0324 A=    0.0000 R=    0.0000 C=    0.0000
 XYZ=    6.9752   -9.8450  -11.0223 Q=    0.5142 A=    0.0000 R=    0.0000 C=    0.0000
 XYZ=    7.6844   -8.6385  -10.4451 Q=    0.5185 A=    0.0000 R=    0.0000 C=    0.0000
 XYZ=    6.9426  -11.8294   -8.3710 Q=   -1.0528 A=    0.0000 R=    0.0000 C=    0.0000
 XYZ=    7.4956  -12.0911   -7.6348 Q=    0.5210 A=    0.0000 R=    0.0000 C=    0.0000
 XYZ=    7.3075  -10.9928   -8.6597 Q=    0.5255 A=    0.0000 R=    0.0000 C=    0.0000
 XYZ=    9.7397  -14.5602  -13.0841 Q=   -1.0029 A=    0.0000 R=    0.0000 C=    0.0000
 XYZ=    9.4367  -13.9209  -12.4394 Q=    0.5215 A=    0.0000 R=    0.0000 C=    0.0000
 XYZ=   10.6527  -14.3230  -13.2466 Q=    0.4988 A=    0.0000 R=    0.0000 C=    0.0000
 XYZ=   10.0849   -9.6030  -13.6944 Q=   -1.0549 A=    0.0000 R=    0.0000 C=    0.0000
 XYZ=    9.8380   -9.8779  -14.5774 Q=    0.5180 A=    0.0000 R=    0.0000 C=    0.0000
 XYZ=    9.2671   -9.6284  -13.1976 Q=    0.5226 A=    0.0000 R=    0.0000 C=    0.0000
 XYZ=    9.4738   -7.9972  -10.9180 Q=   -0.9971 A=    0.0000 R=    0.0000 C=    0.0000
 XYZ=    9.9975   -8.7956  -10.8516 Q=    0.5301 A=    0.0000 R=    0.0000 C=    0.0000
 XYZ=    9.6234   -7.5424  -10.0892 Q=    0.4920 A=    0.0000 R=    0.0000 C=    0.0000
 XYZ=    8.4516  -10.6356  -15.6859 Q=   -1.0322 A=    0.0000 R=    0.0000 C=    0.0000
 XYZ=    8.1250  -10.4069  -16.5562 Q=    0.4798 A=    0.0000 R=    0.0000 C=    0.0000
 XYZ=    9.2622  -11.1166  -15.8526 Q=    0.5341 A=    0.0000 R=    0.0000 C=    0.0000
 XYZ=    4.0391  -11.2243  -12.8044 Q=   -0.9921 A=    0.0000 R=    0.0000 C=    0.0000
 XYZ=    4.5248  -12.0476  -12.7552 Q=    0.4802 A=    0.0000 R=    0.0000 C=    0.0000
 XYZ=    4.4321  -10.7575  -13.5420 Q=    0.5046 A=    0.0000 R=    0.0000 C=    0.0000
 XYZ=    5.5848  -15.5922  -11.4699 Q=   -1.0129 A=    0.0000 R=    0.0000 C=    0.0000
 XYZ=    4.6785  -15.3483  -11.6582 Q=    0.5050 A=    0.0000 R=    0.0000 C=    0.0000
 XYZ=    6.0031  -14.7735  -11.2032 Q=    0.5257 A=    0.0000 R=    0.0000 C=    0.0000
 XYZ=    8.4919  -14.1596  -15.7110 Q=   -0.9823 A=    0.0000 R=    0.0000 C=    0.0000
 XYZ=    8.8439  -15.0437  -15.8144 Q=    0.4799 A=    0.0000 R=    0.0000 C=    0.0000
 XYZ=    8.9183  -13.8221  -14.9233 Q=    0.4950 A=    0.0000 R=    0.0000 C=    0.0000
 XYZ=   10.6752  -11.9252  -15.8192 Q=   -0.9837 A=    0.0000 R=    0.0000 C=    0.0000
 XYZ=   11.1454  -12.2597  -15.0555 Q=    0.5055 A=    0.0000 R=    0.0000 C=    0.0000
 XYZ=   10.7694  -12.6123  -16.4789 Q=    0.5125 A=    0.0000 R=    0.0000 C=    0.0000
 XYZ=    7.7593  -16.5050  -13.2460 Q=   -1.0112 A=    0.0000 R=    0.0000 C=    0.0000
 XYZ=    7.3079  -16.2111  -12.4547 Q=    0.4926 A=    0.0000 R=    0.0000 C=    0.0000
 XYZ=    8.5373  -15.9498  -13.2987 Q=    0.4973 A=    0.0000 R=    0.0000 C=    0.0000
 XYZ=   13.4576  -11.7733   -9.7740 Q=   -0.9993 A=    0.0000 R=    0.0000 C=    0.0000
 XYZ=   13.9089  -10.9962  -10.1037 Q=    0.5128 A=    0.0000 R=    0.0000 C=    0.0000
 XYZ=   14.1508  -12.4236   -9.6612 Q=    0.5076 A=    0.0000 R=    0.0000 C=    0.0000
 XYZ=    5.5914  -15.5335   -8.7002 Q=   -1.0162 A=    0.0000 R=    0.0000 C=    0.0000
 XYZ=    6.3093  -16.0707   -8.3652 Q=    0.4831 A=    0.0000 R=    0.0000 C=    0.0000
 XYZ=    5.4763  -15.8239   -9.6050 Q=    0.5237 A=    0.0000 R=    0.0000 C=    0.0000
 XYZ=    5.3398  -11.2122  -15.4745 Q=   -0.9760 A=    0.0000 R=    0.0000 C=    0.0000
 XYZ=    5.8801  -10.4587  -15.7120 Q=    0.4863 A=    0.0000 R=    0.0000 C=    0.0000
 XYZ=    5.4896  -11.8457  -16.1763 Q=    0.4965 A=    0.0000 R=    0.0000 C=    0.0000
 XYZ=   12.9960  -14.7139  -11.2100 Q=   -0.9778 A=    0.0000 R=    0.0000 C=    0.0000
 XYZ=   12.2864  -15.1619  -10.7497 Q=    0.5059 A=    0.0000 R=    0.0000 C=    0.0000
 XYZ=   13.6357  -14.5124  -10.5270 Q=    0.4638 A=    0.0000 R=    0.0000 C=    0.0000
 XYZ=    4.6413   -8.1383  -12.6711 Q=   -0.9897 A=    0.0000 R=    0.0000 C=    0.0000
 XYZ=    4.5978   -7.2720  -12.2662 Q=    0.4876 A=    0.0000 R=    0.0000 C=    0.0000
 XYZ=    5.5765   -8.3384  -12.7100 Q=    0.4969 A=    0.0000 R=    0.0000 C=    0.0000
 XYZ=    8.9611  -17.0167   -9.2755 Q=   -0.9921 A=    0.0000 R=    0.0000 C=    0.0000
 XYZ=    8.6736  -17.2191   -8.3852 Q=    0.5092 A=    0.0000 R=    0.0000 C=    0.0000
 XYZ=    8.3026  -17.4234   -9.8386 Q=    0.5103 A=    0.0000 R=    0.0000 C=    0.0000
 XYZ=   12.8900   -9.6906  -13.7511 Q=   -0.9984 A=    0.0000 R=    0.0000 C=    0.0000
 XYZ=   13.4884   -9.8459  -13.0204 Q=    0.4670 A=    0.0000 R=    0.0000 C=    0.0000
 XYZ=   12.0171   -9.7427  -13.3618 Q=    0.5160 A=    0.0000 R=    0.0000 C=    0.0000
 XYZ=    4.9070   -7.9100   -9.1300 Q=   -1.0105 A=    0.0000 R=    0.0000 C=    0.0000
 XYZ=    4.0635   -8.0265   -9.5674 Q=    0.4764 A=    0.0000 R=    0.0000 C=    0.0000
 XYZ=    5.4227   -8.6710   -9.3968 Q=    0.5176 A=    0.0000 R=    0.0000 C=    0.0000
 XYZ=    2.9547  -12.7024   -9.8757 Q=   -0.9915 A=    0.0000 R=    0.0000 C=    0.0000
 XYZ=    3.0641  -13.5048   -9.3654 Q=    0.5019 A=    0.0000 R=    0.0000 C=    0.0000
 XYZ=    2.7384  -12.0329   -9.2268 Q=    0.5105 A=    0.0000 R=    0.0000 C=    0.0000
 XYZ=    4.2108  -13.3306   -7.5546 Q=   -1.0293 A=    0.0000 R=    0.0000 C=    0.0000
 XYZ=    4.9638  -12.7453   -7.4735 Q=    0.4979 A=    0.0000 R=    0.0000 C=    0.0000
 XYZ=    4.5835  -14.1618   -7.8486 Q=    0.5197 A=    0.0000 R=    0.0000 C=    0.0000
 XYZ=    8.5389   -6.2611  -12.9484 Q=   -1.0019 A=    0.0000 R=    0.0000 C=    0.0000
 XYZ=    8.8800   -6.8491  -12.2745 Q=    0.5098 A=    0.0000 R=    0.0000 C=    0.0000
 XYZ=    9.2767   -6.1230  -13.5423 Q=    0.4773 A=    0.0000 R=    0.0000 C=    0.0000
 XYZ=   11.4715  -15.3553   -7.5180 Q=   -1.0197 A=    0.0000 R=    0.0000 C=    0.0000
 XYZ=   10.8644  -15.3558   -8.2581 Q=    0.4753 A=    0.0000 R=    0.0000 C=    0.0000
 XYZ=   11.9075  -14.5045   -7.5658 Q=    0.5146 A=    0.0000 R=    0.0000 C=    0.0000
 XYZ=   12.8138  -13.0185   -7.3663 Q=   -0.9959 A=    0.0000 R=    0.0000 C=    0.0000
 XYZ=   12.4819  -12.4171   -6.6996 Q=    0.4994 A=    0.0000 R=    0.0000 C=    0.0000
 XYZ=   12.6552  -12.5682   -8.1960 Q=    0.5110 A=    0.0000 R=    0.0000 C=    0.0000
 XYZ=   11.3245  -17.0116  -10.7628 Q=   -1.0019 A=    0.0000 R=    0.0000 C=    0.0000
 XYZ=   11.7165  -17.8633  -10.5702 Q=    0.4876 A=    0.0000 R=    0.0000 C=    0.0000
 XYZ=   10.4428  -17.0644  -10.3939 Q=    0.5095 A=    0.0000 R=    0.0000 C=    0.0000
 Pt Chg Charge=             -0.0378 electrons
 Pt Chg Dipole moment (Debye):
    X=             16.5170    Y=             -5.5779    Z=             13.7049  Tot=             22.1754
 Pt Chg Quadrupole moment (Debye-Ang):
   XX=            277.8739   YY=            153.8474   ZZ=           -240.2967
   XY=           -214.9717   XZ=            -77.3335   YZ=            -77.4021
 Pt Chg Traceless Quadrupole moment (Debye-Ang):
   XX=            214.0657   YY=             90.0392   ZZ=           -304.1049
   XY=           -214.9717   XZ=            -77.3335   YZ=            -77.4021
 Pt Chg Octapole moment (Debye-Ang**2):
  XXX=           3840.4293  YYY=          -3172.6691  ZZZ=           2920.0062  XYY=           2785.5227
  XXY=          -3072.6573  XXZ=          -2034.1412  XZZ=             52.1711  YZZ=           1943.7506
  YYZ=            141.8578  XYZ=           1303.8100
 Pt Chg Hexadecapole moment (Debye-Ang**3):
 XXXX=          52554.0144 YYYY=          62629.4755 ZZZZ=         -22031.7369 XXXY=         -40018.8107
 XXXZ=         -31438.1197 YYYX=         -38508.2080 YYYZ=           7751.9513 ZZZX=           2167.7260
 ZZZY=         -25231.2414 XXYY=          34248.4461 XXZZ=          13735.7899 YYZZ=         -17168.4937
 XXYZ=          25265.6955 YYXZ=         -18730.8108 ZZXY=          -6510.5930
 Leave Link  101 at Fri May 15 22:36:22 2020, MaxMem=   134217728 cpu:               0.6 elap:               0.2
 (Enter /home/soft/g16/l202.exe)
                          Input orientation:                          
 ---------------------------------------------------------------------
 Center     Atomic      Atomic             Coordinates (Angstroms)
 Number     Number       Type             X           Y           Z
 ---------------------------------------------------------------------
      1          8           0        8.801253  -12.425877   -6.497294
      2          8           0       10.552310   -9.060178   -7.765728
      3          1           0        9.055634  -11.748983   -5.870127
      4          1           0        8.939496  -13.249901   -6.030278
      5          1           0       10.029560   -9.452633   -7.066484
      6          1           0       10.057649   -8.283933   -8.028378
 ---------------------------------------------------------------------
                    Distance matrix (angstroms):
                    1          2          3          4          5
     1  O    0.000000
     2  O    4.000382   0.000000
     3  H    0.957201   3.614279   0.000000
     4  H    0.957199   4.813183   1.513899   0.000000
     5  H    3.266940   0.957199   2.766410   4.084263   0.000000
     6  H    4.591127   0.957199   4.203410   5.468410   1.513899
                    6
     6  H    0.000000
 Symmetry turned off by external request.
 Stoichiometry    H4O2
 Framework group  C1[X(H4O2)]
 Deg. of freedom    12
 Full point group                 C1      NOp   1
 Rotational constants (GHZ):         284.0114572           3.4387127           3.4376405
 Leave Link  202 at Fri May 15 22:36:22 2020, MaxMem=   134217728 cpu:               0.0 elap:               0.0
 (Enter /home/soft/g16/l301.exe)
 Standard basis: 6-31G(d,p) (5D, 7F)
 Ernie: Thresh=  0.10000D-02 Tol=  0.10000D-05 Strict=F.
    48 basis functions,    84 primitive gaussians,    50 cartesian basis functions
    10 alpha electrons       10 beta electrons
       nuclear repulsion energy        31.6682476524 Hartrees.
 IExCor=    0 DFT=F Ex=HF Corr=None ExCW=0 ScaHFX=  1.000000
 ScaDFX=  1.000000  1.000000  1.000000  1.000000 ScalE2=  1.000000  1.000000
 IRadAn=      5 IRanWt=     -1 IRanGd=            0 ICorTp=0 IEmpDi=  4
 NAtoms=    6 NActive=    6 NUniq=    6 SFac= 1.00D+00 NAtFMM=   60 NAOKFM=F Big=F
 Integral buffers will be    131072 words long.
 Raffenetti 1 integral format.
 Two-electron integral symmetry is turned off.
 Background charge distribution read from rwf.
 PtFMM for NChg=        96 BoxLen=    40.00 Levels= 1 LMax=20 SMax=    22.2 ICnFMM=     1:
 Self energy of the charges =       -14.6500613659 a.u.
 MM   energy of the charges =         0.0000000000 a.u.
 Nuclei-charges interaction =         1.9730733205 a.u.
 Nuclear repulsion after external point charges =       18.9912596069 Hartrees.
 Leave Link  301 at Fri May 15 22:36:22 2020, MaxMem=   134217728 cpu:               0.2 elap:               0.1
 (Enter /home/soft/g16/l302.exe)
 NPDir=0 NMtPBC=     1 NCelOv=     1 NCel=       1 NClECP=     1 NCelD=      1
         NCelK=      1 NCelE2=     1 NClLst=     1 CellRange=     0.0.
 One-electron integrals computed using PRISM.
 NBasis=    48 RedAO= T EigKep=  3.85D-02  NBF=    48
 NBsUse=    48 1.00D-06 EigRej= -1.00D+00 NBFU=    48
 Leave Link  302 at Fri May 15 22:36:22 2020, MaxMem=   134217728 cpu:               0.5 elap:               0.1
 (Enter /home/soft/g16/l303.exe)
 DipDrv:  MaxL=1.
 Leave Link  303 at Fri May 15 22:36:22 2020, MaxMem=   134217728 cpu:               0.1 elap:               0.0
 (Enter /home/soft/g16/l401.exe)
 ExpMin= 1.61D-01 ExpMax= 5.48D+03 ExpMxC= 8.25D+02 IAcc=3 IRadAn=         5 AccDes= 0.00D+00
 Harris functional with IExCor=  205 and IRadAn=       5 diagonalized for initial guess.
 HarFok:  IExCor=  205 AccDes= 0.00D+00 IRadAn=         5 IDoV= 1 UseB2=F ITyADJ=14
 ICtDFT=  3500011 ScaDFX=  1.000000  1.000000  1.000000  1.000000
 FoFCou: FMM=F IPFlag=           0 FMFlag=      100000 FMFlg1=           0
         NFxFlg=           0 DoJE=T BraDBF=F KetDBF=T FulRan=T
         wScrn=  0.000000 ICntrl=       500 IOpCl=  0 I1Cent=   200000004 NGrid=           0
         NMat0=    1 NMatS0=      1 NMatT0=    0 NMatD0=    1 NMtDS0=    0 NMtDT0=    0
 Symmetry not used in FoFCou.
 Harris En= -166.922938509050    
 JPrj=0 DoOrth=F DoCkMO=F.
 Leave Link  401 at Fri May 15 22:36:22 2020, MaxMem=   134217728 cpu:               0.9 elap:               0.3
 (Enter /home/soft/g16/l502.exe)
 Keep R1 ints in memory in canonical form, NReq=1529474.
 FoFCou: FMM=F IPFlag=           0 FMFlag=           0 FMFlg1=           0
         NFxFlg=           0 DoJE=F BraDBF=F KetDBF=F FulRan=T
         wScrn=  0.000000 ICntrl=       600 IOpCl=  0 I1Cent=           0 NGrid=           0
         NMat0=    1 NMatS0=   1176 NMatT0=    0 NMatD0=    1 NMtDS0=    0 NMtDT0=    0
 Symmetry not used in FoFCou.
 Two-electron integral symmetry not used.
 Closed shell SCF:
 Using DIIS extrapolation, IDIIS=  1040.
 NGot=   134217728 LenX=   133519768 LenY=   133516827
 Requested convergence on RMS density matrix=1.00D-08 within 128 cycles.
 Requested convergence on MAX density matrix=1.00D-06.
 Requested convergence on             energy=1.00D-06.
 No special actions if energy rises.

 Cycle   1  Pass 1  IDiag  1:
 E= -166.558377376696    
 DIIS: error= 6.35D-02 at cycle   1 NSaved=   1.
 NSaved= 1 IEnMin= 1 EnMin= -166.558377376696     IErMin= 1 ErrMin= 6.35D-02
 ErrMax= 6.35D-02  0.00D+00 EMaxC= 1.00D-01 BMatC= 2.57D-01 BMatP= 2.57D-01
 IDIUse=3 WtCom= 3.65D-01 WtEn= 6.35D-01
 Coeff-Com:  0.100D+01
 Coeff-En:   0.100D+01
 Coeff:      0.100D+01
 Gap=     0.568 Goal=   None    Shift=    0.000
 GapD=    0.568 DampG=2.000 DampE=0.500 DampFc=1.0000 IDamp=-1.
 RMSDP=8.67D-03 MaxDP=1.23D-01              OVMax= 1.31D-01

 Cycle   2  Pass 1  IDiag  1:
 E= -166.678352746812     Delta-E=       -0.119975370116 Rises=F Damp=F
 DIIS: error= 3.28D-02 at cycle   2 NSaved=   2.
 NSaved= 2 IEnMin= 2 EnMin= -166.678352746812     IErMin= 2 ErrMin= 3.28D-02
 ErrMax= 3.28D-02  0.00D+00 EMaxC= 1.00D-01 BMatC= 8.18D-02 BMatP= 2.57D-01
 IDIUse=3 WtCom= 6.72D-01 WtEn= 3.28D-01
 Coeff-Com:  0.350D+00 0.650D+00
 Coeff-En:   0.913D-01 0.909D+00
 Coeff:      0.265D+00 0.735D+00
 Gap=     0.705 Goal=   None    Shift=    0.000
 RMSDP=3.91D-03 MaxDP=5.49D-02 DE=-1.20D-01 OVMax= 4.71D-02

 Cycle   3  Pass 1  IDiag  1:
 E= -166.732435516086     Delta-E=       -0.054082769274 Rises=F Damp=F
 DIIS: error= 6.65D-03 at cycle   3 NSaved=   3.
 NSaved= 3 IEnMin= 3 EnMin= -166.732435516086     IErMin= 3 ErrMin= 6.65D-03
 ErrMax= 6.65D-03  0.00D+00 EMaxC= 1.00D-01 BMatC= 2.13D-03 BMatP= 8.18D-02
 IDIUse=3 WtCom= 9.33D-01 WtEn= 6.65D-02
 Coeff-Com: -0.319D-01 0.958D-01 0.936D+00
 Coeff-En:   0.000D+00 0.000D+00 0.100D+01
 Coeff:     -0.298D-01 0.894D-01 0.940D+00
 Gap=     0.690 Goal=   None    Shift=    0.000
 RMSDP=5.60D-04 MaxDP=8.67D-03 DE=-5.41D-02 OVMax= 9.66D-03

 Cycle   4  Pass 1  IDiag  1:
 E= -166.734082401025     Delta-E=       -0.001646884939 Rises=F Damp=F
 DIIS: error= 6.24D-04 at cycle   4 NSaved=   4.
 NSaved= 4 IEnMin= 4 EnMin= -166.734082401025     IErMin= 4 ErrMin= 6.24D-04
 ErrMax= 6.24D-04  0.00D+00 EMaxC= 1.00D-01 BMatC= 1.83D-05 BMatP= 2.13D-03
 IDIUse=3 WtCom= 9.94D-01 WtEn= 6.24D-03
 Coeff-Com:  0.638D-02-0.466D-01-0.284D+00 0.132D+01
 Coeff-En:   0.000D+00 0.000D+00 0.000D+00 0.100D+01
 Coeff:      0.634D-02-0.463D-01-0.283D+00 0.132D+01
 Gap=     0.692 Goal=   None    Shift=    0.000
 RMSDP=1.03D-04 MaxDP=1.27D-03 DE=-1.65D-03 OVMax= 1.63D-03

 Cycle   5  Pass 1  IDiag  1:
 E= -166.734108940750     Delta-E=       -0.000026539725 Rises=F Damp=F
 DIIS: error= 8.89D-05 at cycle   5 NSaved=   5.
 NSaved= 5 IEnMin= 5 EnMin= -166.734108940750     IErMin= 5 ErrMin= 8.89D-05
 ErrMax= 8.89D-05  0.00D+00 EMaxC= 1.00D-01 BMatC= 3.23D-07 BMatP= 1.83D-05
 IDIUse=1 WtCom= 1.00D+00 WtEn= 0.00D+00
 Coeff-Com:  0.480D-03 0.260D-03-0.523D-02-0.115D+00 0.112D+01
 Coeff:      0.480D-03 0.260D-03-0.523D-02-0.115D+00 0.112D+01
 Gap=     0.692 Goal=   None    Shift=    0.000
 RMSDP=2.11D-05 MaxDP=2.56D-04 DE=-2.65D-05 OVMax= 3.51D-04

 Cycle   6  Pass 1  IDiag  1:
 E= -166.734109652266     Delta-E=       -0.000000711516 Rises=F Damp=F
 DIIS: error= 2.11D-05 at cycle   6 NSaved=   6.
 NSaved= 6 IEnMin= 6 EnMin= -166.734109652266     IErMin= 6 ErrMin= 2.11D-05
 ErrMax= 2.11D-05  0.00D+00 EMaxC= 1.00D-01 BMatC= 2.20D-08 BMatP= 3.23D-07
 IDIUse=1 WtCom= 1.00D+00 WtEn= 0.00D+00
 Coeff-Com: -0.221D-03 0.177D-02 0.110D-01-0.566D-01 0.737D-02 0.104D+01
 Coeff:     -0.221D-03 0.177D-02 0.110D-01-0.566D-01 0.737D-02 0.104D+01
 Gap=     0.693 Goal=   None    Shift=    0.000
 RMSDP=5.00D-06 MaxDP=5.29D-05 DE=-7.12D-07 OVMax= 8.25D-05

 Cycle   7  Pass 1  IDiag  1:
 E= -166.734109688917     Delta-E=       -0.000000036651 Rises=F Damp=F
 DIIS: error= 5.52D-06 at cycle   7 NSaved=   7.
 NSaved= 7 IEnMin= 7 EnMin= -166.734109688917     IErMin= 7 ErrMin= 5.52D-06
 ErrMax= 5.52D-06  0.00D+00 EMaxC= 1.00D-01 BMatC= 3.18D-09 BMatP= 2.20D-08
 IDIUse=1 WtCom= 1.00D+00 WtEn= 0.00D+00
 Coeff-Com: -0.987D-04 0.376D-03 0.304D-02-0.107D-02-0.115D+00 0.252D+00
 Coeff-Com:  0.861D+00
 Coeff:     -0.987D-04 0.376D-03 0.304D-02-0.107D-02-0.115D+00 0.252D+00
 Coeff:      0.861D+00
 Gap=     0.693 Goal=   None    Shift=    0.000
 RMSDP=1.35D-06 MaxDP=1.90D-05 DE=-3.67D-08 OVMax= 2.77D-05

 Cycle   8  Pass 1  IDiag  1:
 E= -166.734109692751     Delta-E=       -0.000000003834 Rises=F Damp=F
 DIIS: error= 1.66D-06 at cycle   8 NSaved=   8.
 NSaved= 8 IEnMin= 8 EnMin= -166.734109692751     IErMin= 8 ErrMin= 1.66D-06
 ErrMax= 1.66D-06  0.00D+00 EMaxC= 1.00D-01 BMatC= 1.20D-10 BMatP= 3.18D-09
 IDIUse=1 WtCom= 1.00D+00 WtEn= 0.00D+00
 Coeff-Com:  0.440D-04-0.231D-03-0.168D-02 0.408D-02 0.392D-01-0.145D+00
 Coeff-Com: -0.282D+00 0.139D+01
 Coeff:      0.440D-04-0.231D-03-0.168D-02 0.408D-02 0.392D-01-0.145D+00
 Coeff:     -0.282D+00 0.139D+01
 Gap=     0.693 Goal=   None    Shift=    0.000
 RMSDP=3.74D-07 MaxDP=6.08D-06 DE=-3.83D-09 OVMax= 6.69D-06

 Cycle   9  Pass 1  IDiag  1:
 E= -166.734109693023     Delta-E=       -0.000000000273 Rises=F Damp=F
 DIIS: error= 2.37D-07 at cycle   9 NSaved=   9.
 NSaved= 9 IEnMin= 9 EnMin= -166.734109693023     IErMin= 9 ErrMin= 2.37D-07
 ErrMax= 2.37D-07  0.00D+00 EMaxC= 1.00D-01 BMatC= 2.60D-12 BMatP= 1.20D-10
 IDIUse=1 WtCom= 1.00D+00 WtEn= 0.00D+00
 Coeff-Com: -0.951D-05 0.563D-04 0.403D-03-0.133D-02-0.669D-02 0.327D-01
 Coeff-Com:  0.507D-01-0.386D+00 0.131D+01
 Coeff:     -0.951D-05 0.563D-04 0.403D-03-0.133D-02-0.669D-02 0.327D-01
 Coeff:      0.507D-01-0.386D+00 0.131D+01
 Gap=     0.693 Goal=   None    Shift=    0.000
 RMSDP=6.42D-08 MaxDP=6.17D-07 DE=-2.73D-10 OVMax= 1.20D-06

 Cycle  10  Pass 1  IDiag  1:
 E= -166.734109693030     Delta-E=       -0.000000000007 Rises=F Damp=F
 DIIS: error= 2.78D-08 at cycle  10 NSaved=  10.
 NSaved=10 IEnMin=10 EnMin= -166.734109693030     IErMin=10 ErrMin= 2.78D-08
 ErrMax= 2.78D-08  0.00D+00 EMaxC= 1.00D-01 BMatC= 6.48D-14 BMatP= 2.60D-12
 IDIUse=1 WtCom= 1.00D+00 WtEn= 0.00D+00
 Coeff-Com:  0.161D-05-0.104D-04-0.733D-04 0.288D-03 0.878D-03-0.576D-02
 Coeff-Com: -0.706D-02 0.773D-01-0.404D+00 0.134D+01
 Coeff:      0.161D-05-0.104D-04-0.733D-04 0.288D-03 0.878D-03-0.576D-02
 Coeff:     -0.706D-02 0.773D-01-0.404D+00 0.134D+01
 Gap=     0.693 Goal=   None    Shift=    0.000
 RMSDP=1.47D-08 MaxDP=1.26D-07 DE=-6.71D-12 OVMax= 2.34D-07

 Cycle  11  Pass 1  IDiag  1:
 E= -166.734109693030     Delta-E=        0.000000000000 Rises=F Damp=F
 DIIS: error= 7.30D-09 at cycle  11 NSaved=  11.
 NSaved=11 IEnMin=10 EnMin= -166.734109693030     IErMin=11 ErrMin= 7.30D-09
 ErrMax= 7.30D-09  0.00D+00 EMaxC= 1.00D-01 BMatC= 2.09D-15 BMatP= 6.48D-14
 IDIUse=1 WtCom= 1.00D+00 WtEn= 0.00D+00
 Coeff-Com:  0.314D-07-0.198D-07-0.604D-07-0.112D-04 0.805D-04-0.386D-04
 Coeff-Com: -0.468D-03-0.171D-02 0.319D-01-0.233D+00 0.120D+01
 Coeff:      0.314D-07-0.198D-07-0.604D-07-0.112D-04 0.805D-04-0.386D-04
 Coeff:     -0.468D-03-0.171D-02 0.319D-01-0.233D+00 0.120D+01
 Gap=     0.693 Goal=   None    Shift=    0.000
 RMSDP=2.23D-09 MaxDP=2.91D-08 DE= 1.14D-13 OVMax= 4.99D-08

 SCF Done:  E(RHF) =  -166.734109693     A.U. after   11 cycles
            NFock= 11  Conv=0.22D-08     -V/T= 2.0984
 KE= 1.517918114063D+02 PE=-4.266364719461D+02 EE= 8.911929123983D+01
 Leave Link  502 at Fri May 15 22:36:22 2020, MaxMem=   134217728 cpu:               0.7 elap:               0.2
 (Enter /home/soft/g16/l601.exe)
 Copying SCF densities to generalized density rwf, IOpCl= 0 IROHF=0.

 **********************************************************************

            Population analysis using the SCF density.

 **********************************************************************

 Alpha  occ. eigenvalues --  -20.65591 -20.65092  -1.43725  -1.43236  -0.80049
 Alpha  occ. eigenvalues --   -0.79431  -0.67843  -0.66524  -0.59591  -0.59221
 Alpha virt. eigenvalues --    0.10033   0.15974   0.20931   0.27994   0.88708
 Alpha virt. eigenvalues --    0.94147   0.99324   1.02057   1.06352   1.06875
 Alpha virt. eigenvalues --    1.08623   1.09692   1.19540   1.22169   1.49025
 Alpha virt. eigenvalues --    1.55014   1.71074   1.71241   1.72870   1.73868
 Alpha virt. eigenvalues --    1.82264   1.83011   2.48641   2.49041   2.49580
 Alpha virt. eigenvalues --    2.50131   2.70947   2.72884   2.88591   2.88927
 Alpha virt. eigenvalues --    2.89892   2.90080   3.28178   3.28873   3.64475
 Alpha virt. eigenvalues --    3.68272   3.82965   3.84719
          Condensed to atoms (all electrons):
               1          2          3          4          5          6
     1  O    8.107154  -0.000069   0.315374   0.319107   0.000873  -0.000003
     2  O   -0.000069   8.088871   0.000097   0.000002   0.313004   0.314933
     3  H    0.315374   0.000097   0.345848  -0.024816   0.000287  -0.000003
     4  H    0.319107   0.000002  -0.024816   0.325630  -0.000030   0.000000
     5  H    0.000873   0.313004   0.000287  -0.000030   0.354229  -0.026078
     6  H   -0.000003   0.314933  -0.000003   0.000000  -0.026078   0.352915
 Mulliken charges:
               1
     1  O   -0.742435
     2  O   -0.716838
     3  H    0.363213
     4  H    0.380107
     5  H    0.357716
     6  H    0.358237
 Sum of Mulliken charges =   0.00000
 Mulliken charges with hydrogens summed into heavy atoms:
               1
     1  O    0.000885
     2  O   -0.000885
 Electronic spatial extent (au):  <R**2>=          18804.7161
 Charge=              0.0000 electrons
 Dipole moment (field-independent basis, Debye):
    X=             -1.1128    Y=              0.4388    Z=              3.2580  Tot=              3.4707
 Quadrupole moment (field-independent basis, Debye-Ang):
   XX=            -39.2766   YY=            -14.3363   ZZ=            -55.9536
   XY=             12.1697   XZ=             40.0388   YZ=            -42.4165
 Traceless Quadrupole moment (field-independent basis, Debye-Ang):
   XX=             -2.7545   YY=             22.1859   ZZ=            -19.4314
   XY=             12.1697   XZ=             40.0388   YZ=            -42.4165
 Octapole moment (field-independent basis, Debye-Ang**2):
  XXX=           -826.8506  YYY=            308.1777  ZZZ=            704.1221  XYY=           -185.5738
  XXY=            383.1010  XXZ=            597.0958  XZZ=           -608.9750  YZZ=            679.1283
  YYZ=            575.3081  XYZ=           -469.6369
 Hexadecapole moment (field-independent basis, Debye-Ang**3):
 XXXX=         -14044.9368 YYYY=          -5625.6067 ZZZZ=          -7776.5639 XXXY=           8026.4325
 XXXZ=           9057.6264 YYYX=           3077.3890 YYYZ=          -7882.7591 ZZZX=           7382.2144
 ZZZY=          -8227.5683 XXYY=          -4315.8966 XXZZ=          -7478.5215 YYZZ=          -8481.5324
 XXYZ=          -6453.7975 YYXZ=           5894.7315 ZZXY=           7026.5436
 N-N= 1.899125960694D+01 E-N=-4.266364720321D+02  KE= 1.517918114063D+02
 No NMR shielding tensors so no spin-rotation constants.
 Leave Link  601 at Fri May 15 22:36:23 2020, MaxMem=   134217728 cpu:               0.4 elap:               0.1
 (Enter /home/soft/g16/l607.exe)
 ******************************Gaussian NBO Version 3.1******************************
             N A T U R A L   A T O M I C   O R B I T A L   A N D
          N A T U R A L   B O N D   O R B I T A L   A N A L Y S I S
 ******************************Gaussian NBO Version 3.1******************************
       /RESON  / : Allow strongly delocalized NBO set

 Analyzing the SCF density

 Job title: Atom number=6                                                   

 Storage needed:      7158 in NPA ( 134217512 available)
 GSVD:  LWork=         960 too small for GESVD, short by        1512 words or        1512 for optimal perf.


 NATURAL POPULATIONS:  Natural atomic orbital occupancies 
                                                          
   NAO  Atom  No  lang   Type(AO)    Occupancy      Energy
 ----------------------------------------------------------
     1    O    1  S      Cor( 1S)     1.99986     -20.49439
     2    O    1  S      Val( 2S)     1.75648      -1.25652
     3    O    1  S      Ryd( 3S)     0.00112       1.59142
     4    O    1  px     Val( 2p)     1.96640      -0.58628
     5    O    1  px     Ryd( 3p)     0.00064       1.06635
     6    O    1  py     Val( 2p)     1.50693      -0.42886
     7    O    1  py     Ryd( 3p)     0.00212       1.20631
     8    O    1  pz     Val( 2p)     1.78039      -0.53432
     9    O    1  pz     Ryd( 3p)     0.00038       1.09285
    10    O    1  dxy    Ryd( 3d)     0.00018       2.29147
    11    O    1  dxz    Ryd( 3d)     0.00149       2.21741
    12    O    1  dyz    Ryd( 3d)     0.00159       2.98534
    13    O    1  dx2y2  Ryd( 3d)     0.00044       2.53021
    14    O    1  dz2    Ryd( 3d)     0.00158       2.26303

    15    O    2  S      Cor( 1S)     1.99986     -20.48881
    16    O    2  S      Val( 2S)     1.75708      -1.24856
    17    O    2  S      Ryd( 3S)     0.00118       1.60319
    18    O    2  px     Val( 2p)     1.80498      -0.52998
    19    O    2  px     Ryd( 3p)     0.00018       1.10516
    20    O    2  py     Val( 2p)     1.66850      -0.47828
    21    O    2  py     Ryd( 3p)     0.00161       1.15986
    22    O    2  pz     Val( 2p)     1.75716      -0.50978
    23    O    2  pz     Ryd( 3p)     0.00133       1.13283
    24    O    2  dxy    Ryd( 3d)     0.00175       2.64768
    25    O    2  dxz    Ryd( 3d)     0.00185       2.54568
    26    O    2  dyz    Ryd( 3d)     0.00036       2.47954
    27    O    2  dx2y2  Ryd( 3d)     0.00134       2.30860
    28    O    2  dz2    Ryd( 3d)     0.00076       2.35047

    29    H    3  S      Val( 1S)     0.49374       0.25360
    30    H    3  S      Ryd( 2S)     0.00086       0.65283
    31    H    3  px     Ryd( 2p)     0.00092       2.55439
    32    H    3  py     Ryd( 2p)     0.00093       2.94690
    33    H    3  pz     Ryd( 2p)     0.00113       2.87045

    34    H    4  S      Val( 1S)     0.47900       0.27582
    35    H    4  S      Ryd( 2S)     0.00071       0.63407
    36    H    4  px     Ryd( 2p)     0.00081       2.52504
    37    H    4  py     Ryd( 2p)     0.00126       3.12955
    38    H    4  pz     Ryd( 2p)     0.00088       2.72875

    39    H    5  S      Val( 1S)     0.49759       0.25427
    40    H    5  S      Ryd( 2S)     0.00108       0.66302
    41    H    5  px     Ryd( 2p)     0.00103       2.77048
    42    H    5  py     Ryd( 2p)     0.00073       2.67734
    43    H    5  pz     Ryd( 2p)     0.00128       2.94473

    44    H    6  S      Val( 1S)     0.49648       0.25445
    45    H    6  S      Ryd( 2S)     0.00098       0.63451
    46    H    6  px     Ryd( 2p)     0.00100       2.74214
    47    H    6  py     Ryd( 2p)     0.00138       3.03973
    48    H    6  pz     Ryd( 2p)     0.00068       2.59315


 Summary of Natural Population Analysis:                  
                                                          
                                       Natural Population 
                Natural  -----------------------------------------------
    Atom  No    Charge         Core      Valence    Rydberg      Total
 -----------------------------------------------------------------------
      O    1   -1.01959      1.99986     7.01020    0.00953     9.01959
      O    2   -0.99795      1.99986     6.98772    0.01036     8.99795
      H    3    0.50242      0.00000     0.49374    0.00384     0.49758
      H    4    0.51734      0.00000     0.47900    0.00366     0.48266
      H    5    0.49830      0.00000     0.49759    0.00412     0.50170
      H    6    0.49948      0.00000     0.49648    0.00404     0.50052
 =======================================================================
   * Total *    0.00000      3.99973    15.96472    0.03555    20.00000

                                 Natural Population      
 --------------------------------------------------------
   Core                       3.99973 ( 99.9932% of   4)
   Valence                   15.96472 ( 99.7795% of  16)
   Natural Minimal Basis     19.96445 ( 99.8223% of  20)
   Natural Rydberg Basis      0.03555 (  0.1777% of  20)
 --------------------------------------------------------

    Atom  No          Natural Electron Configuration
 ----------------------------------------------------------------------------
      O    1      [core]2S( 1.76)2p( 5.25)3d( 0.01)
      O    2      [core]2S( 1.76)2p( 5.23)3d( 0.01)
      H    3            1S( 0.49)
      H    4            1S( 0.48)
      H    5            1S( 0.50)
      H    6            1S( 0.50)


 NBO analysis skipped by request.
 Leave Link  607 at Fri May 15 22:36:23 2020, MaxMem=   134217728 cpu:               0.5 elap:               0.2
 (Enter /home/soft/g16/l9999.exe)

 Test job not archived.
 1\1\GINC-MASTER\SP\RHF\6-31G(d,p)\H4O2\LIWEI01\15-May-2020\0\\#p hf/6-
 31g** 5d 7f pop=npa charge nosymm\\Atom number=6\\0,1\O,0,8.801253,-12
 .425877,-6.497294\O,0,10.55231,-9.060178,-7.765728\H,0,9.055634,-11.74
 8983,-5.870127\H,0,8.939496,-13.249901,-6.030278\H,0,10.02956,-9.45263
 3,-7.066484\H,0,10.057649,-8.283933,-8.028378\\Version=ES64L-G16RevA.0
 3\HF=-166.7341097\RMSD=2.227e-09\Dipole=-0.4377924,0.1726194,1.2818093
 \Quadrupole=-2.0478765,16.494658,-14.4467816,9.0478762,29.7678444,-31.
 5356395\PG=C01 [X(H4O2)]\\@


 A SLIP OF THE FOOT YOU MAY SOON RECOVER, BUT A SLIP OF THE TONGUE
 YOU MAY NEVER GET OVER. -- BEN FRANKLIN
 Job cpu time:       0 days  0 hours  0 minutes  4.5 seconds.
 Elapsed time:       0 days  0 hours  0 minutes  1.3 seconds.
 File lengths (MBytes):  RWF=     72 Int=      0 D2E=      0 Chk=      8 Scr=      8
 Normal termination of Gaussian 16 at Fri May 15 22:36:23 2020.
