Atom number=6                                                           
SP        RHF                                                         6-31G(d,p)          
Number of atoms                            I                6
Info1-9                                    I   N=           9
         107         106           0           0           0         111
           1           1           2
Full Title                                 C   N=           2
Atom number=6           
Route                                      C   N=           4
#p hf/6-31g** 5d 7f pop=npa charge nosymm       
Charge                                     I                0
Multiplicity                               I                1
Number of electrons                        I               20
Number of alpha electrons                  I               10
Number of beta electrons                   I               10
Number of basis functions                  I               48
Number of independent functions            I               48
Number of point charges in /Mol/           I                0
Number of translation vectors              I                0
Atomic numbers                             I   N=           6
           8           8           1           1           1           1
Nuclear charges                            R   N=           6
  8.00000000E+00  8.00000000E+00  1.00000000E+00  1.00000000E+00  1.00000000E+00
  1.00000000E+00
Current cartesian coordinates              R   N=          18
  2.45589393E+01 -2.78051467E+01 -2.11838979E+01  2.42145046E+01 -2.46013372E+01
 -1.39203349E+01  2.32179689E+01 -2.86518083E+01 -2.03139039E+01  2.57676610E+01
 -2.74243858E+01 -1.98931866E+01  2.35873725E+01 -2.34649901E+01 -1.26604337E+01
  2.39147676E+01 -2.37503916E+01 -1.54881292E+01
Number of symbols in /Mol/                 I                0
Force Field                                I                0
Atom Types                                 C   N=           6
                                                            
            
Int Atom Types                             I   N=           6
           0           0           0           0           0           0
MM charges                                 R   N=           6
  0.00000000E+00  0.00000000E+00  0.00000000E+00  0.00000000E+00  0.00000000E+00
  0.00000000E+00
Integer atomic weights                     I   N=           6
          16          16           1           1           1           1
Real atomic weights                        R   N=           6
  1.59949146E+01  1.59949146E+01  1.00782504E+00  1.00782504E+00  1.00782504E+00
  1.00782504E+00
Atom fragment info                         I   N=           6
           0           0           0           0           0           0
Atom residue num                           I   N=           6
           0           0           0           0           0           0
Nuclear spins                              I   N=           6
           0           0           1           1           1           1
Nuclear ZEff                               R   N=           6
 -5.60000000E+00 -5.60000000E+00 -1.00000000E+00 -1.00000000E+00 -1.00000000E+00
 -1.00000000E+00
Nuclear ZNuc                               R   N=           6
  8.00000000E+00  8.00000000E+00  1.00000000E+00  1.00000000E+00  1.00000000E+00
  1.00000000E+00
Nuclear QMom                               R   N=           6
  0.00000000E+00  0.00000000E+00  0.00000000E+00  0.00000000E+00  0.00000000E+00
  0.00000000E+00
Nuclear GFac                               R   N=           6
  0.00000000E+00  0.00000000E+00  2.79284600E+00  2.79284600E+00  2.79284600E+00
  2.79284600E+00
MicOpt                                     I   N=           6
          -1          -1          -1          -1          -1          -1
Number of residues                         I                0
Number of secondary structures             I                0
Number of contracted shells                I               20
Number of primitive shells                 I               42
Pure/Cartesian d shells                    I                0
Pure/Cartesian f shells                    I                0
Highest angular momentum                   I                2
Largest degree of contraction              I                6
Shell types                                I   N=          20
           0          -1          -1          -2           0          -1
          -1          -2           0           0           1           0
           0           1           0           0           1           0
           0           1
Number of primitives per shell             I   N=          20
           6           3           1           1           6           3
           1           1           3           1           1           3
           1           1           3           1           1           3
           1           1
Shell to atom map                          I   N=          20
           1           1           1           1           2           2
           2           2           3           3           3           4
           4           4           5           5           5           6
           6           6
Primitive exponents                        R   N=          42
  5.48467166E+03  8.25234946E+02  1.88046958E+02  5.29645000E+01  1.68975704E+01
  5.79963534E+00  1.55396162E+01  3.59993359E+00  1.01376175E+00  2.70005823E-01
  8.00000000E-01  5.48467166E+03  8.25234946E+02  1.88046958E+02  5.29645000E+01
  1.68975704E+01  5.79963534E+00  1.55396162E+01  3.59993359E+00  1.01376175E+00
  2.70005823E-01  8.00000000E-01  1.87311370E+01  2.82539436E+00  6.40121692E-01
  1.61277759E-01  1.10000000E+00  1.87311370E+01  2.82539436E+00  6.40121692E-01
  1.61277759E-01  1.10000000E+00  1.87311370E+01  2.82539436E+00  6.40121692E-01
  1.61277759E-01  1.10000000E+00  1.87311370E+01  2.82539436E+00  6.40121692E-01
  1.61277759E-01  1.10000000E+00
Contraction coefficients                   R   N=          42
  1.83107443E-03  1.39501722E-02  6.84450781E-02  2.32714336E-01  4.70192898E-01
  3.58520853E-01 -1.10777550E-01 -1.48026263E-01  1.13076702E+00  1.00000000E+00
  1.00000000E+00  1.83107443E-03  1.39501722E-02  6.84450781E-02  2.32714336E-01
  4.70192898E-01  3.58520853E-01 -1.10777550E-01 -1.48026263E-01  1.13076702E+00
  1.00000000E+00  1.00000000E+00  3.34946043E-02  2.34726953E-01  8.13757326E-01
  1.00000000E+00  1.00000000E+00  3.34946043E-02  2.34726953E-01  8.13757326E-01
  1.00000000E+00  1.00000000E+00  3.34946043E-02  2.34726953E-01  8.13757326E-01
  1.00000000E+00  1.00000000E+00  3.34946043E-02  2.34726953E-01  8.13757326E-01
  1.00000000E+00  1.00000000E+00
P(S=P) Contraction coefficients            R   N=          42
  0.00000000E+00  0.00000000E+00  0.00000000E+00  0.00000000E+00  0.00000000E+00
  0.00000000E+00  7.08742682E-02  3.39752839E-01  7.27158577E-01  1.00000000E+00
  0.00000000E+00  0.00000000E+00  0.00000000E+00  0.00000000E+00  0.00000000E+00
  0.00000000E+00  0.00000000E+00  7.08742682E-02  3.39752839E-01  7.27158577E-01
  1.00000000E+00  0.00000000E+00  0.00000000E+00  0.00000000E+00  0.00000000E+00
  0.00000000E+00  0.00000000E+00  0.00000000E+00  0.00000000E+00  0.00000000E+00
  0.00000000E+00  0.00000000E+00  0.00000000E+00  0.00000000E+00  0.00000000E+00
  0.00000000E+00  0.00000000E+00  0.00000000E+00  0.00000000E+00  0.00000000E+00
  0.00000000E+00  0.00000000E+00
Coordinates of each shell                  R   N=          60
  2.45589393E+01 -2.78051467E+01 -2.11838979E+01  2.45589393E+01 -2.78051467E+01
 -2.11838979E+01  2.45589393E+01 -2.78051467E+01 -2.11838979E+01  2.45589393E+01
 -2.78051467E+01 -2.11838979E+01  2.42145046E+01 -2.46013372E+01 -1.39203349E+01
  2.42145046E+01 -2.46013372E+01 -1.39203349E+01  2.42145046E+01 -2.46013372E+01
 -1.39203349E+01  2.42145046E+01 -2.46013372E+01 -1.39203349E+01  2.32179689E+01
 -2.86518083E+01 -2.03139039E+01  2.32179689E+01 -2.86518083E+01 -2.03139039E+01
  2.32179689E+01 -2.86518083E+01 -2.03139039E+01  2.57676610E+01 -2.74243858E+01
 -1.98931866E+01  2.57676610E+01 -2.74243858E+01 -1.98931866E+01  2.57676610E+01
 -2.74243858E+01 -1.98931866E+01  2.35873725E+01 -2.34649901E+01 -1.26604337E+01
  2.35873725E+01 -2.34649901E+01 -1.26604337E+01  2.35873725E+01 -2.34649901E+01
 -1.26604337E+01  2.39147676E+01 -2.37503916E+01 -1.54881292E+01  2.39147676E+01
 -2.37503916E+01 -1.54881292E+01  2.39147676E+01 -2.37503916E+01 -1.54881292E+01
Num ILSW                                   I              100
ILSW                                       I   N=         100
           0           0           0           0           2           0
           0           0           0           0           0          -1
           5           0           0           0           0           0
           0           0           0           0           0           0
           1           1           0           0           0           0
           0           0      100000           0          -1           0
           0           0           0           0           0           0
           0           0           0           1           0           0
           0 -2000000000           1           0           0           0
           0           0           4          52           0           0
           0           1           0           0           0           0
           0           0           0           6           0           1
           0           0           0           0           0           0
           0           0           0           0           0           0
           0           0           0           0           0           0
           0           0           0           0           0           0
           0           0           0           0
Num RLSW                                   I               52
RLSW                                       R   N=          52
  1.00000000E+00  1.00000000E+00  1.00000000E+00  1.00000000E+00  1.00000000E+00
  0.00000000E+00  0.00000000E+00  1.00000000E+00  0.00000000E+00  0.00000000E+00
  0.00000000E+00  0.00000000E+00  1.00000000E+00  0.00000000E+00  0.00000000E+00
  0.00000000E+00  0.00000000E+00  1.00000000E+00  0.00000000E+00  0.00000000E+00
  0.00000000E+00  0.00000000E+00  1.00000000E+00  0.00000000E+00  0.00000000E+00
  0.00000000E+00  0.00000000E+00  1.00000000E+00  0.00000000E+00  0.00000000E+00
  0.00000000E+00  0.00000000E+00  1.00000000E+00  0.00000000E+00  0.00000000E+00
  0.00000000E+00  0.00000000E+00  0.00000000E+00  1.00000000E+00  1.00000000E+00
  0.00000000E+00  1.00000000E+00  0.00000000E+00  0.00000000E+00  0.00000000E+00
  0.00000000E+00  0.00000000E+00  0.00000000E+00  0.00000000E+00  0.00000000E+00
  0.00000000E+00  0.00000000E+00
MxBond                                     I                2
NBond                                      I   N=           6
           2           2           1           1           1           1
IBond                                      I   N=          12
           3           4           5           6           1           0
           1           0           2           0           2           0
RBond                                      R   N=          12
  1.00000000E+00  1.00000000E+00  1.00000000E+00  1.00000000E+00  1.00000000E+00
  0.00000000E+00  1.00000000E+00  0.00000000E+00  1.00000000E+00  0.00000000E+00
  1.00000000E+00  0.00000000E+00
Virial Ratio                               R      2.098400715068407E+00
SCF Energy                                 R     -1.667382528599194E+02
Total Energy                               R     -1.667382528599194E+02
RMS Density                                R      3.117477580923942E-09
Job Status                                 I                1
Nuclear derivative order                   I                0
External E-field                           R   N=          35
  0.00000000E+00  0.00000000E+00  0.00000000E+00  0.00000000E+00  0.00000000E+00
  0.00000000E+00  0.00000000E+00  0.00000000E+00  0.00000000E+00  0.00000000E+00
  0.00000000E+00  0.00000000E+00  0.00000000E+00  0.00000000E+00  0.00000000E+00
  0.00000000E+00  0.00000000E+00  0.00000000E+00  0.00000000E+00  0.00000000E+00
  0.00000000E+00  0.00000000E+00  0.00000000E+00  0.00000000E+00  0.00000000E+00
  0.00000000E+00  0.00000000E+00  0.00000000E+00  0.00000000E+00  0.00000000E+00
  0.00000000E+00  0.00000000E+00  0.00000000E+00  0.00000000E+00  0.00000000E+00
IOpCl                                      I                0
IROHF                                      I                0
Alpha Orbital Energies                     R   N=          48
 -2.06163984E+01 -2.05560415E+01 -1.39864460E+00 -1.33823505E+00 -7.59393621E-01
 -7.00413686E-01 -6.31111194E-01 -5.70160058E-01 -5.60395722E-01 -4.95922893E-01
  1.63656135E-01  2.17589582E-01  2.89459567E-01  3.31388952E-01  9.47910165E-01
  1.00810433E+00  1.03723307E+00  1.09740475E+00  1.10608620E+00  1.13569102E+00
  1.16917838E+00  1.18894340E+00  1.24372368E+00  1.30195471E+00  1.54386809E+00
  1.60741518E+00  1.74668913E+00  1.77143911E+00  1.80690400E+00  1.83167352E+00
  1.86252008E+00  1.92624340E+00  2.52721299E+00  2.53515728E+00  2.58213461E+00
  2.59508401E+00  2.75733871E+00  2.81230852E+00  2.92303034E+00  2.93891313E+00
  2.97789636E+00  3.00205172E+00  3.32611814E+00  3.38231733E+00  3.69548360E+00
  3.75550900E+00  3.87496685E+00  3.93287920E+00
Alpha MO coefficients                      R   N=        2304
 -6.07594063E-06 -1.30253699E-05 -3.70966810E-06  5.18886848E-06  4.48291589E-06
  6.67812649E-05  2.98416450E-05 -5.93097979E-06  1.07471219E-05  4.42247183E-07
  6.87313407E-06  1.58276566E-07  1.20450714E-06  1.17180799E-06  9.95706594E-01
  2.19673951E-02 -9.47254907E-04  1.81896879E-03 -2.86823339E-04 -5.93123928E-03
  4.27515533E-04 -8.52810935E-04  1.32362509E-04  3.58890121E-04 -6.92777431E-05
  2.40755629E-05 -1.40594347E-04 -1.82048320E-04  8.13587337E-06 -9.09761885E-06
 -2.39026439E-06  2.06620784E-06  1.89838562E-06  9.83937056E-06 -8.96482027E-05
  9.95885341E-06  2.60378964E-06  1.00666570E-05 -5.14586648E-04  1.25965614E-03
 -4.19201271E-04  7.73168748E-04  7.62212581E-04 -5.18682101E-04  1.26861720E-03
 -2.17029826E-04  5.94083423E-04 -9.66568275E-04  9.95708280E-01  2.19669784E-02
 -8.12442871E-05 -3.65468089E-04  2.06585002E-03 -5.94022580E-03  3.95260689E-05
  1.80108365E-04 -9.52228113E-04  8.74250817E-06  8.51887043E-05 -4.09945536E-05
  2.51302775E-04  3.35179452E-04  2.46504292E-06 -1.89131313E-05  2.29522855E-06
 -8.08678417E-06 -4.65334143E-06  1.14053961E-04 -2.55150117E-05  6.28203967E-05
  3.56142636E-06  3.11688104E-06 -5.37667028E-06  7.84952865E-06 -6.08615126E-06
 -8.49133428E-06 -5.10614983E-04  1.24930810E-03 -8.16414596E-04 -5.29204963E-04
  6.07890594E-04 -5.32377305E-04  1.29388380E-03  7.50792659E-04  2.20727397E-04
  8.87773952E-04 -4.32944509E-05 -3.54029759E-06 -5.05789876E-06  7.34711426E-06
  1.14543375E-05  2.29274199E-05 -1.34829186E-04 -1.69246589E-06  5.44407423E-06
 -1.90903870E-05 -3.56427687E-04  1.22802145E-03  4.91894322E-05 -3.11984565E-06
  2.04258298E-04 -1.08428442E-03 -6.15142547E-04 -3.54110413E-05 -4.52377983E-04
 -2.82816233E-05 -1.21112521E-04 -2.41535033E-05 -5.26428380E-05 -4.67353113E-05
 -2.12673769E-01  4.70048505E-01 -3.72056511E-02  7.16985895E-02 -1.21354997E-02
  4.46164192E-01 -1.88257206E-02  2.41392400E-02 -8.30805433E-03  1.19866601E-04
  1.47268746E-04  5.69630249E-05 -2.30946119E-03 -1.65815041E-03  2.22070130E-04
  2.88333848E-04  9.70634780E-05  4.12110669E-05 -2.87266339E-05  2.89684824E-04
  2.33571025E-03 -2.30547789E-04 -6.96187520E-05 -2.23306574E-04  1.44535708E-01
  1.11203143E-02  8.45131557E-03 -1.49255581E-02 -1.99648036E-02  1.41333006E-01
  5.40543185E-03  3.10486219E-03 -1.07399584E-02  2.42831694E-02 -2.12342515E-01
  4.70356530E-01 -3.76000430E-03 -1.49266330E-02  8.10299248E-02  4.42361808E-01
 -2.17970607E-03 -2.55930183E-03  3.19499421E-02  3.03032606E-03  3.44339496E-04
 -1.00549619E-03  1.75493255E-03  1.68803482E-03  5.31387999E-04 -8.29884400E-04
  9.82628672E-05 -1.83679447E-04 -1.18021593E-04 -2.61674884E-03  2.15985683E-04
 -6.79243276E-04  6.08134982E-04 -8.12032107E-05 -1.19222253E-05  6.24554253E-05
  5.01753630E-05  5.26902525E-05  1.40797643E-01  5.05400266E-03  2.05450136E-02
  1.34683146E-02 -1.00940973E-02  1.47406878E-01  1.43024466E-02 -1.87880736E-02
 -6.13562051E-03 -1.70302177E-02 -1.94571626E-04 -3.98802543E-04 -1.27775914E-05
  4.08596068E-05  5.20085014E-06 -3.45283093E-04  2.43191686E-03  3.49411664E-05
 -9.92308287E-05  1.78594534E-04 -9.36648890E-04  1.21804553E-03 -4.16792606E-03
 -3.00371754E-03 -3.09765060E-03  7.57874692E-03 -4.84891083E-04 -1.81033262E-03
 -8.60003287E-04 -1.54450322E-04 -7.83614230E-06 -1.57372306E-04  1.06352789E-04
  1.50720082E-04  1.84678608E-03 -1.71789972E-03 -5.86173361E-02  5.82116205E-02
  4.99472442E-01 -1.64654157E-02 -3.19577271E-02  3.51825859E-02  2.85433012E-01
 -8.72597609E-03 -1.49773659E-02  2.77418353E-02 -1.32403973E-03 -5.38541990E-03
  2.37040679E-03 -1.04066632E-04  5.60055377E-06  4.64288344E-05 -2.12398326E-04
 -3.13627917E-03 -8.53381013E-03  5.67278574E-04  2.88490325E-05  4.61904330E-04
  2.42174329E-01  1.24487790E-01  8.84633690E-03 -1.81730303E-02 -8.64034757E-03
 -2.31134160E-01 -1.09513153E-01 -5.61033276E-03  1.64145018E-02 -1.42393910E-02
  4.75869248E-03 -9.62656987E-03  4.49976284E-01  2.13935032E-01  7.19485523E-02
 -3.02089301E-02  2.54680050E-01  1.19186474E-01  3.54839946E-02  7.49359677E-03
  2.88818996E-02  1.32135000E-02  6.02284706E-04 -5.42301259E-03  7.34444297E-05
 -8.08068199E-05  2.26318187E-04 -5.70188659E-04  7.12079786E-03 -5.46962330E-04
  5.49975428E-04 -7.22777471E-04  4.27443648E-03 -7.41690378E-05 -2.64181142E-04
  4.63257073E-04  1.38237987E-05 -1.06292465E-05 -2.33150549E-01 -1.07061913E-01
 -1.16024048E-02 -1.12448980E-02  1.57001633E-02  2.44055661E-01  1.43233438E-01
 -8.25695866E-03  3.91790606E-04 -2.00538974E-02  2.89987472E-03  1.53562253E-03
  1.08796573E-04 -2.28112776E-04 -4.18728474E-05 -3.56538876E-03 -6.38569558E-04
 -1.79080591E-05  1.48506273E-04 -2.75727056E-04 -6.05526822E-04 -3.97187681E-04
  1.48598075E-03  1.81665446E-03 -2.00821611E-03  9.56897011E-03  3.46626178E-03
  1.87188840E-03  1.21382461E-03  1.03508583E-04  5.70901880E-04  2.54038230E-04
  2.14827017E-04  1.53286298E-04  6.71836699E-02 -1.57510925E-01 -1.93719980E-01
  5.14135941E-01 -8.79703009E-02 -2.91173988E-01 -1.31014673E-01  3.75529984E-01
 -5.95187989E-02 -7.25246831E-03  2.18002194E-03 -7.07994685E-03 -1.49550919E-02
 -2.15530268E-02 -1.42718825E-03 -1.61139676E-03 -2.97377103E-04 -1.27780713E-04
  3.49672155E-05  1.78802755E-04 -1.01121653E-02  7.22149403E-04  2.93045044E-04
  6.38191907E-04  1.39272980E-01  7.71632671E-02  3.53332531E-04  3.11511357E-03
 -1.64239696E-02  1.48902047E-01  6.99776625E-02 -3.24084068E-03  4.25562325E-03
  1.58719072E-02  6.88809637E-02 -1.62853882E-01 -3.90552636E-02 -1.29184571E-01
  5.36745659E-01 -2.97996429E-01 -3.37998497E-02 -9.62058136E-02  3.86068320E-01
  2.55247674E-02 -1.98610100E-03 -8.68904864E-03  1.95257834E-03  4.35410955E-03
  1.07477770E-03 -1.84773771E-03 -1.36567144E-02 -1.61927204E-03  3.32698462E-03
 -8.31185782E-03 -9.86892072E-03 -4.36680543E-03  2.54238351E-03 -2.81049855E-04
  3.93196119E-06  3.15902841E-04  4.39737216E-04 -2.98514240E-04  1.42912333E-01
  6.38990430E-02  1.40242102E-02  7.24631094E-03  6.33262928E-03  1.45736137E-01
  9.47959858E-02 -1.44389735E-02 -7.66502708E-03  2.58216012E-03  3.82600096E-03
  1.84264826E-03 -2.14142497E-04 -3.63706054E-04 -3.70371806E-04 -1.60261400E-03
  7.83953391E-03 -3.40348227E-04 -2.18417702E-04  3.42983930E-04  1.36754473E-03
 -3.38928771E-03 -7.74655718E-04 -4.39403821E-03  1.13196726E-02 -5.10206418E-03
 -2.58699317E-03 -4.55060951E-03  7.77741218E-03  4.13483083E-04 -3.55055664E-04
 -4.22954742E-04  3.21088997E-05  1.92458439E-04 -7.56382875E-03  2.41771123E-02
  5.85427342E-01  2.34688545E-01  4.13632452E-02  2.21004536E-02  4.65783792E-01
  1.97491134E-01  3.54913757E-02  2.83353068E-03 -5.55503251E-03 -4.12791071E-04
 -1.99779320E-02  1.36548836E-02  3.56921368E-03 -3.10274667E-03  5.91309047E-05
 -4.50827423E-05  3.41588933E-04  3.05550205E-03  4.42731556E-03 -4.46552585E-04
 -2.37313311E-04 -1.51007959E-04 -9.51728631E-03 -1.24173118E-02  1.73749568E-02
  8.18561555E-03  2.75129673E-03 -5.39000303E-03 -9.70856012E-03  1.71506322E-02
  7.00114635E-03  1.26759816E-05  2.74982978E-03 -9.41957847E-03 -2.83041678E-01
  5.60244804E-01  1.08919568E-01 -8.63057120E-03 -2.25340978E-01  4.40681356E-01
  8.48108762E-02  6.57243457E-03 -1.19000492E-02  2.24519423E-02  3.35572608E-03
  8.18992653E-04  5.11173095E-04  1.07486636E-03  1.87519133E-03  2.51137801E-05
  3.40964384E-03 -1.17042171E-02  2.45733827E-03 -3.59021519E-03  8.18477431E-03
 -5.82012250E-04 -3.16694545E-04  8.12484416E-04  1.83451542E-04  2.60703214E-04
 -2.32616153E-03  8.67004338E-03 -8.60144858E-03  1.66446296E-02  3.34077268E-03
  2.31057471E-03  6.18766021E-03 -9.53480047E-03  1.83771244E-02  3.26923947E-03
  1.82495552E-03 -2.61324326E-03  7.56181676E-05  5.61470127E-05 -1.31717897E-04
 -1.74213248E-03  1.88730302E-02  2.82062593E-04 -6.60376990E-04  1.24353192E-03
 -3.26909635E-02  2.98519017E-02  3.10982021E-02  1.72932552E-02  9.53332429E-02
  4.79870438E-01  1.08039911E-01  1.50407689E-02  2.10115679E-01  7.09970944E-03
  9.17112763E-03  4.43081273E-04  5.15155600E-03  4.77791826E-03 -7.90575937E-02
  1.00586108E-01 -8.58729320E-02  1.56096433E-01 -1.05627078E-02  1.08024711E+00
 -1.92788092E-01  4.08066417E-01  2.73921593E-02  3.68722258E-03 -2.93147572E-03
  2.39067031E-03 -1.00106917E-02 -1.45981116E-02 -1.29810038E-02 -1.81671358E-01
 -2.88479115E-03 -1.05727768E-03  9.79768713E-04 -1.34542276E-02 -6.03990492E-01
  8.99774614E-03  2.26452592E-03  8.01863526E-03 -7.00474083E-02 -1.01161386E+00
 -5.57911056E-03  8.89423137E-03  1.12389819E-02 -3.99534160E-02 -7.78561818E-01
 -7.97227876E-04  3.66126277E-03 -8.10272423E-03  6.77062358E-02 -7.90813727E-02
 -5.90162455E-02 -9.37678549E-03 -1.76191153E-01 -9.47664621E-01 -1.67990228E-01
 -8.73400881E-03 -4.09687967E-01 -1.28249764E-02 -1.17671915E-02 -3.06624387E-04
 -7.13014086E-03 -7.20159197E-03 -3.17010186E-02  3.76816264E-02 -5.98404697E-02
  1.01859029E-01  1.38983308E-01  4.54151504E-01 -1.13284591E-01  1.93974764E-01
  3.23775882E-01 -1.92823907E-03 -7.76898524E-03  1.48121815E-02 -4.19721544E-03
 -7.52880302E-03  4.12181387E-02  4.37725723E-01  3.69705886E-03  2.76543180E-03
 -1.33559283E-03  4.95513404E-02  1.12909510E+00 -1.04970307E-02 -3.07960607E-03
 -1.03715427E-02 -2.43933059E-02 -9.96396100E-01 -2.73757691E-03  5.36398830E-03
  6.78354591E-03 -2.03134915E-02  2.29810062E-01  6.83201827E-04 -3.22113603E-03
  4.81271241E-03 -3.86662132E-02  5.32892112E-02  1.12583878E-02 -2.98738305E-02
  7.88512567E-02  5.21849775E-01  7.78598930E-03 -3.11269057E-02  2.15444401E-01
  6.31657746E-03  5.53917910E-04  1.10882367E-04  1.46115159E-03  2.52369705E-03
  2.21102097E-02 -4.08384744E-02 -5.60598524E-03 -2.71340036E-02  3.00291895E-01
 -2.79560885E-01 -4.19380035E-02 -2.13689094E-02  7.58972228E-01 -5.34752317E-03
 -1.08631072E-02  2.03232077E-02  6.99037936E-04 -1.60151317E-03 -4.12469904E-02
 -3.89836455E-01 -1.16827337E-03 -3.01020581E-03  2.47739079E-04 -4.25204793E-02
 -4.75314372E-01  7.52644394E-04  1.36519569E-03  3.22743656E-03 -5.36953866E-02
 -9.96031728E-01 -2.57485127E-03  5.17760443E-03  1.04627927E-02  8.82952355E-02
  1.49166126E+00 -1.42942570E-03 -2.58083690E-03  1.00731181E-02  2.37952904E-02
 -4.70435660E-02  2.90971830E-01  1.39325599E-01 -8.60712069E-03 -2.86221537E-01
  7.27247051E-01  3.73870500E-01  1.02660401E-02  4.52100240E-03  2.60731118E-02
  1.30587945E-02  5.92539894E-04 -5.85285351E-03  4.73292040E-03 -6.24910152E-03
  1.38240728E-02 -1.25426493E-02  3.17014617E-02 -7.21665419E-02 -5.33487525E-03
 -1.37788319E-02  1.00593524E-01 -1.21218491E-03 -9.15631191E-05  1.65423088E-03
  1.66548966E-04  6.97719952E-04  7.85670617E-02  1.59977687E+00  1.13214931E-02
  9.08647070E-03 -2.72634384E-03 -4.49249551E-02 -1.09286654E+00  1.04951690E-02
  2.71262004E-03  7.63597397E-03 -1.55759050E-02 -8.31007355E-02  2.86358488E-04
  1.28933383E-03  1.78099392E-03  1.98926803E-02  2.13088536E-01 -3.81119741E-04
  3.92164472E-04  1.97795349E-03 -1.55521260E-02  1.10458769E-01  8.53333181E-02
 -2.24460435E-02  7.23627429E-02 -9.41069808E-02  1.41579368E-02  5.53798967E-02
  9.96294877E-03 -1.57222774E-02 -6.65072099E-02 -1.93096570E-02 -2.97336627E-02
 -2.07718722E-02  3.60881680E-03 -3.11828710E-02  1.50825387E-02  7.65275301E-03
 -1.09154396E-01  3.70080869E-02  4.65960263E-02 -6.70862290E-02 -3.86180420E-01
 -5.14480645E-02 -1.00339417E-01  2.25296586E-01 -1.46042196E-02 -3.96606142E-02
  3.13721808E-02 -4.93262857E-02  1.51861173E-02  2.46120637E-03  1.45369005E-02
 -2.89854750E-01  1.77161687E-01 -5.02408731E-02 -1.55273983E-02 -5.24460798E-02
  7.66557342E-01 -5.86762209E-01 -4.57217418E-02  9.07442024E-02  3.63163890E-02
 -7.05693902E-01  5.32718152E-01  3.49735658E-02 -7.64407856E-02  5.13504332E-02
  5.60908529E-03 -4.46247965E-02 -9.33023567E-02 -4.80739104E-02 -8.28101233E-02
  7.72553836E-02 -3.23342620E-01 -1.47055501E-01 -1.37806744E-02  6.34507440E-02
  2.20436842E-01  9.29647262E-02  2.79114048E-02 -3.07324477E-02  8.03857441E-03
 -7.13804657E-02  9.94901482E-02 -1.86369424E-01 -1.88203136E-02  1.68656750E-01
 -7.90956241E-02  1.52710615E-01 -5.48035383E-02  3.83567100E-02 -3.88595454E-02
  6.79354624E-02 -2.66229622E-02 -4.07418488E-02 -6.25985795E-01  4.88079211E-01
  2.46100001E-02  2.45224316E-02 -7.70156842E-02  7.88977947E-01 -6.37484862E-01
  5.67153690E-02  9.13694614E-03  1.11241637E-01  3.29066539E-01 -3.62717464E-01
 -3.03160898E-02  5.41408434E-02  6.53297232E-02 -2.01671516E-02  3.54513384E-02
  5.53673668E-03 -7.21157202E-03 -3.96595477E-02  1.50675999E-02 -1.06514737E-01
 -2.96751571E-02  8.90891963E-02 -5.95133609E-02  1.13959099E-01  1.85361506E-01
 -2.33097293E-03  1.78584048E-02 -2.21128005E-02 -5.68914274E-02 -3.84668358E-02
  3.18603085E-02  6.31669885E-02  2.89977807E-02 -2.22284820E-01  1.15473170E-01
 -4.97721141E-01  4.28632213E-02  4.92417721E-01 -6.21728006E-02  3.87693022E-01
  1.83374427E-02  1.94617603E-01 -3.76727862E-02  1.14674552E-02 -7.44389346E-02
 -9.64225937E-02  4.13285681E-01 -3.01376849E-01 -4.94058242E-02 -2.67040707E-02
  3.40911468E-02 -8.70650382E-02  8.95203408E-02  3.28679600E-02  1.74789612E-02
 -7.07331268E-03  5.28000615E-01 -5.58831333E-01 -4.92199984E-02  7.02868711E-02
  1.65227497E-01  5.94005760E-01 -5.48122067E-01 -9.58835355E-03  3.25078407E-02
 -1.72562463E-01  1.00257611E-02 -8.65381575E-02  3.23701139E-02  1.44605995E-02
 -1.85390336E-01  2.00052757E-01 -2.25239321E-02 -2.76469726E-03  1.50864845E-01
  4.09404341E-04  1.09127431E-02 -8.21867997E-03  4.78481932E-02  6.52343888E-02
 -2.63599085E-02  1.97658005E-01 -6.96732591E-01 -4.81188936E-01 -5.58394982E-02
 -1.68702336E-01  7.00466603E-01  6.26170162E-01  2.65129019E-02 -7.73442083E-02
 -4.36473998E-04  1.76248667E-02  1.32737954E-02  2.47680398E-02  2.05929564E-01
 -2.10908129E-01 -5.80670554E-02 -3.20355110E-02  1.53957716E-02  1.83178275E-01
 -2.04416749E-01  5.30584090E-02  2.31493213E-02  2.91305229E-02 -1.92811353E-01
  6.39625982E-02 -1.21655627E-02  1.56424487E-03 -3.20063948E-02 -3.17289075E-01
  2.45468229E-01 -1.12091765E-02 -1.21015626E-02  4.26118086E-02  2.25254885E-02
 -1.84769244E-01  2.51841766E-02  5.54325685E-02 -4.65404162E-01  4.63087639E-01
  5.32542155E-02 -1.15750700E-03  3.89210226E-01 -2.63138147E-03  1.86442998E-02
 -2.57160744E-02  1.18957864E-01  1.64631859E-01 -1.97902029E-02  1.05677229E-01
  4.45480781E-01  8.92062980E-02  2.23929656E-02 -5.14650878E-02 -5.30659464E-01
  1.75348578E-02 -8.19357701E-02 -8.24165275E-02 -3.60067156E-03  3.42710390E-02
  2.21265821E-02  1.61481392E-02  5.73357934E-01 -5.47649653E-01 -1.36468559E-01
 -7.40453264E-02  3.57878291E-02  3.94179586E-01 -4.78838644E-01  1.36619353E-01
  5.91574152E-02  7.05793077E-02 -1.37785550E-01 -1.54446566E-02 -1.47499056E-03
  1.98129616E-02 -2.64561027E-02 -3.55099259E-01  2.71064061E-01  6.32698724E-03
 -1.57681013E-03  3.95295801E-02 -4.54343890E-03  2.46017252E-02 -7.52601197E-02
 -5.41664973E-02  2.44025377E-01 -1.67936346E-01  1.19422428E-01  6.91174004E-02
 -2.08503179E-01 -1.09995908E-03 -1.49022079E-02  9.18099022E-03 -5.51525630E-02
 -7.38222187E-02 -5.65269391E-02  3.71304095E-01  4.38067779E-01 -5.67522472E-01
  9.53762410E-02 -2.02006708E-03 -6.02875438E-01  8.86671276E-01 -1.25960645E-01
 -6.74816306E-02  1.91852821E-02 -1.96365607E-02  1.39302997E-02  9.41219008E-03
 -1.87290367E-01  2.57336190E-01  7.14949877E-02  3.87661063E-02 -1.73902116E-02
 -2.45719723E-01  2.30117857E-01 -5.09368026E-02 -2.25161529E-02 -2.39428753E-02
 -3.78159679E-01 -2.49199963E-04 -1.76752585E-02  3.75030512E-02  7.15199222E-03
 -3.16683489E-01 -5.96823856E-02 -1.55918434E-02  3.62173370E-02 -1.71437874E-02
  7.09553770E-03 -6.81687431E-02  4.01622751E-01 -8.49857938E-01 -6.95975629E-02
  4.39047097E-02 -4.12889497E-01  9.31962428E-01  6.16186166E-02 -7.69111233E-04
 -8.53668606E-03  9.91308916E-03  1.75944976E-03  4.11759318E-03  1.70631972E-04
  2.28502964E-02  3.62149220E-02 -4.02018906E-02 -1.38235731E-01 -1.56271486E-02
 -4.54070535E-02  3.52586207E-02  2.92965659E-01  1.69787100E-02 -8.86730122E-03
  1.08696909E-02 -6.29398225E-03 -1.01705867E-02  4.35706114E-02 -7.98320237E-03
  1.08379795E-02 -8.94884228E-03 -4.55808476E-03 -1.29518612E-03  8.43243393E-03
  4.75399345E-03 -6.20693347E-03 -3.90330178E-03 -6.30783937E-04 -1.41993014E-01
 -1.20155195E-02  1.93677093E-02  3.63404457E-02  1.20596475E-01  5.21652245E-02
  5.90287433E-03 -1.53788457E-02  2.00701847E-02 -6.26361280E-02  3.91630049E-01
  7.10454160E-02  9.45191032E-02 -6.94026710E-01 -2.70225202E-02 -1.01479815E-01