Atom number=6                                                           
SP        RHF                                                         6-31G(d,p)          
Number of atoms                            I                6
Info1-9                                    I   N=           9
         107         106           0           0           0         111
           1           1           2
Full Title                                 C   N=           2
Atom number=6           
Route                                      C   N=           4
#p hf/6-31g** 5d 7f pop=npa charge nosymm       
Charge                                     I                0
Multiplicity                               I                1
Number of electrons                        I               20
Number of alpha electrons                  I               10
Number of beta electrons                   I               10
Number of basis functions                  I               48
Number of independent functions            I               48
Number of point charges in /Mol/           I                0
Number of translation vectors              I                0
Atomic numbers                             I   N=           6
           8           8           1           1           1           1
Nuclear charges                            R   N=           6
  8.00000000E+00  8.00000000E+00  1.00000000E+00  1.00000000E+00  1.00000000E+00
  1.00000000E+00
Current cartesian coordinates              R   N=          18
  1.05536555E+01 -2.94649215E+01 -2.16748884E+01  1.46630370E+01 -3.11898692E+01
 -2.50313519E+01  8.84108934E+00 -2.90041213E+01 -2.20308448E+01  1.13441828E+01
 -2.79179445E+01 -2.11710515E+01  1.38099655E+01 -3.06346091E+01 -2.35360646E+01
  1.61331437E+01 -3.01406725E+01 -2.51308649E+01
Number of symbols in /Mol/                 I                0
Force Field                                I                0
Atom Types                                 C   N=           6
                                                            
            
Int Atom Types                             I   N=           6
           0           0           0           0           0           0
MM charges                                 R   N=           6
  0.00000000E+00  0.00000000E+00  0.00000000E+00  0.00000000E+00  0.00000000E+00
  0.00000000E+00
Integer atomic weights                     I   N=           6
          16          16           1           1           1           1
Real atomic weights                        R   N=           6
  1.59949146E+01  1.59949146E+01  1.00782504E+00  1.00782504E+00  1.00782504E+00
  1.00782504E+00
Atom fragment info                         I   N=           6
           0           0           0           0           0           0
Atom residue num                           I   N=           6
           0           0           0           0           0           0
Nuclear spins                              I   N=           6
           0           0           1           1           1           1
Nuclear ZEff                               R   N=           6
 -5.60000000E+00 -5.60000000E+00 -1.00000000E+00 -1.00000000E+00 -1.00000000E+00
 -1.00000000E+00
Nuclear ZNuc                               R   N=           6
  8.00000000E+00  8.00000000E+00  1.00000000E+00  1.00000000E+00  1.00000000E+00
  1.00000000E+00
Nuclear QMom                               R   N=           6
  0.00000000E+00  0.00000000E+00  0.00000000E+00  0.00000000E+00  0.00000000E+00
  0.00000000E+00
Nuclear GFac                               R   N=           6
  0.00000000E+00  0.00000000E+00  2.79284600E+00  2.79284600E+00  2.79284600E+00
  2.79284600E+00
MicOpt                                     I   N=           6
          -1          -1          -1          -1          -1          -1
Number of residues                         I                0
Number of secondary structures             I                0
Number of contracted shells                I               20
Number of primitive shells                 I               42
Pure/Cartesian d shells                    I                0
Pure/Cartesian f shells                    I                0
Highest angular momentum                   I                2
Largest degree of contraction              I                6
Shell types                                I   N=          20
           0          -1          -1          -2           0          -1
          -1          -2           0           0           1           0
           0           1           0           0           1           0
           0           1
Number of primitives per shell             I   N=          20
           6           3           1           1           6           3
           1           1           3           1           1           3
           1           1           3           1           1           3
           1           1
Shell to atom map                          I   N=          20
           1           1           1           1           2           2
           2           2           3           3           3           4
           4           4           5           5           5           6
           6           6
Primitive exponents                        R   N=          42
  5.48467166E+03  8.25234946E+02  1.88046958E+02  5.29645000E+01  1.68975704E+01
  5.79963534E+00  1.55396162E+01  3.59993359E+00  1.01376175E+00  2.70005823E-01
  8.00000000E-01  5.48467166E+03  8.25234946E+02  1.88046958E+02  5.29645000E+01
  1.68975704E+01  5.79963534E+00  1.55396162E+01  3.59993359E+00  1.01376175E+00
  2.70005823E-01  8.00000000E-01  1.87311370E+01  2.82539436E+00  6.40121692E-01
  1.61277759E-01  1.10000000E+00  1.87311370E+01  2.82539436E+00  6.40121692E-01
  1.61277759E-01  1.10000000E+00  1.87311370E+01  2.82539436E+00  6.40121692E-01
  1.61277759E-01  1.10000000E+00  1.87311370E+01  2.82539436E+00  6.40121692E-01
  1.61277759E-01  1.10000000E+00
Contraction coefficients                   R   N=          42
  1.83107443E-03  1.39501722E-02  6.84450781E-02  2.32714336E-01  4.70192898E-01
  3.58520853E-01 -1.10777550E-01 -1.48026263E-01  1.13076702E+00  1.00000000E+00
  1.00000000E+00  1.83107443E-03  1.39501722E-02  6.84450781E-02  2.32714336E-01
  4.70192898E-01  3.58520853E-01 -1.10777550E-01 -1.48026263E-01  1.13076702E+00
  1.00000000E+00  1.00000000E+00  3.34946043E-02  2.34726953E-01  8.13757326E-01
  1.00000000E+00  1.00000000E+00  3.34946043E-02  2.34726953E-01  8.13757326E-01
  1.00000000E+00  1.00000000E+00  3.34946043E-02  2.34726953E-01  8.13757326E-01
  1.00000000E+00  1.00000000E+00  3.34946043E-02  2.34726953E-01  8.13757326E-01
  1.00000000E+00  1.00000000E+00
P(S=P) Contraction coefficients            R   N=          42
  0.00000000E+00  0.00000000E+00  0.00000000E+00  0.00000000E+00  0.00000000E+00
  0.00000000E+00  7.08742682E-02  3.39752839E-01  7.27158577E-01  1.00000000E+00
  0.00000000E+00  0.00000000E+00  0.00000000E+00  0.00000000E+00  0.00000000E+00
  0.00000000E+00  0.00000000E+00  7.08742682E-02  3.39752839E-01  7.27158577E-01
  1.00000000E+00  0.00000000E+00  0.00000000E+00  0.00000000E+00  0.00000000E+00
  0.00000000E+00  0.00000000E+00  0.00000000E+00  0.00000000E+00  0.00000000E+00
  0.00000000E+00  0.00000000E+00  0.00000000E+00  0.00000000E+00  0.00000000E+00
  0.00000000E+00  0.00000000E+00  0.00000000E+00  0.00000000E+00  0.00000000E+00
  0.00000000E+00  0.00000000E+00
Coordinates of each shell                  R   N=          60
  1.05536555E+01 -2.94649215E+01 -2.16748884E+01  1.05536555E+01 -2.94649215E+01
 -2.16748884E+01  1.05536555E+01 -2.94649215E+01 -2.16748884E+01  1.05536555E+01
 -2.94649215E+01 -2.16748884E+01  1.46630370E+01 -3.11898692E+01 -2.50313519E+01
  1.46630370E+01 -3.11898692E+01 -2.50313519E+01  1.46630370E+01 -3.11898692E+01
 -2.50313519E+01  1.46630370E+01 -3.11898692E+01 -2.50313519E+01  8.84108934E+00
 -2.90041213E+01 -2.20308448E+01  8.84108934E+00 -2.90041213E+01 -2.20308448E+01
  8.84108934E+00 -2.90041213E+01 -2.20308448E+01  1.13441828E+01 -2.79179445E+01
 -2.11710515E+01  1.13441828E+01 -2.79179445E+01 -2.11710515E+01  1.13441828E+01
 -2.79179445E+01 -2.11710515E+01  1.38099655E+01 -3.06346091E+01 -2.35360646E+01
  1.38099655E+01 -3.06346091E+01 -2.35360646E+01  1.38099655E+01 -3.06346091E+01
 -2.35360646E+01  1.61331437E+01 -3.01406725E+01 -2.51308649E+01  1.61331437E+01
 -3.01406725E+01 -2.51308649E+01  1.61331437E+01 -3.01406725E+01 -2.51308649E+01
Num ILSW                                   I              100
ILSW                                       I   N=         100
           0           0           0           0           2           0
           0           0           0           0           0          -1
           5           0           0           0           0           0
           0           0           0           0           0           0
           1           1           0           0           0           0
           0           0      100000           0          -1           0
           0           0           0           0           0           0
           0           0           0           1           0           0
           0 -2000000000           1           0           0           0
           0           0           4          52           0           0
           0           1           0           0           0           0
           0           0           0           6           0           1
           0           0           0           0           0           0
           0           0           0           0           0           0
           0           0           0           0           0           0
           0           0           0           0           0           0
           0           0           0           0
Num RLSW                                   I               52
RLSW                                       R   N=          52
  1.00000000E+00  1.00000000E+00  1.00000000E+00  1.00000000E+00  1.00000000E+00
  0.00000000E+00  0.00000000E+00  1.00000000E+00  0.00000000E+00  0.00000000E+00
  0.00000000E+00  0.00000000E+00  1.00000000E+00  0.00000000E+00  0.00000000E+00
  0.00000000E+00  0.00000000E+00  1.00000000E+00  0.00000000E+00  0.00000000E+00
  0.00000000E+00  0.00000000E+00  1.00000000E+00  0.00000000E+00  0.00000000E+00
  0.00000000E+00  0.00000000E+00  1.00000000E+00  0.00000000E+00  0.00000000E+00
  0.00000000E+00  0.00000000E+00  1.00000000E+00  0.00000000E+00  0.00000000E+00
  0.00000000E+00  0.00000000E+00  0.00000000E+00  1.00000000E+00  1.00000000E+00
  0.00000000E+00  1.00000000E+00  0.00000000E+00  0.00000000E+00  0.00000000E+00
  0.00000000E+00  0.00000000E+00  0.00000000E+00  0.00000000E+00  0.00000000E+00
  0.00000000E+00  0.00000000E+00
MxBond                                     I                2
NBond                                      I   N=           6
           2           2           1           1           1           1
IBond                                      I   N=          12
           3           4           5           6           1           0
           1           0           2           0           2           0
RBond                                      R   N=          12
  1.00000000E+00  1.00000000E+00  1.00000000E+00  1.00000000E+00  1.00000000E+00
  0.00000000E+00  1.00000000E+00  0.00000000E+00  1.00000000E+00  0.00000000E+00
  1.00000000E+00  0.00000000E+00
Virial Ratio                               R      2.098037225070638E+00
SCF Energy                                 R     -1.666906738022443E+02
Total Energy                               R     -1.666906738022443E+02
RMS Density                                R      3.742476880541414E-09
Job Status                                 I                1
Nuclear derivative order                   I                0
External E-field                           R   N=          35
  0.00000000E+00  0.00000000E+00  0.00000000E+00  0.00000000E+00  0.00000000E+00
  0.00000000E+00  0.00000000E+00  0.00000000E+00  0.00000000E+00  0.00000000E+00
  0.00000000E+00  0.00000000E+00  0.00000000E+00  0.00000000E+00  0.00000000E+00
  0.00000000E+00  0.00000000E+00  0.00000000E+00  0.00000000E+00  0.00000000E+00
  0.00000000E+00  0.00000000E+00  0.00000000E+00  0.00000000E+00  0.00000000E+00
  0.00000000E+00  0.00000000E+00  0.00000000E+00  0.00000000E+00  0.00000000E+00
  0.00000000E+00  0.00000000E+00  0.00000000E+00  0.00000000E+00  0.00000000E+00
IOpCl                                      I                0
IROHF                                      I                0
Alpha Orbital Energies                     R   N=          48
 -2.05787685E+01 -2.05044124E+01 -1.36206398E+00 -1.28944081E+00 -7.24541464E-01
 -6.57555561E-01 -5.92118729E-01 -5.30347851E-01 -5.14817767E-01 -4.47560695E-01
  2.19209714E-01  3.06507046E-01  3.39284575E-01  4.23210377E-01  1.00391031E+00
  1.06293769E+00  1.08786797E+00  1.12738006E+00  1.14904650E+00  1.20603095E+00
  1.23974310E+00  1.26901674E+00  1.32201065E+00  1.38822227E+00  1.58258731E+00
  1.72902774E+00  1.80219811E+00  1.81504648E+00  1.85563074E+00  1.88535025E+00
  1.95160343E+00  1.99362957E+00  2.56424977E+00  2.57191711E+00  2.63701379E+00
  2.69291681E+00  2.80286110E+00  2.86986099E+00  2.96349314E+00  2.97652227E+00
  3.04576023E+00  3.06507707E+00  3.37835495E+00  3.44016376E+00  3.74618994E+00
  3.82101555E+00  3.93846297E+00  4.01418792E+00
Alpha MO coefficients                      R   N=        2304
  9.95699021E-01  2.20581739E-02 -7.81816034E-04  1.75215101E-03  2.01534665E-04
 -5.94992917E-03  7.31066721E-05 -6.93749108E-04  2.14648414E-05 -3.24433782E-04
  2.52673926E-04  1.13368152E-04  1.24138165E-04  9.50984571E-05  4.96853401E-05
  1.90086483E-04 -3.74097973E-06 -6.76593265E-06  3.11263024E-05 -7.25103322E-04
  2.29169042E-04 -9.40532685E-05 -3.80796915E-04 -2.74828046E-05  7.24857876E-05
 -4.12992963E-05 -2.07735607E-05  1.82748066E-05 -6.14847021E-04  1.15236477E-03
 -1.10332543E-03  3.54500715E-04 -2.38729668E-04 -4.45676154E-04  1.10433132E-03
  4.83955640E-04  1.00539907E-03  3.00916395E-04  5.40045893E-05  1.01323261E-03
 -3.12885354E-05 -2.30292971E-05 -1.01762978E-04  8.17539799E-05 -2.25123247E-04
  6.00981237E-06  3.20251310E-06  1.07751748E-05 -3.52337652E-05  1.34412089E-04
  1.00336890E-04 -5.55221143E-05 -4.30199505E-05 -1.03159104E-04 -6.40181107E-04
  2.45948709E-04  1.58057309E-04 -1.04501685E-05  7.44483925E-05 -3.79287139E-05
  2.02760396E-05 -4.65541130E-05  9.95716738E-01  2.21497436E-02  5.88361402E-04
  1.46018214E-03  1.35275118E-03 -6.61332772E-03 -1.83596363E-05 -7.65280123E-04
 -9.92176160E-04 -4.96904940E-05 -2.40228620E-04  7.67277105E-05  1.59633187E-04
  2.43293448E-04 -2.05236716E-04 -1.97556547E-04 -6.57156995E-05  6.55850015E-06
 -3.93925810E-05  1.49259483E-04 -2.48688536E-04  6.11272045E-05 -2.33619873E-05
 -7.32980312E-06 -4.50635571E-04  2.21990917E-03 -4.70119152E-04  3.64026201E-04
  8.47897509E-04 -4.74774746E-04  1.05179972E-03  9.32142696E-04  7.14694785E-04
  4.99474125E-06 -2.12917818E-01  4.69355983E-01 -3.22441790E-02  7.16550296E-02
  9.80036254E-03  4.50720702E-01 -7.37974288E-03  2.45572915E-02  1.30885630E-02
 -1.63392127E-03  4.78925206E-04  1.14687251E-03  2.12000694E-04 -8.83789318E-04
 -1.03243480E-02  2.23589172E-02 -6.41778925E-04  3.31774508E-03  4.10704552E-03
  2.05259905E-02 -9.38274174E-04  1.34728274E-03  1.85627744E-03  1.00915347E-04
 -3.53029240E-04  3.08557269E-04  8.62758147E-05 -1.43814722E-04  1.42298416E-01
  9.40118888E-03  2.51977523E-02 -4.85268291E-03  5.61192384E-03  1.39336667E-01
  3.45559852E-03 -1.27548297E-02 -2.21824766E-02 -7.45729205E-03  1.13188151E-02
  2.50808711E-03  5.78666735E-04 -2.20707521E-04 -8.32047181E-04  6.04482777E-03
  6.43524199E-04 -1.06291275E-03 -6.98970850E-04  1.60517023E-04  1.18015833E-02
 -2.68456795E-02  5.34691441E-03 -5.86153787E-03 -2.83592985E-03 -2.50267665E-02
  4.62327426E-03 -3.84417953E-03 -3.32057605E-03  1.42737903E-04 -6.85695037E-04
  6.71154892E-05  3.81936270E-04 -9.68095553E-05 -2.12183444E-01  4.67762882E-01
  2.29507683E-02  5.86539714E-02  5.29483819E-02  4.47444385E-01  1.08120727E-02
  2.16200981E-02  2.27432189E-02  1.00439411E-03 -9.85786542E-04  2.89541414E-03
 -1.18903164E-04  2.15507478E-03 -9.26863660E-03 -2.43129839E-04 -1.55001565E-03
  3.29401768E-04 -3.77629370E-04 -8.57360149E-03  1.93977104E-03  6.19085720E-04
  1.10255685E-03  3.31347535E-04  1.44624648E-01  7.96636303E-03  1.46361319E-02
 -6.49984543E-03 -2.04926128E-02  1.40618907E-01  7.03175562E-03 -2.21859038E-02
 -1.46588082E-02  3.00354250E-03 -1.55779790E-03  3.24612798E-04  4.51364477E-01
  1.72083492E-01  1.46096176E-01  1.66254500E-02  2.69133943E-01  9.80930104E-02
  8.70858862E-02  2.80947989E-03  5.24158198E-04  1.04023891E-02 -2.15436798E-02
  2.07912995E-02  4.87714096E-03 -1.09306456E-02 -3.81076464E-02  7.17148605E-04
  3.39316612E-02 -1.90728693E-02 -1.95555864E-02  1.66955416E-03  1.87521882E-02
  1.83979079E-03 -1.16092891E-03  1.44171811E-03 -6.19972330E-04 -1.85898796E-03
 -2.38963001E-01 -1.11231940E-01 -1.80205113E-02  1.31953454E-02 -3.42131579E-03
  2.19991273E-01  9.89085158E-02 -3.52046527E-04 -2.24706602E-02 -3.47840930E-03
  3.11026771E-02  1.98926552E-02  1.53876614E-03 -8.70093135E-04 -1.74488646E-03
 -2.24051135E-02 -8.80685556E-03  1.52464841E-03  1.93185554E-03  7.63220937E-04
  1.15413283E-02 -2.75106718E-02 -1.78719431E-02  1.46432787E-01  8.39295104E-02
 -5.00900513E-02 -1.85655002E-02  9.92831482E-02  5.84437608E-02 -2.53912755E-03
  6.08634619E-04  4.40965231E-03 -6.78101957E-03 -5.51006591E-05 -5.11414973E-03
  9.58031291E-03  3.83270203E-01  7.24912766E-02 -2.71682089E-01  2.94285266E-02
  2.18944924E-01  4.32317600E-02 -1.55482177E-01 -1.95532890E-02  1.11390818E-02
 -9.12450877E-03  3.84967433E-03  1.92286035E-02  8.69041685E-03 -6.09396806E-04
  1.50100585E-03  3.47774258E-03  2.95624423E-03  6.92085350E-02  2.92607023E-02
 -4.43568661E-03 -4.87819682E-03  5.82636573E-05 -2.30605033E-01 -1.30477981E-01
 -4.74514844E-03  1.13761837E-02  1.60690107E-02  2.17078246E-01  1.02874935E-01
 -1.39763807E-02 -1.60010085E-02 -5.74107240E-03  6.21073116E-02 -1.44508720E-01
 -1.98903702E-01  5.01747903E-01 -1.61683388E-02 -2.67953252E-01 -1.40749305E-01
  3.60105467E-01 -2.43524972E-02 -1.52929077E-02  2.75089769E-04  5.93370518E-03
 -1.33507919E-02 -1.25939348E-02 -1.07301267E-02  2.23043411E-02 -1.30092761E-01
 -5.90766040E-02  5.95014440E-02  5.59288650E-02 -8.13896147E-02 -3.58544181E-02
  4.22094534E-02  6.50032911E-03 -3.62451200E-03  1.39686425E-03 -9.41464392E-04
 -6.76157152E-03  1.34970063E-01  6.38014730E-02  1.26461203E-02  9.26533827E-03
  4.41987923E-03  1.42267635E-01  5.97122324E-02 -1.36821456E-02 -4.71586020E-03
 -4.87029094E-03  4.92203671E-02 -1.35929144E-02  1.27586784E-03 -3.48347175E-03
 -4.58506614E-03 -7.81458683E-02 -3.37311659E-02  4.89410800E-03  4.62592800E-03
  1.00945396E-03  1.00494860E-03 -1.03016296E-02 -1.14067677E-01 -9.24835326E-02
  4.76858350E-01  9.94234774E-03 -9.16932003E-02 -7.76973282E-02  3.84574689E-01
  8.13187534E-03 -7.73480023E-03  1.48711468E-02  3.72968147E-03 -1.93819057E-03
 -4.39767838E-02  1.04845665E-01 -1.25621692E-01 -2.67756011E-01 -1.47301456E-01
  1.84940968E-01 -8.30106708E-02 -1.96013471E-01 -1.06911635E-01  2.02005078E-03
 -3.17193111E-03 -1.24557306E-02  4.30392125E-03 -8.63152837E-03 -9.98062482E-03
  3.67834003E-03 -3.79153616E-03 -2.44767565E-03  1.39936627E-02 -1.08685128E-03
  5.97928255E-03 -3.52739219E-03 -2.60742169E-03  1.34876229E-02 -6.11487362E-02
 -4.60437471E-02 -6.70824450E-03 -6.50020037E-03  1.35206848E-03 -1.09155884E-01
 -5.39138120E-02  8.92787419E-03  1.87020223E-03 -4.99161313E-03  1.27244025E-02
 -3.47270678E-02 -1.32816717E-01 -1.43160920E-02  3.53205076E-01 -4.80677241E-02
 -1.01735265E-01 -1.43767679E-02  2.90039427E-01  3.49638598E-03 -6.89906463E-03
  1.15756945E-02  3.18650254E-03 -4.29798120E-03  5.09442016E-02 -1.20654989E-01
  1.04137531E-01  3.02194934E-01  3.20139171E-01 -2.18186932E-01  8.66563412E-02
  2.20326761E-01  2.32088638E-01  5.31958372E-03  4.89246327E-03  1.88083094E-02
 -6.42175015E-03  8.96085598E-03  2.15201176E-02  1.79799554E-02 -9.63891913E-04
 -1.34104182E-03  1.10438807E-02  3.03260102E-03  1.66495961E-02 -4.07650949E-03
 -1.54743788E-03  9.47213037E-03  1.30955106E-01  6.42867448E-02  1.42738645E-02
  2.31017571E-03 -6.05417427E-03  9.56120055E-02  3.93805164E-02 -8.46004718E-03
  4.64644642E-04  9.84275629E-03  2.33770103E-03 -8.36769918E-03 -1.86886570E-02
 -3.26547158E-03  5.00684458E-02 -7.42411643E-03 -8.21340583E-03 -5.45180173E-03
  3.15938765E-02  1.27559105E-03 -2.18868311E-03  1.66663437E-03  8.02789861E-04
 -3.99147613E-04 -2.27549833E-03  6.20839712E-03 -3.30674484E-01  4.22038393E-01
 -3.35009848E-01  1.44611016E-02 -2.65632508E-01  3.38382069E-01 -2.64141909E-01
 -1.47553724E-02 -1.38564420E-02  2.51754461E-03 -1.61618522E-02 -4.12214413E-03
  2.08988959E-03  5.82377570E-03 -1.21383642E-04 -2.38712867E-04  2.24099267E-03
 -1.84215726E-03  1.07852479E-02 -1.05101347E-03 -4.67464420E-04  1.84496254E-03
  4.78008525E-03 -2.49392687E-02 -1.05271912E-02  1.34936544E-02 -1.02353558E-02
 -1.69502487E-03 -5.91683154E-04 -9.75774987E-03  1.28346357E-02 -1.02101452E-02
 -8.84189984E-02  1.31951483E-01 -8.94454214E-02  1.29614101E-01  2.43597479E-03
  1.10739804E+00 -2.43733516E-01  3.23660625E-01 -5.08734259E-02 -1.17993449E-02
  5.14439194E-03  2.62307076E-03 -5.36303713E-04 -4.74188849E-03 -3.11418884E-02
  4.24022230E-02 -2.18360552E-02  5.61589942E-02  8.24769472E-02  3.99691330E-01
 -3.34883250E-02  1.09532030E-01  1.61777600E-01  4.02322904E-03 -2.40776007E-03
  5.83668469E-03 -9.43456409E-04  1.99667392E-03 -8.08284666E-02 -1.07473776E+00
 -1.08004903E-02  2.21693982E-03 -2.34132173E-03 -4.61394209E-02 -6.89968345E-01
 -6.37050113E-04  5.66372383E-03  3.58266507E-03 -2.17112219E-02 -4.62806694E-01
 -3.77430511E-03  5.65020360E-04  1.66372916E-03 -1.30536101E-02 -1.92439064E-01
  2.06430671E-03  2.46219999E-03  7.71040804E-04  7.67520752E-03  1.15788003E-02
  2.35963073E-01 -4.12666032E-03  1.63970211E-02 -2.48400297E-01  5.41914695E-01
  3.61461068E-02  8.67883869E-02  6.38435043E-03  1.70988950E-03  3.17812139E-03
 -1.66904980E-02  1.92011964E-02 -6.91626443E-02  9.10602084E-02  7.73176739E-02
  1.15917609E-01  9.09660817E-02  9.59604106E-01  1.33969557E-01  2.85124939E-01
  2.21557183E-01  9.08455224E-04 -5.99917176E-03  1.08286427E-02  2.13157378E-03
  7.97293376E-03  3.07374649E-02  1.09155876E+00  1.23010952E-02 -3.41670253E-03
  3.82833921E-04 -3.87405796E-03 -5.43252130E-01  1.06919667E-03  7.39179885E-03
  3.32755205E-03 -4.22211790E-02 -7.48357698E-01 -8.46252073E-03  2.96011581E-03
  9.27061172E-03 -4.09442411E-02 -8.69344152E-01  8.37070802E-03  4.42841084E-03
 -9.73622712E-04  1.96692417E-02 -2.49047594E-02 -1.79619397E-01 -1.78983643E-01
 -1.17163995E-01 -3.19600906E-01 -4.86332705E-01 -3.89458135E-01 -2.24254962E-01
  2.38952786E-03  2.92024781E-03 -7.20804704E-03  9.49777459E-03 -4.40935027E-03
 -4.83233148E-02  7.04093254E-02  8.53093117E-02  7.40401589E-02  3.62229353E-02
  6.54807004E-01  1.76679632E-01  2.11576729E-01  9.36013723E-02 -2.71713770E-03
 -1.93479207E-04  6.38863722E-03 -3.47788969E-04  6.95899879E-03 -4.64371174E-02
 -7.92128722E-01 -5.64275996E-03 -1.90970180E-03 -5.28539994E-03  9.13111039E-02
  1.40931364E+00 -3.13594880E-03 -5.68768940E-03 -7.04615362E-04 -3.65085525E-02
 -3.55518710E-01 -1.92292134E-04  2.31411880E-03  1.16106369E-03 -4.92745659E-02
 -7.58057175E-01  5.65004496E-03  3.35823463E-03 -1.19406427E-04  4.25803346E-03
 -4.69195228E-02 -8.03683323E-02  1.25559877E-01  6.97947235E-02  2.05652953E-01
 -8.94661776E-02  2.12319708E-01  1.34456945E-01 -8.38091165E-03 -5.48951598E-03
  1.73765958E-03  1.22082461E-02 -1.68904187E-02  1.43627756E-02 -1.92484152E-02
  2.55925336E-01  4.78378821E-02 -2.18919474E-01 -2.15322555E-01  6.68269575E-01
  8.63450883E-02 -5.21680758E-01 -1.35786933E-02  9.97428499E-03 -9.15454133E-03
  1.90172811E-03  1.45208589E-02  4.72042273E-02 -1.83787237E-01 -5.46407305E-03
  5.18408878E-03  4.67952554E-03 -7.20958435E-02 -4.32069479E-01  4.24729850E-03
 -2.20721382E-03 -4.75279985E-03  8.70479001E-02  1.64070668E+00  1.20374127E-02
 -1.39752998E-03 -5.63784350E-03 -6.65718493E-02 -1.26020489E+00  7.47442524E-03
  6.31788027E-03 -3.10896255E-03 -1.66345717E-03  3.24601396E-03  2.22369176E-01
 -1.19480328E-01 -1.03310013E-01  9.45642089E-02  2.02691756E-01  2.94095853E-01
  2.39829990E-01 -3.79750787E-02  4.94175843E-02 -6.80258373E-02  1.96194745E-01
 -1.55047245E-01 -1.39084346E-02  9.99764986E-02 -8.57098991E-02 -2.90096040E-02
  4.33281369E-02 -2.15510434E-02  1.11970044E-01  6.23831515E-02 -2.21729241E-02
 -4.91922819E-03  1.58574415E-02 -3.20875995E-03 -9.64661276E-03 -1.79578112E-03
  8.03103917E-01 -6.92936349E-01 -1.22621743E-01  6.71434030E-02 -2.46976224E-02
 -6.58628955E-01  4.95070882E-01  2.78319247E-02 -7.07262355E-02 -1.20170014E-02
  7.09427944E-03 -1.10813282E-01  1.49110168E-02  5.53540419E-03 -1.66603522E-02
 -1.03025469E-01  4.95370523E-02  3.54258605E-03  4.75488501E-03  1.97918712E-03
 -6.94128069E-03  4.48240961E-02 -2.59550945E-04 -2.45014720E-01  1.98564593E-02
  6.55480654E-02  9.77782585E-02  2.11457525E-01 -5.44084413E-02 -3.65494663E-02
  2.21247524E-02  2.74611200E-02 -2.41902757E-02  5.26765093E-02  2.39080688E-03
 -1.42545992E-02  7.07880149E-02 -8.20749177E-03 -3.83169939E-02  1.51438409E-02
  3.44820157E-01  8.61596152E-02 -2.60637956E-01  1.51380036E-01 -9.60260110E-02
  7.73333022E-02 -2.01571041E-02 -1.54707688E-01  3.09650697E-02  7.05800208E-02
 -1.05775019E-02 -2.04232311E-02 -8.95901641E-03  1.61290583E-01 -2.29934053E-01
  2.96800534E-02  6.16270665E-02  2.86744262E-02  7.73352863E-01 -5.68528527E-01
 -9.07584443E-03  5.90550418E-02  8.18595846E-02 -7.09196169E-01  5.27953886E-01
 -4.84639804E-02 -6.62618677E-02 -3.45269971E-02  3.60254876E-02 -2.55692913E-01
  3.36621058E-02 -3.84856697E-01  3.86322041E-01  4.39841579E-01  4.75932408E-03
  2.14171031E-01 -4.31468682E-01 -1.65467111E-01  1.07343432E-01  7.20069079E-02
  5.67132758E-02  7.10359945E-02  1.24856386E-02 -9.56238804E-02  2.31537629E-02
 -6.02187445E-02 -4.43636617E-02  1.19164536E-01 -1.55732342E-01 -1.50994313E-03
  9.71572241E-02 -3.12583612E-02 -2.21458495E-02 -1.95329230E-03  2.89578990E-02
  5.39424202E-02  5.34028413E-01 -4.86478953E-01 -1.55510792E-01 -2.11276315E-02
 -2.99194570E-02  6.38596374E-01 -5.42894114E-01  1.09855217E-01  1.00638290E-01
  6.25643474E-02 -4.30670836E-02  4.75714394E-03 -4.04964208E-02 -5.62292216E-03
  1.86477417E-02  3.22423745E-01 -2.13058452E-01  3.78688079E-02  2.23549368E-02
 -4.48624607E-03  4.13029147E-02 -3.01489789E-01  9.32302263E-02  2.28681998E-01
 -6.27795005E-01  2.82339349E-01 -1.18513712E-01 -4.04239463E-01  6.69288836E-01
 -9.03177644E-02  6.26817723E-02  5.30052608E-02  1.68090978E-02  6.65784079E-02
  2.22371871E-03  1.82384065E-02 -1.69911310E-01  3.60937107E-01 -6.93576133E-02
 -2.16475762E-01  2.59791073E-01 -3.63164144E-01 -1.78607111E-02  5.74784301E-03
  4.70332256E-02 -2.43633608E-02 -2.19591007E-02 -1.18276804E-02  2.94883160E-01
 -1.84189979E-01 -5.04107743E-02 -2.58805845E-02 -2.70307563E-02  5.07255668E-01
 -4.06448503E-01  6.19877280E-02  4.85753148E-02  8.52113198E-03 -8.35949863E-02
  3.95975774E-01  5.39225343E-02 -2.62576887E-02 -4.07343947E-02 -1.30073373E-01
  6.04295124E-02 -3.81596308E-02 -9.19349153E-04  8.99646068E-03 -3.52237756E-03
  5.02580139E-02  1.56251016E-01 -1.20257838E-01  2.88067638E-01  8.50310658E-03
 -4.18190341E-01  1.43543188E-01 -3.15867046E-01 -1.24415215E-02  8.94585376E-03
 -8.43258650E-03  1.82855768E-02 -1.47537273E-02 -2.42414944E-02  1.60839661E-01
  1.84226550E-01  3.68766049E-01  2.44126775E-01 -4.64928321E-01 -1.32161716E-01
 -2.66398885E-01 -1.65847974E-01  2.08901785E-03  1.72408396E-01 -6.19580556E-02
 -9.76877091E-02 -1.21664979E-01 -7.50044642E-02 -2.33936948E-01 -6.45138895E-02
  1.21215486E-02 -4.43156381E-03  6.25303548E-02  2.97845317E-02  3.53638154E-03
 -2.80223632E-02 -1.16166405E-02 -6.24055106E-01  6.95792479E-01  1.24232228E-01
 -3.47655603E-03 -1.25935838E-01 -5.87994570E-01  5.36577732E-01 -1.62948901E-01
 -7.24102855E-02  6.31249195E-02 -3.20599948E-02  2.25134817E-01  5.67014953E-02
 -4.53107483E-01 -3.71714616E-02 -1.26098083E-02 -9.60406826E-02  6.99216369E-01
  8.80564168E-02  1.70554874E-02 -3.11234157E-02  1.04073115E-02 -5.74519856E-02
  1.02238672E-02 -8.10539676E-03 -4.08979687E-03 -4.20195285E-01  2.38613866E-01
 -6.01211475E-01  1.13574453E-01  4.88282342E-01 -1.86455901E-01  6.86713611E-01
 -6.57854366E-03  2.89439453E-02 -1.24807171E-03 -4.67267986E-03  2.45088530E-02
 -2.49973880E-01  1.70823965E-01  1.69590784E-02  6.46361571E-03  8.30142750E-03
 -1.40422643E-01 -2.54869639E-01  9.81010247E-03  6.49723070E-02  1.19445831E-02
 -1.94531649E-01  2.28748104E-01  5.71346345E-03  2.25940278E-02  2.06917357E-02
 -2.49401982E-02 -2.04037621E-01  2.43107946E-02  4.01447709E-02  4.67348543E-03
  1.13117880E-02 -9.95345166E-02  2.22502850E-02  6.48916754E-02 -1.17177172E-01
  1.25372753E-01 -6.17888570E-02 -1.07191428E-01  1.28085178E-01 -2.69681892E-02
  1.06600467E-02  2.08394757E-02  1.57687270E-04  4.12316179E-02 -5.65763527E-02
  3.62342042E-01  3.66723613E-03 -6.97877119E-01 -2.54459179E-01 -5.17965381E-02
  8.64077634E-02  9.87163636E-01  4.63501757E-01  4.64495142E-03  7.94294787E-02
 -6.55799181E-03 -5.35629135E-02 -3.96419866E-02  3.53901963E-02 -2.78693163E-02
 -1.84866751E-02 -1.92311875E-02 -3.19216582E-03  1.82805620E-01 -1.91083055E-01
  1.95954068E-02  1.23658869E-02  4.32215298E-03 -4.26747078E-01  9.74519467E-02
  2.02094917E-02  2.14506796E-02  2.98568089E-02 -4.23573132E-01  4.69328665E-02
  4.07146892E-03  2.32046674E-02  2.85153183E-02  1.43296206E-02 -1.47795515E-02
  2.98715108E-01  5.46551916E-01  4.71451251E-01 -2.89067714E-01 -6.43104555E-01