 Entering Gaussian System, Link 0=g16
 Input=w32_38.gjf
 Output=w32_38.log
 Initial command:
 /home/soft/g16/l1.exe "/tmp/liwei01/gaussian/wsr/Gau-6893.inp" -scrdir="/tmp/liwei01/gaussian/wsr/"
 Entering Link 1 = /home/soft/g16/l1.exe PID=      6894.
  
 Copyright (c) 1988,1990,1992,1993,1995,1998,2003,2009,2016,
            Gaussian, Inc.  All Rights Reserved.
  
 This is part of the Gaussian(R) 16 program.  It is based on
 the Gaussian(R) 09 system (copyright 2009, Gaussian, Inc.),
 the Gaussian(R) 03 system (copyright 2003, Gaussian, Inc.),
 the Gaussian(R) 98 system (copyright 1998, Gaussian, Inc.),
 the Gaussian(R) 94 system (copyright 1995, Gaussian, Inc.),
 the Gaussian 92(TM) system (copyright 1992, Gaussian, Inc.),
 the Gaussian 90(TM) system (copyright 1990, Gaussian, Inc.),
 the Gaussian 88(TM) system (copyright 1988, Gaussian, Inc.),
 the Gaussian 86(TM) system (copyright 1986, Carnegie Mellon
 University), and the Gaussian 82(TM) system (copyright 1983,
 Carnegie Mellon University). Gaussian is a federally registered
 trademark of Gaussian, Inc.
  
 This software contains proprietary and confidential information,
 including trade secrets, belonging to Gaussian, Inc.
  
 This software is provided under written license and may be
 used, copied, transmitted, or stored only in accord with that
 written license.
  
 The following legend is applicable only to US Government
 contracts under FAR:
  
                    RESTRICTED RIGHTS LEGEND
  
 Use, reproduction and disclosure by the US Government is
 subject to restrictions as set forth in subparagraphs (a)
 and (c) of the Commercial Computer Software - Restricted
 Rights clause in FAR 52.227-19.
  
 Gaussian, Inc.
 340 Quinnipiac St., Bldg. 40, Wallingford CT 06492
  
  
 ---------------------------------------------------------------
 Warning -- This program may not be used in any manner that
 competes with the business of Gaussian, Inc. or will provide
 assistance to any competitor of Gaussian, Inc.  The licensee
 of this program is prohibited from giving any competitor of
 Gaussian, Inc. access to this program.  By using this program,
 the user acknowledges that Gaussian, Inc. is engaged in the
 business of creating and licensing software in the field of
 computational chemistry and represents and warrants to the
 licensee that it is not a competitor of Gaussian, Inc. and that
 it will not use this program in any manner prohibited above.
 ---------------------------------------------------------------
  

 Cite this work as:
 Gaussian 16, Revision A.03,
 M. J. Frisch, G. W. Trucks, H. B. Schlegel, G. E. Scuseria, 
 M. A. Robb, J. R. Cheeseman, G. Scalmani, V. Barone, 
 G. A. Petersson, H. Nakatsuji, X. Li, M. Caricato, A. V. Marenich, 
 J. Bloino, B. G. Janesko, R. Gomperts, B. Mennucci, H. P. Hratchian, 
 J. V. Ortiz, A. F. Izmaylov, J. L. Sonnenberg, D. Williams-Young, 
 F. Ding, F. Lipparini, F. Egidi, J. Goings, B. Peng, A. Petrone, 
 T. Henderson, D. Ranasinghe, V. G. Zakrzewski, J. Gao, N. Rega, 
 G. Zheng, W. Liang, M. Hada, M. Ehara, K. Toyota, R. Fukuda, 
 J. Hasegawa, M. Ishida, T. Nakajima, Y. Honda, O. Kitao, H. Nakai, 
 T. Vreven, K. Throssell, J. A. Montgomery, Jr., J. E. Peralta, 
 F. Ogliaro, M. J. Bearpark, J. J. Heyd, E. N. Brothers, K. N. Kudin, 
 V. N. Staroverov, T. A. Keith, R. Kobayashi, J. Normand, 
 K. Raghavachari, A. P. Rendell, J. C. Burant, S. S. Iyengar, 
 J. Tomasi, M. Cossi, J. M. Millam, M. Klene, C. Adamo, R. Cammi, 
 J. W. Ochterski, R. L. Martin, K. Morokuma, O. Farkas, 
 J. B. Foresman, and D. J. Fox, Gaussian, Inc., Wallingford CT, 2016.
 
 ******************************************
 Gaussian 16:  ES64L-G16RevA.03 25-Dec-2016
                15-May-2020 
 ******************************************
 %chk=w32_38.chk
 %nproc=4
 Will use up to    4 processors via shared memory.
 %mem=1gb
 -----------------------------------------
 #p hf/6-31g** 5d 7f pop=npa charge nosymm
 -----------------------------------------
 1/18=10,28=-2,38=1,125=101,172=1/1;
 2/12=2,15=1,17=6,18=5,40=1/2;
 3/5=1,6=6,7=101,8=11,11=9,25=1,30=1/1,2,3;
 4//1;
 5/5=2,38=5/2;
 6/7=2,8=2,9=2,10=2,28=1,40=-1/1,7;
 99/5=1,9=1/99;
 Leave Link    1 at Fri May 15 22:35:43 2020, MaxMem=   134217728 cpu:               0.3 elap:               0.1
 (Enter /home/soft/g16/l101.exe)
 --------------
 Atom number=12
 --------------
 Symbolic Z-matrix:
 Charge =  0 Multiplicity = 1
 o                     7.25028  -9.85963  -13.10346 
 o                     10.08491  -9.603    -13.69441 
 o                     8.45159  -10.63558  -15.68593 
 o                     10.6752  -11.92516  -15.81919 
 h                     7.12066  -10.22147  -13.9801 
 h                     7.34148  -10.62674  -12.53826 
 h                     9.83796  -9.87791  -14.5774 
 h                     9.26711  -9.62837  -13.19764 
 h                     8.12504  -10.40686  -16.55615 
 h                     9.26219  -11.11661  -15.85257 
 h                     11.14537  -12.25972  -15.05549 
 h                     10.76936  -12.61226  -16.47894 
 
 ITRead=  0  0  0  0  0  0  0  0  0  0  0  0
 MicOpt= -1 -1 -1 -1 -1 -1 -1 -1 -1 -1 -1 -1
 NAtoms=     12 NQM=       12 NQMF=       0 NMMI=      0 NMMIF=      0
                NMic=       0 NMicF=      0.
                    Isotopes and Nuclear Properties:
 (Nuclear quadrupole moments (NQMom) in fm**2, nuclear magnetic moments (NMagM)
  in nuclear magnetons)

  Atom         1           2           3           4           5           6           7           8           9          10
 IAtWgt=          16          16          16          16           1           1           1           1           1           1
 AtmWgt=  15.9949146  15.9949146  15.9949146  15.9949146   1.0078250   1.0078250   1.0078250   1.0078250   1.0078250   1.0078250
 NucSpn=           0           0           0           0           1           1           1           1           1           1
 AtZEff=  -0.0000000  -0.0000000  -0.0000000  -0.0000000  -0.0000000  -0.0000000  -0.0000000  -0.0000000  -0.0000000  -0.0000000
 NQMom=    0.0000000   0.0000000   0.0000000   0.0000000   0.0000000   0.0000000   0.0000000   0.0000000   0.0000000   0.0000000
 NMagM=    0.0000000   0.0000000   0.0000000   0.0000000   2.7928460   2.7928460   2.7928460   2.7928460   2.7928460   2.7928460
 AtZNuc=   8.0000000   8.0000000   8.0000000   8.0000000   1.0000000   1.0000000   1.0000000   1.0000000   1.0000000   1.0000000

  Atom        11          12
 IAtWgt=           1           1
 AtmWgt=   1.0078250   1.0078250
 NucSpn=           1           1
 AtZEff=  -0.0000000  -0.0000000
 NQMom=    0.0000000   0.0000000
 NMagM=    2.7928460   2.7928460
 AtZNuc=   1.0000000   1.0000000
 Background charge distribution read from input stream:
 Point Charges:
 XYZ=    8.3923  -11.8129  -11.2005 Q=   -1.0561 A=    0.0000 R=    0.0000 C=    0.0000
 XYZ=    8.1753  -12.5378  -10.6142 Q=    0.5233 A=    0.0000 R=    0.0000 C=    0.0000
 XYZ=    9.2522  -11.5141  -10.9045 Q=    0.5177 A=    0.0000 R=    0.0000 C=    0.0000
 XYZ=   10.7060  -10.8489  -10.0915 Q=   -1.0357 A=    0.0000 R=    0.0000 C=    0.0000
 XYZ=   11.5214  -11.3203   -9.9208 Q=    0.5206 A=    0.0000 R=    0.0000 C=    0.0000
 XYZ=   10.5678  -10.3169   -9.3078 Q=    0.5156 A=    0.0000 R=    0.0000 C=    0.0000
 XYZ=    8.6932  -14.0693   -9.5471 Q=   -1.0099 A=    0.0000 R=    0.0000 C=    0.0000
 XYZ=    8.2201  -13.7327   -8.7861 Q=    0.4999 A=    0.0000 R=    0.0000 C=    0.0000
 XYZ=    8.5528  -15.0157   -9.5178 Q=    0.5079 A=    0.0000 R=    0.0000 C=    0.0000
 XYZ=    5.5704  -12.7600  -10.7338 Q=   -1.0500 A=    0.0000 R=    0.0000 C=    0.0000
 XYZ=    4.6427  -12.8278  -10.5079 Q=    0.5214 A=    0.0000 R=    0.0000 C=    0.0000
 XYZ=    5.9838  -12.4052   -9.9468 Q=    0.5064 A=    0.0000 R=    0.0000 C=    0.0000
 XYZ=    6.9662   -9.2478  -10.2743 Q=   -1.0324 A=    0.0000 R=    0.0000 C=    0.0000
 XYZ=    6.9752   -9.8450  -11.0223 Q=    0.5142 A=    0.0000 R=    0.0000 C=    0.0000
 XYZ=    7.6844   -8.6385  -10.4451 Q=    0.5185 A=    0.0000 R=    0.0000 C=    0.0000
 XYZ=    6.9426  -11.8294   -8.3710 Q=   -1.0528 A=    0.0000 R=    0.0000 C=    0.0000
 XYZ=    7.4956  -12.0911   -7.6348 Q=    0.5210 A=    0.0000 R=    0.0000 C=    0.0000
 XYZ=    7.3075  -10.9928   -8.6597 Q=    0.5255 A=    0.0000 R=    0.0000 C=    0.0000
 XYZ=    9.7397  -14.5602  -13.0841 Q=   -1.0029 A=    0.0000 R=    0.0000 C=    0.0000
 XYZ=    9.4367  -13.9209  -12.4394 Q=    0.5215 A=    0.0000 R=    0.0000 C=    0.0000
 XYZ=   10.6527  -14.3230  -13.2466 Q=    0.4988 A=    0.0000 R=    0.0000 C=    0.0000
 XYZ=    9.4738   -7.9972  -10.9180 Q=   -0.9971 A=    0.0000 R=    0.0000 C=    0.0000
 XYZ=    9.9975   -8.7956  -10.8516 Q=    0.5301 A=    0.0000 R=    0.0000 C=    0.0000
 XYZ=    9.6234   -7.5424  -10.0892 Q=    0.4920 A=    0.0000 R=    0.0000 C=    0.0000
 XYZ=    4.0391  -11.2243  -12.8044 Q=   -0.9921 A=    0.0000 R=    0.0000 C=    0.0000
 XYZ=    4.5248  -12.0476  -12.7552 Q=    0.4802 A=    0.0000 R=    0.0000 C=    0.0000
 XYZ=    4.4321  -10.7575  -13.5420 Q=    0.5046 A=    0.0000 R=    0.0000 C=    0.0000
 XYZ=    5.5848  -15.5922  -11.4699 Q=   -1.0129 A=    0.0000 R=    0.0000 C=    0.0000
 XYZ=    4.6785  -15.3483  -11.6582 Q=    0.5050 A=    0.0000 R=    0.0000 C=    0.0000
 XYZ=    6.0031  -14.7735  -11.2032 Q=    0.5257 A=    0.0000 R=    0.0000 C=    0.0000
 XYZ=    8.8013  -12.4259   -6.4973 Q=   -0.9852 A=    0.0000 R=    0.0000 C=    0.0000
 XYZ=    9.0556  -11.7490   -5.8701 Q=    0.5006 A=    0.0000 R=    0.0000 C=    0.0000
 XYZ=    8.9395  -13.2499   -6.0303 Q=    0.5083 A=    0.0000 R=    0.0000 C=    0.0000
 XYZ=   10.5523   -9.0602   -7.7657 Q=   -0.9799 A=    0.0000 R=    0.0000 C=    0.0000
 XYZ=   10.0296   -9.4526   -7.0665 Q=    0.5003 A=    0.0000 R=    0.0000 C=    0.0000
 XYZ=   10.0576   -8.2839   -8.0284 Q=    0.4937 A=    0.0000 R=    0.0000 C=    0.0000
 XYZ=    8.4919  -14.1596  -15.7110 Q=   -0.9823 A=    0.0000 R=    0.0000 C=    0.0000
 XYZ=    8.8439  -15.0437  -15.8144 Q=    0.4799 A=    0.0000 R=    0.0000 C=    0.0000
 XYZ=    8.9183  -13.8221  -14.9233 Q=    0.4950 A=    0.0000 R=    0.0000 C=    0.0000
 XYZ=    7.7593  -16.5050  -13.2460 Q=   -1.0112 A=    0.0000 R=    0.0000 C=    0.0000
 XYZ=    7.3079  -16.2111  -12.4547 Q=    0.4926 A=    0.0000 R=    0.0000 C=    0.0000
 XYZ=    8.5373  -15.9498  -13.2987 Q=    0.4973 A=    0.0000 R=    0.0000 C=    0.0000
 XYZ=   13.4576  -11.7733   -9.7740 Q=   -0.9993 A=    0.0000 R=    0.0000 C=    0.0000
 XYZ=   13.9089  -10.9962  -10.1037 Q=    0.5128 A=    0.0000 R=    0.0000 C=    0.0000
 XYZ=   14.1508  -12.4236   -9.6612 Q=    0.5076 A=    0.0000 R=    0.0000 C=    0.0000
 XYZ=    5.5914  -15.5335   -8.7002 Q=   -1.0162 A=    0.0000 R=    0.0000 C=    0.0000
 XYZ=    6.3093  -16.0707   -8.3652 Q=    0.4831 A=    0.0000 R=    0.0000 C=    0.0000
 XYZ=    5.4763  -15.8239   -9.6050 Q=    0.5237 A=    0.0000 R=    0.0000 C=    0.0000
 XYZ=    5.3398  -11.2122  -15.4745 Q=   -0.9760 A=    0.0000 R=    0.0000 C=    0.0000
 XYZ=    5.8801  -10.4587  -15.7120 Q=    0.4863 A=    0.0000 R=    0.0000 C=    0.0000
 XYZ=    5.4896  -11.8457  -16.1763 Q=    0.4965 A=    0.0000 R=    0.0000 C=    0.0000
 XYZ=   12.9960  -14.7139  -11.2100 Q=   -0.9778 A=    0.0000 R=    0.0000 C=    0.0000
 XYZ=   12.2864  -15.1619  -10.7497 Q=    0.5059 A=    0.0000 R=    0.0000 C=    0.0000
 XYZ=   13.6357  -14.5124  -10.5270 Q=    0.4638 A=    0.0000 R=    0.0000 C=    0.0000
 XYZ=    4.6413   -8.1383  -12.6711 Q=   -0.9897 A=    0.0000 R=    0.0000 C=    0.0000
 XYZ=    4.5978   -7.2720  -12.2662 Q=    0.4876 A=    0.0000 R=    0.0000 C=    0.0000
 XYZ=    5.5765   -8.3384  -12.7100 Q=    0.4969 A=    0.0000 R=    0.0000 C=    0.0000
 XYZ=    8.9611  -17.0167   -9.2755 Q=   -0.9921 A=    0.0000 R=    0.0000 C=    0.0000
 XYZ=    8.6736  -17.2191   -8.3852 Q=    0.5092 A=    0.0000 R=    0.0000 C=    0.0000
 XYZ=    8.3026  -17.4234   -9.8386 Q=    0.5103 A=    0.0000 R=    0.0000 C=    0.0000
 XYZ=   12.8900   -9.6906  -13.7511 Q=   -0.9984 A=    0.0000 R=    0.0000 C=    0.0000
 XYZ=   13.4884   -9.8459  -13.0204 Q=    0.4670 A=    0.0000 R=    0.0000 C=    0.0000
 XYZ=   12.0171   -9.7427  -13.3618 Q=    0.5160 A=    0.0000 R=    0.0000 C=    0.0000
 XYZ=    4.9070   -7.9100   -9.1300 Q=   -1.0105 A=    0.0000 R=    0.0000 C=    0.0000
 XYZ=    4.0635   -8.0265   -9.5674 Q=    0.4764 A=    0.0000 R=    0.0000 C=    0.0000
 XYZ=    5.4227   -8.6710   -9.3968 Q=    0.5176 A=    0.0000 R=    0.0000 C=    0.0000
 XYZ=    2.9547  -12.7024   -9.8757 Q=   -0.9915 A=    0.0000 R=    0.0000 C=    0.0000
 XYZ=    3.0641  -13.5048   -9.3654 Q=    0.5019 A=    0.0000 R=    0.0000 C=    0.0000
 XYZ=    2.7384  -12.0329   -9.2268 Q=    0.5105 A=    0.0000 R=    0.0000 C=    0.0000
 XYZ=    4.2108  -13.3306   -7.5546 Q=   -1.0293 A=    0.0000 R=    0.0000 C=    0.0000
 XYZ=    4.9638  -12.7453   -7.4735 Q=    0.4979 A=    0.0000 R=    0.0000 C=    0.0000
 XYZ=    4.5835  -14.1618   -7.8486 Q=    0.5197 A=    0.0000 R=    0.0000 C=    0.0000
 XYZ=    8.5389   -6.2611  -12.9484 Q=   -1.0019 A=    0.0000 R=    0.0000 C=    0.0000
 XYZ=    8.8800   -6.8491  -12.2745 Q=    0.5098 A=    0.0000 R=    0.0000 C=    0.0000
 XYZ=    9.2767   -6.1230  -13.5423 Q=    0.4773 A=    0.0000 R=    0.0000 C=    0.0000
 XYZ=   11.4715  -15.3553   -7.5180 Q=   -1.0197 A=    0.0000 R=    0.0000 C=    0.0000
 XYZ=   10.8644  -15.3558   -8.2581 Q=    0.4753 A=    0.0000 R=    0.0000 C=    0.0000
 XYZ=   11.9075  -14.5045   -7.5658 Q=    0.5146 A=    0.0000 R=    0.0000 C=    0.0000
 XYZ=   12.8138  -13.0185   -7.3663 Q=   -0.9959 A=    0.0000 R=    0.0000 C=    0.0000
 XYZ=   12.4819  -12.4171   -6.6996 Q=    0.4994 A=    0.0000 R=    0.0000 C=    0.0000
 XYZ=   12.6552  -12.5682   -8.1960 Q=    0.5110 A=    0.0000 R=    0.0000 C=    0.0000
 XYZ=   11.3245  -17.0116  -10.7628 Q=   -1.0019 A=    0.0000 R=    0.0000 C=    0.0000
 XYZ=   11.7165  -17.8633  -10.5702 Q=    0.4876 A=    0.0000 R=    0.0000 C=    0.0000
 XYZ=   10.4428  -17.0644  -10.3939 Q=    0.5095 A=    0.0000 R=    0.0000 C=    0.0000
 Pt Chg Charge=             -0.0081 electrons
 Pt Chg Dipole moment (Debye):
    X=             16.2724    Y=              0.3293    Z=             20.7533  Tot=             26.3742
 Pt Chg Quadrupole moment (Debye-Ang):
   XX=            253.0516   YY=             16.3958   ZZ=           -416.1741
   XY=           -143.2956   XZ=              4.3905   YZ=           -260.7041
 Pt Chg Traceless Quadrupole moment (Debye-Ang):
   XX=            301.9605   YY=             65.3047   ZZ=           -367.2652
   XY=           -143.2956   XZ=              4.3905   YZ=           -260.7041
 Pt Chg Octapole moment (Debye-Ang**2):
  XXX=           3313.3929  YYY=           -943.4860  ZZZ=           6502.9991  XYY=           1311.3038
  XXY=          -2146.6992  XXZ=          -1033.6620  XZZ=          -1767.7392  YZZ=           5349.8236
  YYZ=           3275.3124  XYZ=           -615.7664
 Pt Chg Hexadecapole moment (Debye-Ang**3):
 XXXX=          43934.1255 YYYY=          30905.4463 ZZZZ=         -92028.2762 XXXY=         -27898.9945
 XXXZ=         -18920.6926 YYYX=         -15272.4996 YYYZ=         -38897.7737 ZZZX=          37817.0824
 ZZZY=         -85303.3858 XXYY=          17379.3290 XXZZ=          -6114.8976 YYZZ=         -70935.0197
 XXYZ=           4145.8325 YYXZ=          13415.0110 ZZXY=          28190.2426
 Leave Link  101 at Fri May 15 22:35:43 2020, MaxMem=   134217728 cpu:               0.5 elap:               0.1
 (Enter /home/soft/g16/l202.exe)
                          Input orientation:                          
 ---------------------------------------------------------------------
 Center     Atomic      Atomic             Coordinates (Angstroms)
 Number     Number       Type             X           Y           Z
 ---------------------------------------------------------------------
      1          8           0        7.250284   -9.859627  -13.103456
      2          8           0       10.084912   -9.602997  -13.694410
      3          8           0        8.451586  -10.635579  -15.685931
      4          8           0       10.675204  -11.925165  -15.819193
      5          1           0        7.120660  -10.221473  -13.980096
      6          1           0        7.341484  -10.626744  -12.538261
      7          1           0        9.837963   -9.877914  -14.577398
      8          1           0        9.267108   -9.628370  -13.197635
      9          1           0        8.125035  -10.406856  -16.556152
     10          1           0        9.262189  -11.116608  -15.852568
     11          1           0       11.145373  -12.259719  -15.055487
     12          1           0       10.769363  -12.612255  -16.478945
 ---------------------------------------------------------------------
                    Distance matrix (angstroms):
                    1          2          3          4          5
     1  O    0.000000
     2  O    2.906923   0.000000
     3  O    2.952017   2.774912   0.000000
     4  O    4.834434   3.202438   2.573960   0.000000
     5  H    0.957200   3.041532   2.202889   4.349670   0.000000
     6  H    0.957200   3.148196   3.337698   4.854287   1.513901
     7  H    2.978074   0.957200   1.930011   2.536585   2.803308
     8  H    2.032223   0.957200   2.805559   3.759065   2.360351
     9  H    3.603576   3.560460   0.957201   3.058060   2.771137
    10  H    3.631168   2.761438   0.957201   1.628340   2.982208
    11  H    4.974192   3.167851   3.208080   0.957200   4.637804
    12  H    5.599536   4.156650   3.147731   0.957200   5.027238
                    6          7          8          9         10
     6  H    0.000000
     7  H    3.309265   0.000000
     8  H    2.267058   1.513900   0.000000
     9  H    4.099482   2.670088   3.631805   0.000000
    10  H    3.861827   1.868673   3.043607   1.513901   0.000000
    11  H    4.844854   2.758783   3.728739   3.848056   2.342738
    12  H    5.587629   3.458324   4.682663   3.444157   2.213793
                   11         12
    11  H    0.000000
    12  H    1.513902   0.000000
 Symmetry turned off by external request.
 Stoichiometry    H8O4
 Framework group  C1[X(H8O4)]
 Deg. of freedom    30
 Full point group                 C1      NOp   1
 Rotational constants (GHZ):           5.9797011           2.1823371           1.7669128
 Leave Link  202 at Fri May 15 22:35:43 2020, MaxMem=   134217728 cpu:               0.0 elap:               0.0
 (Enter /home/soft/g16/l301.exe)
 Standard basis: 6-31G(d,p) (5D, 7F)
 Ernie: Thresh=  0.10000D-02 Tol=  0.10000D-05 Strict=F.
    96 basis functions,   168 primitive gaussians,   100 cartesian basis functions
    20 alpha electrons       20 beta electrons
       nuclear repulsion energy       140.3149992445 Hartrees.
 IExCor=    0 DFT=F Ex=HF Corr=None ExCW=0 ScaHFX=  1.000000
 ScaDFX=  1.000000  1.000000  1.000000  1.000000 ScalE2=  1.000000  1.000000
 IRadAn=      5 IRanWt=     -1 IRanGd=            0 ICorTp=0 IEmpDi=  4
 NAtoms=   12 NActive=   12 NUniq=   12 SFac= 1.00D+00 NAtFMM=   60 NAOKFM=F Big=F
 Integral buffers will be    131072 words long.
 Raffenetti 1 integral format.
 Two-electron integral symmetry is turned off.
 Background charge distribution read from rwf.
 PtFMM for NChg=        96 BoxLen=    40.00 Levels= 1 LMax=20 SMax=    22.2 ICnFMM=     1:
 Self energy of the charges =       -13.5515395873 a.u.
 MM   energy of the charges =         0.0000000000 a.u.
 Nuclei-charges interaction =        -0.2806565457 a.u.
 Nuclear repulsion after external point charges =      126.4828031115 Hartrees.
 Leave Link  301 at Fri May 15 22:35:43 2020, MaxMem=   134217728 cpu:               0.2 elap:               0.1
 (Enter /home/soft/g16/l302.exe)
 NPDir=0 NMtPBC=     1 NCelOv=     1 NCel=       1 NClECP=     1 NCelD=      1
         NCelK=      1 NCelE2=     1 NClLst=     1 CellRange=     0.0.
 One-electron integrals computed using PRISM.
 NBasis=    96 RedAO= T EigKep=  2.00D-02  NBF=    96
 NBsUse=    96 1.00D-06 EigRej= -1.00D+00 NBFU=    96
 Leave Link  302 at Fri May 15 22:35:43 2020, MaxMem=   134217728 cpu:               0.5 elap:               0.1
 (Enter /home/soft/g16/l303.exe)
 DipDrv:  MaxL=1.
 Leave Link  303 at Fri May 15 22:35:43 2020, MaxMem=   134217728 cpu:               0.1 elap:               0.0
 (Enter /home/soft/g16/l401.exe)
 ExpMin= 1.61D-01 ExpMax= 5.48D+03 ExpMxC= 8.25D+02 IAcc=3 IRadAn=         5 AccDes= 0.00D+00
 Harris functional with IExCor=  205 and IRadAn=       5 diagonalized for initial guess.
 HarFok:  IExCor=  205 AccDes= 0.00D+00 IRadAn=         5 IDoV= 1 UseB2=F ITyADJ=14
 ICtDFT=  3500011 ScaDFX=  1.000000  1.000000  1.000000  1.000000
 FoFCou: FMM=F IPFlag=           0 FMFlag=      100000 FMFlg1=           0
         NFxFlg=           0 DoJE=T BraDBF=F KetDBF=T FulRan=T
         wScrn=  0.000000 ICntrl=       500 IOpCl=  0 I1Cent=   200000004 NGrid=           0
         NMat0=    1 NMatS0=      1 NMatT0=    0 NMatD0=    1 NMtDS0=    0 NMtDT0=    0
 Symmetry not used in FoFCou.
 Harris En= -318.060109765896    
 JPrj=0 DoOrth=F DoCkMO=F.
 Leave Link  401 at Fri May 15 22:35:44 2020, MaxMem=   134217728 cpu:               1.8 elap:               0.5
 (Enter /home/soft/g16/l502.exe)
 Keep R1 ints in memory in canonical form, NReq=11714346.
 FoFCou: FMM=F IPFlag=           0 FMFlag=           0 FMFlg1=           0
         NFxFlg=           0 DoJE=F BraDBF=F KetDBF=F FulRan=T
         wScrn=  0.000000 ICntrl=       600 IOpCl=  0 I1Cent=           0 NGrid=           0
         NMat0=    1 NMatS0=   4656 NMatT0=    0 NMatD0=    1 NMtDS0=    0 NMtDT0=    0
 Symmetry not used in FoFCou.
 Two-electron integral symmetry not used.
 Closed shell SCF:
 Using DIIS extrapolation, IDIIS=  1040.
 NGot=   134217728 LenX=   123354636 LenY=   123344195
 Requested convergence on RMS density matrix=1.00D-08 within 128 cycles.
 Requested convergence on MAX density matrix=1.00D-06.
 Requested convergence on             energy=1.00D-06.
 No special actions if energy rises.

 Cycle   1  Pass 1  IDiag  1:
 E= -317.408301309224    
 DIIS: error= 4.45D-02 at cycle   1 NSaved=   1.
 NSaved= 1 IEnMin= 1 EnMin= -317.408301309224     IErMin= 1 ErrMin= 4.45D-02
 ErrMax= 4.45D-02  0.00D+00 EMaxC= 1.00D-01 BMatC= 4.39D-01 BMatP= 4.39D-01
 IDIUse=3 WtCom= 5.55D-01 WtEn= 4.45D-01
 Coeff-Com:  0.100D+01
 Coeff-En:   0.100D+01
 Coeff:      0.100D+01
 Gap=     0.644 Goal=   None    Shift=    0.000
 GapD=    0.644 DampG=2.000 DampE=0.500 DampFc=1.0000 IDamp=-1.
 RMSDP=5.59D-03 MaxDP=1.25D-01              OVMax= 1.13D-01

 Cycle   2  Pass 1  IDiag  1:
 E= -317.611812793850     Delta-E=       -0.203511484626 Rises=F Damp=F
 DIIS: error= 2.04D-02 at cycle   2 NSaved=   2.
 NSaved= 2 IEnMin= 2 EnMin= -317.611812793850     IErMin= 2 ErrMin= 2.04D-02
 ErrMax= 2.04D-02  0.00D+00 EMaxC= 1.00D-01 BMatC= 1.23D-01 BMatP= 4.39D-01
 IDIUse=3 WtCom= 7.96D-01 WtEn= 2.04D-01
 Coeff-Com:  0.332D+00 0.668D+00
 Coeff-En:   0.439D-01 0.956D+00
 Coeff:      0.273D+00 0.727D+00
 Gap=     0.646 Goal=   None    Shift=    0.000
 RMSDP=2.43D-03 MaxDP=5.01D-02 DE=-2.04D-01 OVMax= 4.33D-02

 Cycle   3  Pass 1  IDiag  1:
 E= -317.694017043946     Delta-E=       -0.082204250096 Rises=F Damp=F
 DIIS: error= 3.51D-03 at cycle   3 NSaved=   3.
 NSaved= 3 IEnMin= 3 EnMin= -317.694017043946     IErMin= 3 ErrMin= 3.51D-03
 ErrMax= 3.51D-03  0.00D+00 EMaxC= 1.00D-01 BMatC= 2.48D-03 BMatP= 1.23D-01
 IDIUse=3 WtCom= 9.65D-01 WtEn= 3.51D-02
 Coeff-Com: -0.321D-01 0.752D-01 0.957D+00
 Coeff-En:   0.000D+00 0.000D+00 0.100D+01
 Coeff:     -0.310D-01 0.726D-01 0.958D+00
 Gap=     0.638 Goal=   None    Shift=    0.000
 RMSDP=3.28D-04 MaxDP=7.42D-03 DE=-8.22D-02 OVMax= 7.91D-03

 Cycle   4  Pass 1  IDiag  1:
 E= -317.696018923649     Delta-E=       -0.002001879702 Rises=F Damp=F
 DIIS: error= 4.48D-04 at cycle   4 NSaved=   4.
 NSaved= 4 IEnMin= 4 EnMin= -317.696018923649     IErMin= 4 ErrMin= 4.48D-04
 ErrMax= 4.48D-04  0.00D+00 EMaxC= 1.00D-01 BMatC= 2.87D-05 BMatP= 2.48D-03
 IDIUse=3 WtCom= 9.96D-01 WtEn= 4.48D-03
 Coeff-Com:  0.505D-02-0.316D-01-0.260D+00 0.129D+01
 Coeff-En:   0.000D+00 0.000D+00 0.000D+00 0.100D+01
 Coeff:      0.503D-02-0.314D-01-0.259D+00 0.129D+01
 Gap=     0.639 Goal=   None    Shift=    0.000
 RMSDP=1.00D-04 MaxDP=1.87D-03 DE=-2.00D-03 OVMax= 2.58D-03

 Cycle   5  Pass 1  IDiag  1:
 E= -317.696077732710     Delta-E=       -0.000058809062 Rises=F Damp=F
 DIIS: error= 1.38D-04 at cycle   5 NSaved=   5.
 NSaved= 5 IEnMin= 5 EnMin= -317.696077732710     IErMin= 5 ErrMin= 1.38D-04
 ErrMax= 1.38D-04  0.00D+00 EMaxC= 1.00D-01 BMatC= 3.57D-06 BMatP= 2.87D-05
 IDIUse=3 WtCom= 9.99D-01 WtEn= 1.38D-03
 Coeff-Com:  0.332D-02-0.133D-01-0.127D+00 0.327D+00 0.810D+00
 Coeff-En:   0.000D+00 0.000D+00 0.000D+00 0.000D+00 0.100D+01
 Coeff:      0.331D-02-0.133D-01-0.127D+00 0.326D+00 0.810D+00
 Gap=     0.641 Goal=   None    Shift=    0.000
 RMSDP=2.20D-05 MaxDP=4.06D-04 DE=-5.88D-05 OVMax= 4.59D-04

 Cycle   6  Pass 1  IDiag  1:
 E= -317.696082042286     Delta-E=       -0.000004309576 Rises=F Damp=F
 DIIS: error= 4.57D-05 at cycle   6 NSaved=   6.
 NSaved= 6 IEnMin= 6 EnMin= -317.696082042286     IErMin= 6 ErrMin= 4.57D-05
 ErrMax= 4.57D-05  0.00D+00 EMaxC= 1.00D-01 BMatC= 2.11D-07 BMatP= 3.57D-06
 IDIUse=1 WtCom= 1.00D+00 WtEn= 0.00D+00
 Coeff-Com: -0.511D-03 0.321D-02 0.289D-01-0.143D+00-0.152D-01 0.113D+01
 Coeff:     -0.511D-03 0.321D-02 0.289D-01-0.143D+00-0.152D-01 0.113D+01
 Gap=     0.641 Goal=   None    Shift=    0.000
 RMSDP=9.02D-06 MaxDP=2.08D-04 DE=-4.31D-06 OVMax= 2.30D-04

 Cycle   7  Pass 1  IDiag  1:
 E= -317.696082436604     Delta-E=       -0.000000394318 Rises=F Damp=F
 DIIS: error= 4.42D-06 at cycle   7 NSaved=   7.
 NSaved= 7 IEnMin= 7 EnMin= -317.696082436604     IErMin= 7 ErrMin= 4.42D-06
 ErrMax= 4.42D-06  0.00D+00 EMaxC= 1.00D-01 BMatC= 4.73D-09 BMatP= 2.11D-07
 IDIUse=1 WtCom= 1.00D+00 WtEn= 0.00D+00
 Coeff-Com: -0.860D-04 0.274D-03 0.282D-02-0.207D-02-0.322D-01-0.814D-01
 Coeff-Com:  0.111D+01
 Coeff:     -0.860D-04 0.274D-03 0.282D-02-0.207D-02-0.322D-01-0.814D-01
 Coeff:      0.111D+01
 Gap=     0.641 Goal=   None    Shift=    0.000
 RMSDP=1.36D-06 MaxDP=2.38D-05 DE=-3.94D-07 OVMax= 2.96D-05

 Cycle   8  Pass 1  IDiag  1:
 E= -317.696082446636     Delta-E=       -0.000000010032 Rises=F Damp=F
 DIIS: error= 1.26D-06 at cycle   8 NSaved=   8.
 NSaved= 8 IEnMin= 8 EnMin= -317.696082446636     IErMin= 8 ErrMin= 1.26D-06
 ErrMax= 1.26D-06  0.00D+00 EMaxC= 1.00D-01 BMatC= 3.18D-10 BMatP= 4.73D-09
 IDIUse=1 WtCom= 1.00D+00 WtEn= 0.00D+00
 Coeff-Com:  0.322D-04-0.171D-03-0.162D-02 0.625D-02 0.536D-02-0.307D-01
 Coeff-Com: -0.159D+00 0.118D+01
 Coeff:      0.322D-04-0.171D-03-0.162D-02 0.625D-02 0.536D-02-0.307D-01
 Coeff:     -0.159D+00 0.118D+01
 Gap=     0.641 Goal=   None    Shift=    0.000
 RMSDP=2.86D-07 MaxDP=5.39D-06 DE=-1.00D-08 OVMax= 7.32D-06

 Cycle   9  Pass 1  IDiag  1:
 E= -317.696082447241     Delta-E=       -0.000000000605 Rises=F Damp=F
 DIIS: error= 4.39D-07 at cycle   9 NSaved=   9.
 NSaved= 9 IEnMin= 9 EnMin= -317.696082447241     IErMin= 9 ErrMin= 4.39D-07
 ErrMax= 4.39D-07  0.00D+00 EMaxC= 1.00D-01 BMatC= 5.17D-11 BMatP= 3.18D-10
 IDIUse=1 WtCom= 1.00D+00 WtEn= 0.00D+00
 Coeff-Com:  0.165D-04-0.722D-04-0.701D-03 0.191D-02 0.449D-02-0.581D-03
 Coeff-Com: -0.148D+00 0.322D+00 0.821D+00
 Coeff:      0.165D-04-0.722D-04-0.701D-03 0.191D-02 0.449D-02-0.581D-03
 Coeff:     -0.148D+00 0.322D+00 0.821D+00
 Gap=     0.641 Goal=   None    Shift=    0.000
 RMSDP=7.48D-08 MaxDP=1.73D-06 DE=-6.05D-10 OVMax= 1.85D-06

 Cycle  10  Pass 1  IDiag  1:
 E= -317.696082447299     Delta-E=       -0.000000000059 Rises=F Damp=F
 DIIS: error= 9.35D-08 at cycle  10 NSaved=  10.
 NSaved=10 IEnMin=10 EnMin= -317.696082447299     IErMin=10 ErrMin= 9.35D-08
 ErrMax= 9.35D-08  0.00D+00 EMaxC= 1.00D-01 BMatC= 1.86D-12 BMatP= 5.17D-11
 IDIUse=1 WtCom= 1.00D+00 WtEn= 0.00D+00
 Coeff-Com: -0.388D-05 0.195D-04 0.189D-03-0.694D-03-0.733D-03 0.281D-02
 Coeff-Com:  0.227D-01-0.115D+00-0.607D-01 0.115D+01
 Coeff:     -0.388D-05 0.195D-04 0.189D-03-0.694D-03-0.733D-03 0.281D-02
 Coeff:      0.227D-01-0.115D+00-0.607D-01 0.115D+01
 Gap=     0.641 Goal=   None    Shift=    0.000
 RMSDP=2.41D-08 MaxDP=3.36D-07 DE=-5.85D-11 OVMax= 6.24D-07

 Cycle  11  Pass 1  IDiag  1:
 E= -317.696082447305     Delta-E=       -0.000000000005 Rises=F Damp=F
 DIIS: error= 2.06D-08 at cycle  11 NSaved=  11.
 NSaved=11 IEnMin=11 EnMin= -317.696082447305     IErMin=11 ErrMin= 2.06D-08
 ErrMax= 2.06D-08  0.00D+00 EMaxC= 1.00D-01 BMatC= 7.96D-14 BMatP= 1.86D-12
 IDIUse=1 WtCom= 1.00D+00 WtEn= 0.00D+00
 Coeff-Com: -0.396D-06 0.156D-05 0.151D-04-0.279D-04-0.136D-03-0.225D-03
 Coeff-Com:  0.450D-02-0.309D-02-0.330D-01-0.135D+00 0.117D+01
 Coeff:     -0.396D-06 0.156D-05 0.151D-04-0.279D-04-0.136D-03-0.225D-03
 Coeff:      0.450D-02-0.309D-02-0.330D-01-0.135D+00 0.117D+01
 Gap=     0.641 Goal=   None    Shift=    0.000
 RMSDP=6.38D-09 MaxDP=9.82D-08 DE=-5.46D-12 OVMax= 1.66D-07

 SCF Done:  E(RHF) =  -317.696082447     A.U. after   11 cycles
            NFock= 11  Conv=0.64D-08     -V/T= 2.0460
 KE= 3.037327812501D+02 PE=-1.003128854120D+03 EE= 2.552171873113D+02
 Leave Link  502 at Fri May 15 22:35:44 2020, MaxMem=   134217728 cpu:               1.4 elap:               0.5
 (Enter /home/soft/g16/l601.exe)
 Copying SCF densities to generalized density rwf, IOpCl= 0 IROHF=0.

 **********************************************************************

            Population analysis using the SCF density.

 **********************************************************************

 Alpha  occ. eigenvalues --  -20.59420 -20.54132 -20.52946 -20.50388  -1.38308
 Alpha  occ. eigenvalues --   -1.33359  -1.31434  -1.28940  -0.74043  -0.72656
 Alpha  occ. eigenvalues --   -0.68078  -0.65568  -0.61385  -0.56706  -0.55171
 Alpha  occ. eigenvalues --   -0.53409  -0.52500  -0.48094  -0.46464  -0.45085
 Alpha virt. eigenvalues --    0.18994   0.24262   0.28511   0.29404   0.36615
 Alpha virt. eigenvalues --    0.39690   0.45300   0.49951   0.94979   0.98822
 Alpha virt. eigenvalues --    1.04006   1.04803   1.06456   1.09268   1.11331
 Alpha virt. eigenvalues --    1.14295   1.14588   1.16918   1.19665   1.22296
 Alpha virt. eigenvalues --    1.25141   1.28916   1.32617   1.34823   1.36401
 Alpha virt. eigenvalues --    1.39484   1.41650   1.50761   1.60740   1.68159
 Alpha virt. eigenvalues --    1.73821   1.77013   1.79522   1.80430   1.81511
 Alpha virt. eigenvalues --    1.85857   1.86362   1.89041   1.91181   1.93874
 Alpha virt. eigenvalues --    1.96613   2.00190   2.00929   2.06909   2.51831
 Alpha virt. eigenvalues --    2.55989   2.60513   2.61627   2.63932   2.68251
 Alpha virt. eigenvalues --    2.69135   2.73793   2.78362   2.85130   2.87556
 Alpha virt. eigenvalues --    2.91103   2.94608   2.98383   3.02235   3.04468
 Alpha virt. eigenvalues --    3.05027   3.05371   3.07820   3.15265   3.35514
 Alpha virt. eigenvalues --    3.41443   3.42215   3.50854   3.73543   3.79078
 Alpha virt. eigenvalues --    3.84240   3.86145   3.90472   3.98508   4.05519
 Alpha virt. eigenvalues --    4.13792
          Condensed to atoms (all electrons):
               1          2          3          4          5          6
     1  O    8.114904  -0.010349  -0.004977  -0.000002   0.311302   0.312845
     2  O   -0.010349   8.199091  -0.012784  -0.000439   0.000898   0.000718
     3  O   -0.004977  -0.012784   8.156488  -0.030035   0.013445   0.000242
     4  O   -0.000002  -0.000439  -0.030035   8.083952   0.000017   0.000000
     5  H    0.311302   0.000898   0.013445   0.000017   0.314082  -0.019884
     6  H    0.312845   0.000718   0.000242   0.000000  -0.019884   0.318956
     7  H    0.000214   0.316834   0.024332   0.001521   0.000051   0.000063
     8  H    0.030824   0.315383   0.000223   0.000072  -0.002419  -0.001593
     9  H    0.000279   0.000517   0.306441   0.001729  -0.000774  -0.000006
    10  H    0.000315   0.001296   0.298632   0.016093  -0.000305  -0.000012
    11  H    0.000001   0.001558   0.001087   0.311525  -0.000003   0.000000
    12  H    0.000000   0.000044   0.001169   0.310241  -0.000001   0.000000
               7          8          9         10         11         12
     1  O    0.000214   0.030824   0.000279   0.000315   0.000001   0.000000
     2  O    0.316834   0.315383   0.000517   0.001296   0.001558   0.000044
     3  O    0.024332   0.000223   0.306441   0.298632   0.001087   0.001169
     4  O    0.001521   0.000072   0.001729   0.016093   0.311525   0.310241
     5  H    0.000051  -0.002419  -0.000774  -0.000305  -0.000003  -0.000001
     6  H    0.000063  -0.001593  -0.000006  -0.000012   0.000000   0.000000
     7  H    0.308750  -0.031477  -0.000550  -0.002516  -0.000719   0.000040
     8  H   -0.031477   0.312243   0.000008   0.000260  -0.000000  -0.000004
     9  H   -0.000550   0.000008   0.385942  -0.019156  -0.000030  -0.000065
    10  H   -0.002516   0.000260  -0.019156   0.275650  -0.000949  -0.002020
    11  H   -0.000719  -0.000000  -0.000030  -0.000949   0.347162  -0.020395
    12  H    0.000040  -0.000004  -0.000065  -0.002020  -0.020395   0.345274
 Mulliken charges:
               1
     1  O   -0.755356
     2  O   -0.812767
     3  O   -0.754264
     4  O   -0.694673
     5  H    0.383591
     6  H    0.388672
     7  H    0.383457
     8  H    0.376479
     9  H    0.325665
    10  H    0.432713
    11  H    0.360765
    12  H    0.365717
 Sum of Mulliken charges =  -0.00000
 Mulliken charges with hydrogens summed into heavy atoms:
               1
     1  O    0.016907
     2  O   -0.052831
     3  O    0.004114
     4  O    0.031809
 Electronic spatial extent (au):  <R**2>=          58834.4773
 Charge=             -0.0000 electrons
 Dipole moment (field-independent basis, Debye):
    X=             -0.0070    Y=             -6.1392    Z=             -3.6545  Tot=              7.1446
 Quadrupole moment (field-independent basis, Debye-Ang):
   XX=            -25.7403   YY=            106.8693   ZZ=             89.0379
   XY=            -61.0537   XZ=            -35.7100   YZ=            126.5434
 Traceless Quadrupole moment (field-independent basis, Debye-Ang):
   XX=            -82.4626   YY=             50.1470   ZZ=             32.3156
   XY=            -61.0537   XZ=            -35.7100   YZ=            126.5434
 Octapole moment (field-independent basis, Debye-Ang**2):
  XXX=           -695.0055  YYY=          -1355.4443  ZZZ=          -1575.9280  XYY=           1097.8826
  XXY=           -356.6653  XXZ=             14.4411  XZZ=            880.1030  YZZ=          -2215.7979
  YYZ=          -1947.6293  XYZ=           1266.6610
 Hexadecapole moment (field-independent basis, Debye-Ang**3):
 XXXX=         -12829.2554 YYYY=          14544.9772 ZZZZ=          23466.8116 XXXY=            775.1268
 XXXZ=           6490.5451 YYYX=         -14547.8154 YYYZ=          23965.3420 ZZZX=         -15760.4983
 ZZZY=          35312.6975 XXYY=           8731.9652 XXZZ=           3451.0365 YYZZ=          32407.4879
 XXYZ=           9077.1198 YYXZ=         -20096.9696 ZZXY=         -22373.6060
 N-N= 1.264828031115D+02 E-N=-1.003128853993D+03  KE= 3.037327812501D+02
 No NMR shielding tensors so no spin-rotation constants.
 Leave Link  601 at Fri May 15 22:35:44 2020, MaxMem=   134217728 cpu:               0.5 elap:               0.2
 (Enter /home/soft/g16/l607.exe)
 ******************************Gaussian NBO Version 3.1******************************
             N A T U R A L   A T O M I C   O R B I T A L   A N D
          N A T U R A L   B O N D   O R B I T A L   A N A L Y S I S
 ******************************Gaussian NBO Version 3.1******************************
       /RESON  / : Allow strongly delocalized NBO set

 Analyzing the SCF density

 Job title: Atom number=12                                                  

 Storage needed:     28188 in NPA ( 134216936 available)
 GSVD:  LWork=        4224 too small for GESVD, short by        5328 words or        5328 for optimal perf.


 NATURAL POPULATIONS:  Natural atomic orbital occupancies 
                                                          
   NAO  Atom  No  lang   Type(AO)    Occupancy      Energy
 ----------------------------------------------------------
     1    O    1  S      Cor( 1S)     1.99986     -20.36216
     2    O    1  S      Val( 2S)     1.75465      -1.13777
     3    O    1  S      Ryd( 3S)     0.00087       1.80756
     4    O    1  px     Val( 2p)     1.97235      -0.45960
     5    O    1  px     Ryd( 3p)     0.00080       1.31722
     6    O    1  py     Val( 2p)     1.74569      -0.39726
     7    O    1  py     Ryd( 3p)     0.00034       1.24679
     8    O    1  pz     Val( 2p)     1.55371      -0.32813
     9    O    1  pz     Ryd( 3p)     0.00163       1.32571
    10    O    1  dxy    Ryd( 3d)     0.00145       2.27454
    11    O    1  dxz    Ryd( 3d)     0.00012       2.33999
    12    O    1  dyz    Ryd( 3d)     0.00171       3.04555
    13    O    1  dx2y2  Ryd( 3d)     0.00184       2.52787
    14    O    1  dz2    Ryd( 3d)     0.00051       2.75712

    15    O    2  S      Cor( 1S)     1.99984     -20.32489
    16    O    2  S      Val( 2S)     1.73829      -1.11366
    17    O    2  S      Ryd( 3S)     0.00055       1.95146
    18    O    2  px     Val( 2p)     1.76250      -0.39020
    19    O    2  px     Ryd( 3p)     0.00066       1.26879
    20    O    2  py     Val( 2p)     1.96908      -0.43920
    21    O    2  py     Ryd( 3p)     0.00053       1.22526
    22    O    2  pz     Val( 2p)     1.58339      -0.31528
    23    O    2  pz     Ryd( 3p)     0.00175       1.41768
    24    O    2  dxy    Ryd( 3d)     0.00127       2.31142
    25    O    2  dxz    Ryd( 3d)     0.00116       2.92427
    26    O    2  dyz    Ryd( 3d)     0.00042       2.47006
    27    O    2  dx2y2  Ryd( 3d)     0.00147       2.59426
    28    O    2  dz2    Ryd( 3d)     0.00059       2.80139

    29    O    3  S      Cor( 1S)     1.99982     -20.36009
    30    O    3  S      Val( 2S)     1.74007      -1.15277
    31    O    3  S      Ryd( 3S)     0.00088       2.00009
    32    O    3  px     Val( 2p)     1.72504      -0.40950
    33    O    3  px     Ryd( 3p)     0.00136       1.35029
    34    O    3  py     Val( 2p)     1.88434      -0.44800
    35    O    3  py     Ryd( 3p)     0.00106       1.28108
    36    O    3  pz     Val( 2p)     1.67487      -0.38581
    37    O    3  pz     Ryd( 3p)     0.00068       1.37202
    38    O    3  dxy    Ryd( 3d)     0.00073       2.69392
    39    O    3  dxz    Ryd( 3d)     0.00134       2.59400
    40    O    3  dyz    Ryd( 3d)     0.00129       2.40752
    41    O    3  dx2y2  Ryd( 3d)     0.00046       2.40858
    42    O    3  dz2    Ryd( 3d)     0.00181       2.86544

    43    O    4  S      Cor( 1S)     1.99986     -20.43267
    44    O    4  S      Val( 2S)     1.74705      -1.19121
    45    O    4  S      Ryd( 3S)     0.00120       1.73150
    46    O    4  px     Val( 2p)     1.89316      -0.50062
    47    O    4  px     Ryd( 3p)     0.00123       1.32904
    48    O    4  py     Val( 2p)     1.77650      -0.46748
    49    O    4  py     Ryd( 3p)     0.00068       1.27752
    50    O    4  pz     Val( 2p)     1.55847      -0.38830
    51    O    4  pz     Ryd( 3p)     0.00208       1.28534
    52    O    4  dxy    Ryd( 3d)     0.00129       2.34328
    53    O    4  dxz    Ryd( 3d)     0.00045       2.56291
    54    O    4  dyz    Ryd( 3d)     0.00145       2.91444
    55    O    4  dx2y2  Ryd( 3d)     0.00160       2.37725
    56    O    4  dz2    Ryd( 3d)     0.00019       2.52723

    57    H    5  S      Val( 1S)     0.47223       0.40396
    58    H    5  S      Ryd( 2S)     0.00062       0.86020
    59    H    5  px     Ryd( 2p)     0.00078       2.69553
    60    H    5  py     Ryd( 2p)     0.00074       2.80222
    61    H    5  pz     Ryd( 2p)     0.00142       3.34077

    62    H    6  S      Val( 1S)     0.47524       0.40657
    63    H    6  S      Ryd( 2S)     0.00059       0.80732
    64    H    6  px     Ryd( 2p)     0.00088       2.65426
    65    H    6  py     Ryd( 2p)     0.00147       3.16887
    66    H    6  pz     Ryd( 2p)     0.00081       2.96551

    67    H    7  S      Val( 1S)     0.48072       0.41325
    68    H    7  S      Ryd( 2S)     0.00178       0.92286
    69    H    7  px     Ryd( 2p)     0.00062       2.80283
    70    H    7  py     Ryd( 2p)     0.00090       2.72476
    71    H    7  pz     Ryd( 2p)     0.00133       3.40684

    72    H    8  S      Val( 1S)     0.47679       0.41654
    73    H    8  S      Ryd( 2S)     0.00191       0.87368
    74    H    8  px     Ryd( 2p)     0.00154       3.26858
    75    H    8  py     Ryd( 2p)     0.00078       2.66181
    76    H    8  pz     Ryd( 2p)     0.00060       2.95030

    77    H    9  S      Val( 1S)     0.51710       0.32476
    78    H    9  S      Ryd( 2S)     0.00089       0.74135
    79    H    9  px     Ryd( 2p)     0.00073       2.76866
    80    H    9  py     Ryd( 2p)     0.00092       2.67515
    81    H    9  pz     Ryd( 2p)     0.00152       3.26960

    82    H   10  S      Val( 1S)     0.45891       0.40747
    83    H   10  S      Ryd( 2S)     0.00110       0.93905
    84    H   10  px     Ryd( 2p)     0.00148       3.30658
    85    H   10  py     Ryd( 2p)     0.00109       2.87639
    86    H   10  pz     Ryd( 2p)     0.00057       2.76037

    87    H   11  S      Val( 1S)     0.48489       0.32531
    88    H   11  S      Ryd( 2S)     0.00121       0.70073
    89    H   11  px     Ryd( 2p)     0.00106       2.76852
    90    H   11  py     Ryd( 2p)     0.00076       2.71170
    91    H   11  pz     Ryd( 2p)     0.00121       3.13456

    92    H   12  S      Val( 1S)     0.48491       0.32770
    93    H   12  S      Ryd( 2S)     0.00091       0.71171
    94    H   12  px     Ryd( 2p)     0.00071       2.63506
    95    H   12  py     Ryd( 2p)     0.00121       2.99656
    96    H   12  pz     Ryd( 2p)     0.00109       3.00563


 Summary of Natural Population Analysis:                  
                                                          
                                       Natural Population 
                Natural  -----------------------------------------------
    Atom  No    Charge         Core      Valence    Rydberg      Total
 -----------------------------------------------------------------------
      O    1   -1.03552      1.99986     7.02639    0.00927     9.03552
      O    2   -1.06151      1.99984     7.05326    0.00841     9.06151
      O    3   -1.03376      1.99982     7.02432    0.00962     9.03376
      O    4   -0.98520      1.99986     6.97518    0.01016     8.98520
      H    5    0.52421      0.00000     0.47223    0.00356     0.47579
      H    6    0.52100      0.00000     0.47524    0.00376     0.47900
      H    7    0.51465      0.00000     0.48072    0.00463     0.48535
      H    8    0.51838      0.00000     0.47679    0.00483     0.48162
      H    9    0.47885      0.00000     0.51710    0.00405     0.52115
      H   10    0.53686      0.00000     0.45891    0.00424     0.46314
      H   11    0.51087      0.00000     0.48489    0.00424     0.48913
      H   12    0.51118      0.00000     0.48491    0.00391     0.48882
 =======================================================================
   * Total *   -0.00000      7.99938    31.92994    0.07068    40.00000

                                 Natural Population      
 --------------------------------------------------------
   Core                       7.99938 ( 99.9922% of   8)
   Valence                   31.92994 ( 99.7811% of  32)
   Natural Minimal Basis     39.92932 ( 99.8233% of  40)
   Natural Rydberg Basis      0.07068 (  0.1767% of  40)
 --------------------------------------------------------

    Atom  No          Natural Electron Configuration
 ----------------------------------------------------------------------------
      O    1      [core]2S( 1.75)2p( 5.27)3d( 0.01)
      O    2      [core]2S( 1.74)2p( 5.31)
      O    3      [core]2S( 1.74)2p( 5.28)3d( 0.01)
      O    4      [core]2S( 1.75)2p( 5.23)
      H    5            1S( 0.47)
      H    6            1S( 0.48)
      H    7            1S( 0.48)
      H    8            1S( 0.48)
      H    9            1S( 0.52)
      H   10            1S( 0.46)
      H   11            1S( 0.48)
      H   12            1S( 0.48)


 NBO analysis skipped by request.
 Leave Link  607 at Fri May 15 22:35:45 2020, MaxMem=   134217728 cpu:               0.6 elap:               0.2
 (Enter /home/soft/g16/l9999.exe)

 Test job not archived.
 1\1\GINC-MASTER\SP\RHF\6-31G(d,p)\H8O4\LIWEI01\15-May-2020\0\\#p hf/6-
 31g** 5d 7f pop=npa charge nosymm\\Atom number=12\\0,1\O,0,7.250284,-9
 .859627,-13.103456\O,0,10.084912,-9.602997,-13.69441\O,0,8.451586,-10.
 635579,-15.685931\O,0,10.675204,-11.925165,-15.819193\H,0,7.12066,-10.
 221473,-13.980096\H,0,7.341484,-10.626744,-12.538261\H,0,9.837963,-9.8
 77914,-14.577398\H,0,9.267108,-9.62837,-13.197635\H,0,8.125035,-10.406
 856,-16.556152\H,0,9.262189,-11.116608,-15.852568\H,0,11.145373,-12.25
 9719,-15.055487\H,0,10.769363,-12.612255,-16.478945\\Version=ES64L-G16
 RevA.03\HF=-317.6960824\RMSD=6.379e-09\Dipole=-0.0027379,-2.415359,-1.
 4377725\Quadrupole=-61.3089438,37.2830785,24.0258654,-45.3919438,-26.5
 49479,94.0819236\PG=C01 [X(H8O4)]\\@


 WHAT THE SLIME CONTAINS, THE GLOWING REVEALS
 BY THE FLAME'S BRIGHT HUE WHEN YOU IGNITE IT.
   --  LEONARD THURNEYSSER, 1531-1596
 DESCRIBING HIS FLAME PHOTOLYSIS ANALYTIC METHOD
 Job cpu time:       0 days  0 hours  0 minutes  6.2 seconds.
 Elapsed time:       0 days  0 hours  0 minutes  1.8 seconds.
 File lengths (MBytes):  RWF=     72 Int=      0 D2E=      0 Chk=      8 Scr=      8
 Normal termination of Gaussian 16 at Fri May 15 22:35:45 2020.
