Atom number=15                                                          
SP        RHF                                                         6-31G(d,p)          
Number of atoms                            I               15
Info1-9                                    I   N=           9
         107         106           0           0           0         111
           1           1           2
Full Title                                 C   N=           2
Atom number=15          
Route                                      C   N=           4
#p hf/6-31g** 5d 7f pop=npa charge nosymm       
Charge                                     I                0
Multiplicity                               I                1
Number of electrons                        I               50
Number of alpha electrons                  I               25
Number of beta electrons                   I               25
Number of basis functions                  I              120
Number of independent functions            I              120
Number of point charges in /Mol/           I                0
Number of translation vectors              I                0
Atomic numbers                             I   N=          15
           8           8           8           8           8           1
           1           1           1           1           1           1
           1           1           1
Nuclear charges                            R   N=          15
  8.00000000E+00  8.00000000E+00  8.00000000E+00  8.00000000E+00  8.00000000E+00
  1.00000000E+00  1.00000000E+00  1.00000000E+00  1.00000000E+00  1.00000000E+00
  1.00000000E+00  1.00000000E+00  1.00000000E+00  1.00000000E+00  1.00000000E+00
Current cartesian coordinates              R   N=          45
  1.58591958E+01 -2.23232232E+01 -2.11658453E+01  1.64278541E+01 -2.65870709E+01
 -1.80414289E+01  1.05265153E+01 -2.41129828E+01 -2.02839555E+01  1.31196920E+01
 -2.23542903E+01 -1.58189805E+01  1.66319577E+01 -2.34815044E+01 -1.22781062E+01
  1.54490326E+01 -2.36930366E+01 -2.00580047E+01  1.74840371E+01 -2.17584956E+01
 -2.06064713E+01  1.55337188E+01 -2.59511213E+01 -1.66033699E+01  1.61624534E+01
 -2.83754831E+01 -1.79860013E+01  8.77344660E+00 -2.42410798E+01 -1.98570305E+01
  1.13076525E+01 -2.34423738E+01 -1.87966655E+01  1.41645820E+01 -2.28487768E+01
 -1.44277169E+01  1.38091000E+01 -2.07734569E+01 -1.63645142E+01  1.71126681E+01
 -2.22023601E+01 -1.10929323E+01  1.68931991E+01 -2.50386841E+01 -1.13955739E+01
Number of symbols in /Mol/                 I                0
Force Field                                I                0
Atom Types                                 C   N=          15
                                                            
                                                            
                                                            
Int Atom Types                             I   N=          15
           0           0           0           0           0           0
           0           0           0           0           0           0
           0           0           0
MM charges                                 R   N=          15
  0.00000000E+00  0.00000000E+00  0.00000000E+00  0.00000000E+00  0.00000000E+00
  0.00000000E+00  0.00000000E+00  0.00000000E+00  0.00000000E+00  0.00000000E+00
  0.00000000E+00  0.00000000E+00  0.00000000E+00  0.00000000E+00  0.00000000E+00
Integer atomic weights                     I   N=          15
          16          16          16          16          16           1
           1           1           1           1           1           1
           1           1           1
Real atomic weights                        R   N=          15
  1.59949146E+01  1.59949146E+01  1.59949146E+01  1.59949146E+01  1.59949146E+01
  1.00782504E+00  1.00782504E+00  1.00782504E+00  1.00782504E+00  1.00782504E+00
  1.00782504E+00  1.00782504E+00  1.00782504E+00  1.00782504E+00  1.00782504E+00
Atom fragment info                         I   N=          15
           0           0           0           0           0           0
           0           0           0           0           0           0
           0           0           0
Atom residue num                           I   N=          15
           0           0           0           0           0           0
           0           0           0           0           0           0
           0           0           0
Nuclear spins                              I   N=          15
           0           0           0           0           0           1
           1           1           1           1           1           1
           1           1           1
Nuclear ZEff                               R   N=          15
 -5.60000000E+00 -5.60000000E+00 -5.60000000E+00 -5.60000000E+00 -5.60000000E+00
 -1.00000000E+00 -1.00000000E+00 -1.00000000E+00 -1.00000000E+00 -1.00000000E+00
 -1.00000000E+00 -1.00000000E+00 -1.00000000E+00 -1.00000000E+00 -1.00000000E+00
Nuclear ZNuc                               R   N=          15
  8.00000000E+00  8.00000000E+00  8.00000000E+00  8.00000000E+00  8.00000000E+00
  1.00000000E+00  1.00000000E+00  1.00000000E+00  1.00000000E+00  1.00000000E+00
  1.00000000E+00  1.00000000E+00  1.00000000E+00  1.00000000E+00  1.00000000E+00
Nuclear QMom                               R   N=          15
  0.00000000E+00  0.00000000E+00  0.00000000E+00  0.00000000E+00  0.00000000E+00
  0.00000000E+00  0.00000000E+00  0.00000000E+00  0.00000000E+00  0.00000000E+00
  0.00000000E+00  0.00000000E+00  0.00000000E+00  0.00000000E+00  0.00000000E+00
Nuclear GFac                               R   N=          15
  0.00000000E+00  0.00000000E+00  0.00000000E+00  0.00000000E+00  0.00000000E+00
  2.79284600E+00  2.79284600E+00  2.79284600E+00  2.79284600E+00  2.79284600E+00
  2.79284600E+00  2.79284600E+00  2.79284600E+00  2.79284600E+00  2.79284600E+00
MicOpt                                     I   N=          15
          -1          -1          -1          -1          -1          -1
          -1          -1          -1          -1          -1          -1
          -1          -1          -1
Number of residues                         I                0
Number of secondary structures             I                0
Number of contracted shells                I               50
Number of primitive shells                 I              105
Pure/Cartesian d shells                    I                0
Pure/Cartesian f shells                    I                0
Highest angular momentum                   I                2
Largest degree of contraction              I                6
Shell types                                I   N=          50
           0          -1          -1          -2           0          -1
          -1          -2           0          -1          -1          -2
           0          -1          -1          -2           0          -1
          -1          -2           0           0           1           0
           0           1           0           0           1           0
           0           1           0           0           1           0
           0           1           0           0           1           0
           0           1           0           0           1           0
           0           1
Number of primitives per shell             I   N=          50
           6           3           1           1           6           3
           1           1           6           3           1           1
           6           3           1           1           6           3
           1           1           3           1           1           3
           1           1           3           1           1           3
           1           1           3           1           1           3
           1           1           3           1           1           3
           1           1           3           1           1           3
           1           1
Shell to atom map                          I   N=          50
           1           1           1           1           2           2
           2           2           3           3           3           3
           4           4           4           4           5           5
           5           5           6           6           6           7
           7           7           8           8           8           9
           9           9          10          10          10          11
          11          11          12          12          12          13
          13          13          14          14          14          15
          15          15
Primitive exponents                        R   N=         105
  5.48467166E+03  8.25234946E+02  1.88046958E+02  5.29645000E+01  1.68975704E+01
  5.79963534E+00  1.55396162E+01  3.59993359E+00  1.01376175E+00  2.70005823E-01
  8.00000000E-01  5.48467166E+03  8.25234946E+02  1.88046958E+02  5.29645000E+01
  1.68975704E+01  5.79963534E+00  1.55396162E+01  3.59993359E+00  1.01376175E+00
  2.70005823E-01  8.00000000E-01  5.48467166E+03  8.25234946E+02  1.88046958E+02
  5.29645000E+01  1.68975704E+01  5.79963534E+00  1.55396162E+01  3.59993359E+00
  1.01376175E+00  2.70005823E-01  8.00000000E-01  5.48467166E+03  8.25234946E+02
  1.88046958E+02  5.29645000E+01  1.68975704E+01  5.79963534E+00  1.55396162E+01
  3.59993359E+00  1.01376175E+00  2.70005823E-01  8.00000000E-01  5.48467166E+03
  8.25234946E+02  1.88046958E+02  5.29645000E+01  1.68975704E+01  5.79963534E+00
  1.55396162E+01  3.59993359E+00  1.01376175E+00  2.70005823E-01  8.00000000E-01
  1.87311370E+01  2.82539436E+00  6.40121692E-01  1.61277759E-01  1.10000000E+00
  1.87311370E+01  2.82539436E+00  6.40121692E-01  1.61277759E-01  1.10000000E+00
  1.87311370E+01  2.82539436E+00  6.40121692E-01  1.61277759E-01  1.10000000E+00
  1.87311370E+01  2.82539436E+00  6.40121692E-01  1.61277759E-01  1.10000000E+00
  1.87311370E+01  2.82539436E+00  6.40121692E-01  1.61277759E-01  1.10000000E+00
  1.87311370E+01  2.82539436E+00  6.40121692E-01  1.61277759E-01  1.10000000E+00
  1.87311370E+01  2.82539436E+00  6.40121692E-01  1.61277759E-01  1.10000000E+00
  1.87311370E+01  2.82539436E+00  6.40121692E-01  1.61277759E-01  1.10000000E+00
  1.87311370E+01  2.82539436E+00  6.40121692E-01  1.61277759E-01  1.10000000E+00
  1.87311370E+01  2.82539436E+00  6.40121692E-01  1.61277759E-01  1.10000000E+00
Contraction coefficients                   R   N=         105
  1.83107443E-03  1.39501722E-02  6.84450781E-02  2.32714336E-01  4.70192898E-01
  3.58520853E-01 -1.10777550E-01 -1.48026263E-01  1.13076702E+00  1.00000000E+00
  1.00000000E+00  1.83107443E-03  1.39501722E-02  6.84450781E-02  2.32714336E-01
  4.70192898E-01  3.58520853E-01 -1.10777550E-01 -1.48026263E-01  1.13076702E+00
  1.00000000E+00  1.00000000E+00  1.83107443E-03  1.39501722E-02  6.84450781E-02
  2.32714336E-01  4.70192898E-01  3.58520853E-01 -1.10777550E-01 -1.48026263E-01
  1.13076702E+00  1.00000000E+00  1.00000000E+00  1.83107443E-03  1.39501722E-02
  6.84450781E-02  2.32714336E-01  4.70192898E-01  3.58520853E-01 -1.10777550E-01
 -1.48026263E-01  1.13076702E+00  1.00000000E+00  1.00000000E+00  1.83107443E-03
  1.39501722E-02  6.84450781E-02  2.32714336E-01  4.70192898E-01  3.58520853E-01
 -1.10777550E-01 -1.48026263E-01  1.13076702E+00  1.00000000E+00  1.00000000E+00
  3.34946043E-02  2.34726953E-01  8.13757326E-01  1.00000000E+00  1.00000000E+00
  3.34946043E-02  2.34726953E-01  8.13757326E-01  1.00000000E+00  1.00000000E+00
  3.34946043E-02  2.34726953E-01  8.13757326E-01  1.00000000E+00  1.00000000E+00
  3.34946043E-02  2.34726953E-01  8.13757326E-01  1.00000000E+00  1.00000000E+00
  3.34946043E-02  2.34726953E-01  8.13757326E-01  1.00000000E+00  1.00000000E+00
  3.34946043E-02  2.34726953E-01  8.13757326E-01  1.00000000E+00  1.00000000E+00
  3.34946043E-02  2.34726953E-01  8.13757326E-01  1.00000000E+00  1.00000000E+00
  3.34946043E-02  2.34726953E-01  8.13757326E-01  1.00000000E+00  1.00000000E+00
  3.34946043E-02  2.34726953E-01  8.13757326E-01  1.00000000E+00  1.00000000E+00
  3.34946043E-02  2.34726953E-01  8.13757326E-01  1.00000000E+00  1.00000000E+00
P(S=P) Contraction coefficients            R   N=         105
  0.00000000E+00  0.00000000E+00  0.00000000E+00  0.00000000E+00  0.00000000E+00
  0.00000000E+00  7.08742682E-02  3.39752839E-01  7.27158577E-01  1.00000000E+00
  0.00000000E+00  0.00000000E+00  0.00000000E+00  0.00000000E+00  0.00000000E+00
  0.00000000E+00  0.00000000E+00  7.08742682E-02  3.39752839E-01  7.27158577E-01
  1.00000000E+00  0.00000000E+00  0.00000000E+00  0.00000000E+00  0.00000000E+00
  0.00000000E+00  0.00000000E+00  0.00000000E+00  7.08742682E-02  3.39752839E-01
  7.27158577E-01  1.00000000E+00  0.00000000E+00  0.00000000E+00  0.00000000E+00
  0.00000000E+00  0.00000000E+00  0.00000000E+00  0.00000000E+00  7.08742682E-02
  3.39752839E-01  7.27158577E-01  1.00000000E+00  0.00000000E+00  0.00000000E+00
  0.00000000E+00  0.00000000E+00  0.00000000E+00  0.00000000E+00  0.00000000E+00
  7.08742682E-02  3.39752839E-01  7.27158577E-01  1.00000000E+00  0.00000000E+00
  0.00000000E+00  0.00000000E+00  0.00000000E+00  0.00000000E+00  0.00000000E+00
  0.00000000E+00  0.00000000E+00  0.00000000E+00  0.00000000E+00  0.00000000E+00
  0.00000000E+00  0.00000000E+00  0.00000000E+00  0.00000000E+00  0.00000000E+00
  0.00000000E+00  0.00000000E+00  0.00000000E+00  0.00000000E+00  0.00000000E+00
  0.00000000E+00  0.00000000E+00  0.00000000E+00  0.00000000E+00  0.00000000E+00
  0.00000000E+00  0.00000000E+00  0.00000000E+00  0.00000000E+00  0.00000000E+00
  0.00000000E+00  0.00000000E+00  0.00000000E+00  0.00000000E+00  0.00000000E+00
  0.00000000E+00  0.00000000E+00  0.00000000E+00  0.00000000E+00  0.00000000E+00
  0.00000000E+00  0.00000000E+00  0.00000000E+00  0.00000000E+00  0.00000000E+00
  0.00000000E+00  0.00000000E+00  0.00000000E+00  0.00000000E+00  0.00000000E+00
Coordinates of each shell                  R   N=         150
  1.58591958E+01 -2.23232232E+01 -2.11658453E+01  1.58591958E+01 -2.23232232E+01
 -2.11658453E+01  1.58591958E+01 -2.23232232E+01 -2.11658453E+01  1.58591958E+01
 -2.23232232E+01 -2.11658453E+01  1.64278541E+01 -2.65870709E+01 -1.80414289E+01
  1.64278541E+01 -2.65870709E+01 -1.80414289E+01  1.64278541E+01 -2.65870709E+01
 -1.80414289E+01  1.64278541E+01 -2.65870709E+01 -1.80414289E+01  1.05265153E+01
 -2.41129828E+01 -2.02839555E+01  1.05265153E+01 -2.41129828E+01 -2.02839555E+01
  1.05265153E+01 -2.41129828E+01 -2.02839555E+01  1.05265153E+01 -2.41129828E+01
 -2.02839555E+01  1.31196920E+01 -2.23542903E+01 -1.58189805E+01  1.31196920E+01
 -2.23542903E+01 -1.58189805E+01  1.31196920E+01 -2.23542903E+01 -1.58189805E+01
  1.31196920E+01 -2.23542903E+01 -1.58189805E+01  1.66319577E+01 -2.34815044E+01
 -1.22781062E+01  1.66319577E+01 -2.34815044E+01 -1.22781062E+01  1.66319577E+01
 -2.34815044E+01 -1.22781062E+01  1.66319577E+01 -2.34815044E+01 -1.22781062E+01
  1.54490326E+01 -2.36930366E+01 -2.00580047E+01  1.54490326E+01 -2.36930366E+01
 -2.00580047E+01  1.54490326E+01 -2.36930366E+01 -2.00580047E+01  1.74840371E+01
 -2.17584956E+01 -2.06064713E+01  1.74840371E+01 -2.17584956E+01 -2.06064713E+01
  1.74840371E+01 -2.17584956E+01 -2.06064713E+01  1.55337188E+01 -2.59511213E+01
 -1.66033699E+01  1.55337188E+01 -2.59511213E+01 -1.66033699E+01  1.55337188E+01
 -2.59511213E+01 -1.66033699E+01  1.61624534E+01 -2.83754831E+01 -1.79860013E+01
  1.61624534E+01 -2.83754831E+01 -1.79860013E+01  1.61624534E+01 -2.83754831E+01
 -1.79860013E+01  8.77344660E+00 -2.42410798E+01 -1.98570305E+01  8.77344660E+00
 -2.42410798E+01 -1.98570305E+01  8.77344660E+00 -2.42410798E+01 -1.98570305E+01
  1.13076525E+01 -2.34423738E+01 -1.87966655E+01  1.13076525E+01 -2.34423738E+01
 -1.87966655E+01  1.13076525E+01 -2.34423738E+01 -1.87966655E+01  1.41645820E+01
 -2.28487768E+01 -1.44277169E+01  1.41645820E+01 -2.28487768E+01 -1.44277169E+01
  1.41645820E+01 -2.28487768E+01 -1.44277169E+01  1.38091000E+01 -2.07734569E+01
 -1.63645142E+01  1.38091000E+01 -2.07734569E+01 -1.63645142E+01  1.38091000E+01
 -2.07734569E+01 -1.63645142E+01  1.71126681E+01 -2.22023601E+01 -1.10929323E+01
  1.71126681E+01 -2.22023601E+01 -1.10929323E+01  1.71126681E+01 -2.22023601E+01
 -1.10929323E+01  1.68931991E+01 -2.50386841E+01 -1.13955739E+01  1.68931991E+01
 -2.50386841E+01 -1.13955739E+01  1.68931991E+01 -2.50386841E+01 -1.13955739E+01
Num ILSW                                   I              100
ILSW                                       I   N=         100
           0           0           0           0           2           0
           0           0           0           0           0          -1
           5           0           0           0           0           0
           0           0           0           0           0           0
           1           1           0           0           0           0
           0           0      100000           0          -1           0
           0           0           0           0           0           0
           0           0           0           1           0           0
           0 -2000000000           1           0           0           0
           0           0           4          52           0           0
           0           1           0           0           0           0
           0           0           0          15           0           1
           0           0           0           0           0           0
           0           0           0           0           0           0
           0           0           0           0           0           0
           0           0           0           0           0           0
           0           0           0           0
Num RLSW                                   I               52
RLSW                                       R   N=          52
  1.00000000E+00  1.00000000E+00  1.00000000E+00  1.00000000E+00  1.00000000E+00
  0.00000000E+00  0.00000000E+00  1.00000000E+00  0.00000000E+00  0.00000000E+00
  0.00000000E+00  0.00000000E+00  1.00000000E+00  0.00000000E+00  0.00000000E+00
  0.00000000E+00  0.00000000E+00  1.00000000E+00  0.00000000E+00  0.00000000E+00
  0.00000000E+00  0.00000000E+00  1.00000000E+00  0.00000000E+00  0.00000000E+00
  0.00000000E+00  0.00000000E+00  1.00000000E+00  0.00000000E+00  0.00000000E+00
  0.00000000E+00  0.00000000E+00  1.00000000E+00  0.00000000E+00  0.00000000E+00
  0.00000000E+00  0.00000000E+00  0.00000000E+00  1.00000000E+00  1.00000000E+00
  0.00000000E+00  1.00000000E+00  0.00000000E+00  0.00000000E+00  0.00000000E+00
  0.00000000E+00  0.00000000E+00  0.00000000E+00  0.00000000E+00  0.00000000E+00
  0.00000000E+00  0.00000000E+00
MxBond                                     I                2
NBond                                      I   N=          15
           2           2           2           2           2           1
           1           1           1           1           1           1
           1           1           1
IBond                                      I   N=          30
           6           7           8           9          10          11
          12          13          14          15           1           0
           1           0           2           0           2           0
           3           0           3           0           4           0
           4           0           5           0           5           0
RBond                                      R   N=          30
  1.00000000E+00  1.00000000E+00  1.00000000E+00  1.00000000E+00  1.00000000E+00
  1.00000000E+00  1.00000000E+00  1.00000000E+00  1.00000000E+00  1.00000000E+00
  1.00000000E+00  0.00000000E+00  1.00000000E+00  0.00000000E+00  1.00000000E+00
  0.00000000E+00  1.00000000E+00  0.00000000E+00  1.00000000E+00  0.00000000E+00
  1.00000000E+00  0.00000000E+00  1.00000000E+00  0.00000000E+00  1.00000000E+00
  0.00000000E+00  1.00000000E+00  0.00000000E+00  1.00000000E+00  0.00000000E+00
Virial Ratio                               R      2.035902796252088E+00
SCF Energy                                 R     -3.932158020040733E+02
Total Energy                               R     -3.932158020040733E+02
RMS Density                                R      6.985786080751262E-09
Job Status                                 I                1
Nuclear derivative order                   I                0
External E-field                           R   N=          35
  0.00000000E+00  0.00000000E+00  0.00000000E+00  0.00000000E+00  0.00000000E+00
  0.00000000E+00  0.00000000E+00  0.00000000E+00  0.00000000E+00  0.00000000E+00
  0.00000000E+00  0.00000000E+00  0.00000000E+00  0.00000000E+00  0.00000000E+00
  0.00000000E+00  0.00000000E+00  0.00000000E+00  0.00000000E+00  0.00000000E+00
  0.00000000E+00  0.00000000E+00  0.00000000E+00  0.00000000E+00  0.00000000E+00
  0.00000000E+00  0.00000000E+00  0.00000000E+00  0.00000000E+00  0.00000000E+00
  0.00000000E+00  0.00000000E+00  0.00000000E+00  0.00000000E+00  0.00000000E+00
IOpCl                                      I                0
IROHF                                      I                0
Alpha Orbital Energies                     R   N=         120
 -2.06629238E+01 -2.06085965E+01 -2.05902736E+01 -2.05485740E+01 -2.05245436E+01
 -1.44816365E+00 -1.39461373E+00 -1.37861338E+00 -1.33420167E+00 -1.31003725E+00
 -8.09003126E-01 -7.67171607E-01 -7.52180345E-01 -7.02885637E-01 -6.82064732E-01
 -6.74252156E-01 -6.28409550E-01 -6.12489448E-01 -5.93825613E-01 -5.73107460E-01
 -5.46633008E-01 -5.42816771E-01 -5.33310643E-01 -4.94192713E-01 -4.71674581E-01
  1.18221409E-01  1.89632241E-01  2.21350186E-01  2.36880477E-01  2.99889661E-01
  3.11267420E-01  3.20853194E-01  4.05486904E-01  4.21079308E-01  4.64070662E-01
  8.89630059E-01  9.36408992E-01  9.51336088E-01  9.75496687E-01  9.99089944E-01
  1.04461709E+00  1.06027323E+00  1.06640967E+00  1.09111053E+00  1.10167841E+00
  1.11048128E+00  1.12806250E+00  1.15255933E+00  1.17194366E+00  1.18551937E+00
  1.20631825E+00  1.23361078E+00  1.27061014E+00  1.27792554E+00  1.31485370E+00
  1.32231865E+00  1.34994064E+00  1.38423676E+00  1.41329518E+00  1.44229134E+00
  1.52728761E+00  1.60967575E+00  1.67129917E+00  1.69970645E+00  1.71481177E+00
  1.74066105E+00  1.75978490E+00  1.77133027E+00  1.80141910E+00  1.80965636E+00
  1.82916037E+00  1.83481013E+00  1.84553505E+00  1.87337532E+00  1.88818560E+00
  1.91957548E+00  1.94132725E+00  1.95104814E+00  2.02004549E+00  2.11429882E+00
  2.46372133E+00  2.49246700E+00  2.52303577E+00  2.54349333E+00  2.58451882E+00
  2.60847209E+00  2.62145321E+00  2.65210882E+00  2.66552183E+00  2.71210142E+00
  2.73435047E+00  2.78062129E+00  2.84118488E+00  2.86290147E+00  2.87282792E+00
  2.90367338E+00  2.93047951E+00  2.94298064E+00  2.95322438E+00  2.97963698E+00
  3.00672987E+00  3.01434505E+00  3.02642576E+00  3.03127460E+00  3.03605037E+00
  3.28363311E+00  3.34591908E+00  3.40109462E+00  3.42267942E+00  3.43204990E+00
  3.66379865E+00  3.74529372E+00  3.78568102E+00  3.81114116E+00  3.83061372E+00
  3.84099362E+00  3.93619992E+00  3.98582539E+00  4.01166405E+00  4.02595412E+00
Alpha MO coefficients                      R   N=       14400
 -4.08675945E-06 -1.31321375E-05  3.94773289E-06 -3.02334127E-06 -5.76110717E-07
  3.75329442E-05 -2.09702670E-05 -7.40513777E-06  1.70351067E-05  1.58182835E-06
 -4.19863289E-06 -3.58447157E-06 -1.81982514E-06  9.34464123E-07 -1.35678958E-05
 -1.21765845E-05  6.22250851E-06  6.35395063E-07 -6.21469421E-06  4.09968789E-05
 -3.16832728E-06 -2.72569500E-05 -1.42874992E-05 -1.05194730E-05  1.14795820E-05
 -8.72258858E-06 -5.37249921E-06  4.68037283E-06 -1.12821749E-05 -4.47558615E-05
 -7.35601424E-06 -2.76600562E-06 -6.37129892E-06  1.57896848E-04  5.69468660E-05
  3.44972975E-05  6.94455184E-05  7.00894536E-06  9.40583230E-06  9.34713787E-06
 -8.78357830E-08  4.85842731E-06  9.39609172E-05  3.55023388E-04  2.43302103E-05
 -3.62302560E-05  9.82314305E-05 -1.29929212E-03 -4.06595287E-04  3.18898714E-04
 -7.58383463E-04 -4.54059545E-05 -1.12521383E-04  3.20721323E-05 -4.86073194E-05
  4.31170320E-05  9.95699771E-01  2.22221855E-02  5.05098745E-04 -1.97362114E-04
  1.78214727E-03 -6.24836573E-03  2.77537594E-04 -5.27525480E-05 -3.03193624E-04
 -1.14843895E-05  9.64678260E-05  4.11693845E-05 -4.69620554E-04  6.58979516E-05
 -3.12480014E-06 -2.71546205E-05 -2.84648177E-06 -9.75940822E-06  4.10054561E-06
  1.41324026E-07  9.41479810E-06 -3.06507508E-07 -9.92425730E-07 -1.68730352E-06
 -1.96019194E-05 -8.87949736E-05  1.93614531E-05 -3.34810307E-05 -3.96056975E-05
 -1.29101224E-05 -8.76596846E-06 -3.11996162E-06 -6.07749276E-06  4.76663841E-06
 -7.60931711E-06  4.17703369E-05  1.95525184E-06 -3.62695873E-07 -2.29582104E-06
 -2.86832309E-05 -2.26597796E-04 -3.22703907E-06 -4.68777737E-06 -3.23617781E-07
  2.10400972E-04  1.98213439E-03  7.07644237E-05  2.04137404E-05  1.22280942E-06
  2.46720620E-05 -3.28050931E-04  2.54519465E-05  3.00386742E-05  2.23579079E-05
 -5.58485172E-04  1.04671452E-03  2.78740204E-04  8.53243072E-04  7.92289218E-04
 -5.93770325E-04  1.04368347E-03  1.33128171E-04 -1.02357399E-03  5.93149628E-04
  1.05049705E-04  3.17016742E-04 -4.22560446E-05 -2.83586502E-05  1.50137900E-05
 -1.20163276E-03  2.53970716E-04  5.46050028E-04 -3.78300454E-04 -1.85206663E-05
  1.29311693E-05  1.14138251E-04  8.61481612E-05 -1.16827558E-05  9.95714120E-01
  2.22575597E-02 -1.11864572E-03 -9.81099969E-04  1.29474947E-03 -6.64384952E-03
  7.61743274E-04 -1.47880548E-04 -6.00083751E-04 -9.30287506E-05 -2.10914973E-04
  1.82899344E-04 -3.11892072E-04  4.72813937E-05  1.60502183E-05  3.88152016E-05
  4.68456701E-05 -1.13225823E-05 -5.66202838E-06  2.83815751E-05 -2.59284740E-04
  1.52683363E-05  2.30616144E-05 -1.48821237E-05 -3.70864026E-05 -1.09527693E-05
  8.36570172E-06  5.08715112E-07  4.32907796E-05  4.50370968E-05  4.64209659E-05
 -6.10111551E-05 -6.06546124E-05  1.72921604E-04 -9.16848070E-05  2.13810056E-04
  3.13683209E-04  1.40184121E-05  5.09015079E-05 -2.49913410E-05  5.31105124E-06
  4.77895150E-05  9.95641220E-06 -3.21341660E-05  1.68231743E-05 -3.03568299E-05
 -2.32063599E-05  1.78443095E-04 -8.23252205E-05  2.30826453E-04  8.58318892E-05
  1.79098413E-06  2.53790562E-05  3.13689938E-05  1.92322961E-05  1.05253466E-05
  7.67794484E-05  1.67296215E-03  1.26310368E-04  3.02656312E-05 -6.19685273E-05
  1.85032206E-05 -2.31110610E-04  1.36772442E-05 -8.15319461E-06  2.26706086E-05
 -3.76878915E-04  1.80963735E-03 -5.44120048E-04  3.71657146E-04  8.11518813E-04
 -5.98229445E-04  9.51686102E-04 -2.38209628E-04 -1.18908281E-03  6.69370270E-05
 -9.73614378E-05 -7.28037227E-05 -2.93203875E-05 -5.84896790E-06  1.25721954E-05
  9.37527965E-05 -1.34554915E-04 -1.24462324E-06  3.83913002E-06  8.85117273E-06
  9.96700599E-05 -6.58872780E-04  3.76174959E-05 -2.06610922E-05  4.15645044E-05
 -7.09944552E-06 -2.83833172E-05  3.14222485E-05 -4.91036952E-06 -2.63221875E-05
 -1.23010759E-04 -4.17471612E-05  2.30181361E-05  1.59304039E-05  2.71674139E-05
  8.74268470E-05 -4.62221581E-05  4.32845049E-06 -4.11610747E-06 -2.56152093E-05
  4.69903200E-05  1.11532016E-04 -1.98843177E-05  3.25688702E-06 -1.14990645E-06
 -3.83363410E-04  1.84729175E-04  2.01843908E-04 -1.55211751E-04 -1.60326797E-05
  3.30002820E-05  5.44497850E-05  3.54450251E-05 -6.77784312E-06 -3.71088243E-05
  1.01128866E-04  3.53223817E-06  1.36621005E-05 -2.12070926E-05 -3.30267541E-04
  1.10616311E-04 -1.74178702E-04 -5.16635775E-05 -7.06183965E-06  3.07798798E-05
 -2.11100891E-05  4.38557456E-06  3.37997137E-05  8.98703215E-05  2.62559558E-04
  4.61738068E-05  2.24625353E-05  3.16575231E-05 -8.69837244E-04 -3.79815628E-04
 -2.11286387E-04 -4.18498078E-04 -6.21926795E-05 -7.63301880E-05 -5.61325095E-05
 -9.23005909E-06 -2.67920510E-05  9.95715887E-01  2.25090835E-02  1.50833985E-03
  8.46378610E-04  6.98691893E-04 -7.41848396E-03 -8.72955275E-04  6.12116081E-05
 -6.07739185E-04 -5.39025221E-05  9.32538323E-05 -3.26105085E-04 -1.67693539E-04
  1.31097517E-04 -6.36455127E-05  3.11860776E-04 -1.40975185E-04  2.55024542E-05
 -1.10658709E-04 -6.03431145E-04  7.32275870E-04 -1.39714734E-04  6.90096109E-04
  1.66633925E-05 -9.79841625E-05  2.79906146E-05 -8.43449799E-05  3.76814456E-05
  2.42720108E-05  5.04650705E-04  4.21921958E-05  7.55100024E-05 -6.41414396E-05
  8.70999656E-07 -1.75388483E-04  2.40928075E-05  3.69641781E-06  1.64243558E-05
  7.57730121E-06  2.06126696E-04  2.16581356E-05 -1.49661046E-05 -1.03786048E-04
  2.41506756E-05 -9.70472980E-05 -7.52386427E-06 -4.64016870E-07 -2.57651044E-06
  3.54757948E-05 -2.59722780E-04 -1.67512638E-05  6.87552337E-06  2.26037112E-05
  1.20834680E-04  1.15482847E-03  3.00619383E-06 -4.12759982E-05 -3.07526158E-05
 -4.39228580E-04  2.96828690E-03  6.77552315E-04 -2.48244110E-04  7.70578146E-04
 -4.24159723E-04  7.80633744E-04  4.91015249E-04  1.02091495E-03 -3.32361638E-04
 -3.03330224E-05 -2.68118741E-04 -4.52244133E-05  7.87903411E-05 -3.90608534E-06
 -2.34938062E-05 -2.31595812E-04 -6.04079852E-05 -5.50306737E-05 -2.95361496E-05
  9.95720979E-01  2.23148830E-02  1.04800415E-03 -6.98822801E-04  1.47270125E-03
 -7.23820488E-03 -2.22713891E-04  9.49443639E-04 -1.12495654E-03 -1.52884761E-04
  1.07335327E-04 -9.09447085E-05  1.56821330E-04  2.92583601E-04 -7.46906908E-05
  2.67709073E-04 -5.11229410E-05  1.12927407E-04 -9.90252965E-05 -5.19916122E-04
  2.35217752E-04 -7.35165543E-04  3.91345237E-04 -3.21209095E-05 -4.00298794E-06
  3.97679448E-05 -3.15241550E-06  1.01656625E-04  2.30200663E-05  4.75716251E-05
  4.95293102E-05 -2.63437195E-05 -4.60320445E-06 -1.82485852E-05 -2.65442822E-04
  4.98199632E-05  1.95432162E-05 -4.52191957E-06 -2.51038807E-05 -9.92591786E-06
 -1.47087391E-05  2.92557683E-06 -3.29268776E-05  9.89474024E-05  2.57051548E-05
 -1.32649168E-05 -3.32719500E-05 -2.74020575E-04 -1.63251445E-04 -7.50013487E-05
  1.72440113E-04 -6.41175212E-06  4.55650894E-05  9.06775719E-06  7.59567859E-06