Atom number=9                                                           
SP        RHF                                                         6-31G(d,p)          
Number of atoms                            I                9
Info1-9                                    I   N=           9
         107         106           0           0           0         111
           1           1           2
Full Title                                 C   N=           2
Atom number=9           
Route                                      C   N=           4
#p hf/6-31g** 5d 7f pop=npa charge nosymm       
Charge                                     I                0
Multiplicity                               I                1
Number of electrons                        I               30
Number of alpha electrons                  I               15
Number of beta electrons                   I               15
Number of basis functions                  I               72
Number of independent functions            I               72
Number of point charges in /Mol/           I                0
Number of translation vectors              I                0
Atomic numbers                             I   N=           9
           8           8           8           1           1           1
           1           1           1
Nuclear charges                            R   N=           9
  8.00000000E+00  8.00000000E+00  8.00000000E+00  1.00000000E+00  1.00000000E+00
  1.00000000E+00  1.00000000E+00  1.00000000E+00  1.00000000E+00
Current cartesian coordinates              R   N=          27
  1.58591958E+01 -2.23232232E+01 -2.11658453E+01  1.37010511E+01 -1.86319947E+01
 -2.47619431E+01  1.31641969E+01 -1.74757998E+01 -1.94156226E+01  1.54490326E+01
 -2.36930366E+01 -2.00580047E+01  1.74840371E+01 -2.17584956E+01 -2.06064713E+01
  1.34560972E+01 -1.93157846E+01 -2.64185526E+01  1.38733941E+01 -2.00816358E+01
 -2.36938794E+01  1.31811270E+01 -1.86043839E+01 -2.08291075E+01  1.45213642E+01
 -1.63243462E+01 -1.97383746E+01
Number of symbols in /Mol/                 I                0
Force Field                                I                0
Atom Types                                 C   N=           9
                                                            
                                                
Int Atom Types                             I   N=           9
           0           0           0           0           0           0
           0           0           0
MM charges                                 R   N=           9
  0.00000000E+00  0.00000000E+00  0.00000000E+00  0.00000000E+00  0.00000000E+00
  0.00000000E+00  0.00000000E+00  0.00000000E+00  0.00000000E+00
Integer atomic weights                     I   N=           9
          16          16          16           1           1           1
           1           1           1
Real atomic weights                        R   N=           9
  1.59949146E+01  1.59949146E+01  1.59949146E+01  1.00782504E+00  1.00782504E+00
  1.00782504E+00  1.00782504E+00  1.00782504E+00  1.00782504E+00
Atom fragment info                         I   N=           9
           0           0           0           0           0           0
           0           0           0
Atom residue num                           I   N=           9
           0           0           0           0           0           0
           0           0           0
Nuclear spins                              I   N=           9
           0           0           0           1           1           1
           1           1           1
Nuclear ZEff                               R   N=           9
 -5.60000000E+00 -5.60000000E+00 -5.60000000E+00 -1.00000000E+00 -1.00000000E+00
 -1.00000000E+00 -1.00000000E+00 -1.00000000E+00 -1.00000000E+00
Nuclear ZNuc                               R   N=           9
  8.00000000E+00  8.00000000E+00  8.00000000E+00  1.00000000E+00  1.00000000E+00
  1.00000000E+00  1.00000000E+00  1.00000000E+00  1.00000000E+00
Nuclear QMom                               R   N=           9
  0.00000000E+00  0.00000000E+00  0.00000000E+00  0.00000000E+00  0.00000000E+00
  0.00000000E+00  0.00000000E+00  0.00000000E+00  0.00000000E+00
Nuclear GFac                               R   N=           9
  0.00000000E+00  0.00000000E+00  0.00000000E+00  2.79284600E+00  2.79284600E+00
  2.79284600E+00  2.79284600E+00  2.79284600E+00  2.79284600E+00
MicOpt                                     I   N=           9
          -1          -1          -1          -1          -1          -1
          -1          -1          -1
Number of residues                         I                0
Number of secondary structures             I                0
Number of contracted shells                I               30
Number of primitive shells                 I               63
Pure/Cartesian d shells                    I                0
Pure/Cartesian f shells                    I                0
Highest angular momentum                   I                2
Largest degree of contraction              I                6
Shell types                                I   N=          30
           0          -1          -1          -2           0          -1
          -1          -2           0          -1          -1          -2
           0           0           1           0           0           1
           0           0           1           0           0           1
           0           0           1           0           0           1
Number of primitives per shell             I   N=          30
           6           3           1           1           6           3
           1           1           6           3           1           1
           3           1           1           3           1           1
           3           1           1           3           1           1
           3           1           1           3           1           1
Shell to atom map                          I   N=          30
           1           1           1           1           2           2
           2           2           3           3           3           3
           4           4           4           5           5           5
           6           6           6           7           7           7
           8           8           8           9           9           9
Primitive exponents                        R   N=          63
  5.48467166E+03  8.25234946E+02  1.88046958E+02  5.29645000E+01  1.68975704E+01
  5.79963534E+00  1.55396162E+01  3.59993359E+00  1.01376175E+00  2.70005823E-01
  8.00000000E-01  5.48467166E+03  8.25234946E+02  1.88046958E+02  5.29645000E+01
  1.68975704E+01  5.79963534E+00  1.55396162E+01  3.59993359E+00  1.01376175E+00
  2.70005823E-01  8.00000000E-01  5.48467166E+03  8.25234946E+02  1.88046958E+02
  5.29645000E+01  1.68975704E+01  5.79963534E+00  1.55396162E+01  3.59993359E+00
  1.01376175E+00  2.70005823E-01  8.00000000E-01  1.87311370E+01  2.82539436E+00
  6.40121692E-01  1.61277759E-01  1.10000000E+00  1.87311370E+01  2.82539436E+00
  6.40121692E-01  1.61277759E-01  1.10000000E+00  1.87311370E+01  2.82539436E+00
  6.40121692E-01  1.61277759E-01  1.10000000E+00  1.87311370E+01  2.82539436E+00
  6.40121692E-01  1.61277759E-01  1.10000000E+00  1.87311370E+01  2.82539436E+00
  6.40121692E-01  1.61277759E-01  1.10000000E+00  1.87311370E+01  2.82539436E+00
  6.40121692E-01  1.61277759E-01  1.10000000E+00
Contraction coefficients                   R   N=          63
  1.83107443E-03  1.39501722E-02  6.84450781E-02  2.32714336E-01  4.70192898E-01
  3.58520853E-01 -1.10777550E-01 -1.48026263E-01  1.13076702E+00  1.00000000E+00
  1.00000000E+00  1.83107443E-03  1.39501722E-02  6.84450781E-02  2.32714336E-01
  4.70192898E-01  3.58520853E-01 -1.10777550E-01 -1.48026263E-01  1.13076702E+00
  1.00000000E+00  1.00000000E+00  1.83107443E-03  1.39501722E-02  6.84450781E-02
  2.32714336E-01  4.70192898E-01  3.58520853E-01 -1.10777550E-01 -1.48026263E-01
  1.13076702E+00  1.00000000E+00  1.00000000E+00  3.34946043E-02  2.34726953E-01
  8.13757326E-01  1.00000000E+00  1.00000000E+00  3.34946043E-02  2.34726953E-01
  8.13757326E-01  1.00000000E+00  1.00000000E+00  3.34946043E-02  2.34726953E-01
  8.13757326E-01  1.00000000E+00  1.00000000E+00  3.34946043E-02  2.34726953E-01
  8.13757326E-01  1.00000000E+00  1.00000000E+00  3.34946043E-02  2.34726953E-01
  8.13757326E-01  1.00000000E+00  1.00000000E+00  3.34946043E-02  2.34726953E-01
  8.13757326E-01  1.00000000E+00  1.00000000E+00
P(S=P) Contraction coefficients            R   N=          63
  0.00000000E+00  0.00000000E+00  0.00000000E+00  0.00000000E+00  0.00000000E+00
  0.00000000E+00  7.08742682E-02  3.39752839E-01  7.27158577E-01  1.00000000E+00
  0.00000000E+00  0.00000000E+00  0.00000000E+00  0.00000000E+00  0.00000000E+00
  0.00000000E+00  0.00000000E+00  7.08742682E-02  3.39752839E-01  7.27158577E-01
  1.00000000E+00  0.00000000E+00  0.00000000E+00  0.00000000E+00  0.00000000E+00
  0.00000000E+00  0.00000000E+00  0.00000000E+00  7.08742682E-02  3.39752839E-01
  7.27158577E-01  1.00000000E+00  0.00000000E+00  0.00000000E+00  0.00000000E+00
  0.00000000E+00  0.00000000E+00  0.00000000E+00  0.00000000E+00  0.00000000E+00
  0.00000000E+00  0.00000000E+00  0.00000000E+00  0.00000000E+00  0.00000000E+00
  0.00000000E+00  0.00000000E+00  0.00000000E+00  0.00000000E+00  0.00000000E+00
  0.00000000E+00  0.00000000E+00  0.00000000E+00  0.00000000E+00  0.00000000E+00
  0.00000000E+00  0.00000000E+00  0.00000000E+00  0.00000000E+00  0.00000000E+00
  0.00000000E+00  0.00000000E+00  0.00000000E+00
Coordinates of each shell                  R   N=          90
  1.58591958E+01 -2.23232232E+01 -2.11658453E+01  1.58591958E+01 -2.23232232E+01
 -2.11658453E+01  1.58591958E+01 -2.23232232E+01 -2.11658453E+01  1.58591958E+01
 -2.23232232E+01 -2.11658453E+01  1.37010511E+01 -1.86319947E+01 -2.47619431E+01
  1.37010511E+01 -1.86319947E+01 -2.47619431E+01  1.37010511E+01 -1.86319947E+01
 -2.47619431E+01  1.37010511E+01 -1.86319947E+01 -2.47619431E+01  1.31641969E+01
 -1.74757998E+01 -1.94156226E+01  1.31641969E+01 -1.74757998E+01 -1.94156226E+01
  1.31641969E+01 -1.74757998E+01 -1.94156226E+01  1.31641969E+01 -1.74757998E+01
 -1.94156226E+01  1.54490326E+01 -2.36930366E+01 -2.00580047E+01  1.54490326E+01
 -2.36930366E+01 -2.00580047E+01  1.54490326E+01 -2.36930366E+01 -2.00580047E+01
  1.74840371E+01 -2.17584956E+01 -2.06064713E+01  1.74840371E+01 -2.17584956E+01
 -2.06064713E+01  1.74840371E+01 -2.17584956E+01 -2.06064713E+01  1.34560972E+01
 -1.93157846E+01 -2.64185526E+01  1.34560972E+01 -1.93157846E+01 -2.64185526E+01
  1.34560972E+01 -1.93157846E+01 -2.64185526E+01  1.38733941E+01 -2.00816358E+01
 -2.36938794E+01  1.38733941E+01 -2.00816358E+01 -2.36938794E+01  1.38733941E+01
 -2.00816358E+01 -2.36938794E+01  1.31811270E+01 -1.86043839E+01 -2.08291075E+01
  1.31811270E+01 -1.86043839E+01 -2.08291075E+01  1.31811270E+01 -1.86043839E+01
 -2.08291075E+01  1.45213642E+01 -1.63243462E+01 -1.97383746E+01  1.45213642E+01
 -1.63243462E+01 -1.97383746E+01  1.45213642E+01 -1.63243462E+01 -1.97383746E+01
Num ILSW                                   I              100
ILSW                                       I   N=         100
           0           0           0           0           2           0
           0           0           0           0           0          -1
           5           0           0           0           0           0
           0           0           0           0           0           0
           1           1           0           0           0           0
           0           0      100000           0          -1           0
           0           0           0           0           0           0
           0           0           0           1           0           0
           0 -2000000000           1           0           0           0
           0           0           4          52           0           0
           0           1           0           0           0           0
           0           0           0           9           0           1
           0           0           0           0           0           0
           0           0           0           0           0           0
           0           0           0           0           0           0
           0           0           0           0           0           0
           0           0           0           0
Num RLSW                                   I               52
RLSW                                       R   N=          52
  1.00000000E+00  1.00000000E+00  1.00000000E+00  1.00000000E+00  1.00000000E+00
  0.00000000E+00  0.00000000E+00  1.00000000E+00  0.00000000E+00  0.00000000E+00
  0.00000000E+00  0.00000000E+00  1.00000000E+00  0.00000000E+00  0.00000000E+00
  0.00000000E+00  0.00000000E+00  1.00000000E+00  0.00000000E+00  0.00000000E+00
  0.00000000E+00  0.00000000E+00  1.00000000E+00  0.00000000E+00  0.00000000E+00
  0.00000000E+00  0.00000000E+00  1.00000000E+00  0.00000000E+00  0.00000000E+00
  0.00000000E+00  0.00000000E+00  1.00000000E+00  0.00000000E+00  0.00000000E+00
  0.00000000E+00  0.00000000E+00  0.00000000E+00  1.00000000E+00  1.00000000E+00
  0.00000000E+00  1.00000000E+00  0.00000000E+00  0.00000000E+00  0.00000000E+00
  0.00000000E+00  0.00000000E+00  0.00000000E+00  0.00000000E+00  0.00000000E+00
  0.00000000E+00  0.00000000E+00
MxBond                                     I                2
NBond                                      I   N=           9
           2           2           2           1           1           1
           1           1           1
IBond                                      I   N=          18
           4           5           6           7           8           9
           1           0           1           0           2           0
           2           0           3           0           3           0
RBond                                      R   N=          18
  1.00000000E+00  1.00000000E+00  1.00000000E+00  1.00000000E+00  1.00000000E+00
  1.00000000E+00  1.00000000E+00  0.00000000E+00  1.00000000E+00  0.00000000E+00
  1.00000000E+00  0.00000000E+00  1.00000000E+00  0.00000000E+00  1.00000000E+00
  0.00000000E+00  1.00000000E+00  0.00000000E+00
Virial Ratio                               R      2.063446027270248E+00
SCF Energy                                 R     -2.421531318160889E+02
Total Energy                               R     -2.421531318160889E+02
RMS Density                                R      4.512332342161515E-09
Job Status                                 I                1
Nuclear derivative order                   I                0
External E-field                           R   N=          35
  0.00000000E+00  0.00000000E+00  0.00000000E+00  0.00000000E+00  0.00000000E+00
  0.00000000E+00  0.00000000E+00  0.00000000E+00  0.00000000E+00  0.00000000E+00
  0.00000000E+00  0.00000000E+00  0.00000000E+00  0.00000000E+00  0.00000000E+00
  0.00000000E+00  0.00000000E+00  0.00000000E+00  0.00000000E+00  0.00000000E+00
  0.00000000E+00  0.00000000E+00  0.00000000E+00  0.00000000E+00  0.00000000E+00
  0.00000000E+00  0.00000000E+00  0.00000000E+00  0.00000000E+00  0.00000000E+00
  0.00000000E+00  0.00000000E+00  0.00000000E+00  0.00000000E+00  0.00000000E+00
IOpCl                                      I                0
IROHF                                      I                0
Alpha Orbital Energies                     R   N=          72
 -2.05451717E+01 -2.05397110E+01 -2.05256854E+01 -1.33112181E+00 -1.32329588E+00
 -1.30894233E+00 -7.01402893E-01 -6.87595680E-01 -6.65704861E-01 -5.71005367E-01
 -5.63761246E-01 -5.34695657E-01 -4.98122079E-01 -4.78024343E-01 -4.70392432E-01
  2.36768030E-01  2.94483361E-01  3.10915028E-01  3.74660527E-01  3.97730650E-01
  4.71310814E-01  9.90940178E-01  1.03254380E+00  1.07695386E+00  1.09268303E+00
  1.12158657E+00  1.13174208E+00  1.14002161E+00  1.17458982E+00  1.19473251E+00
  1.26315764E+00  1.29897032E+00  1.32819186E+00  1.34027817E+00  1.37016122E+00
  1.46060118E+00  1.60105928E+00  1.68139120E+00  1.75030848E+00  1.81843848E+00
  1.82941845E+00  1.83590630E+00  1.84974520E+00  1.90287615E+00  1.93504086E+00
  1.94836136E+00  2.00843156E+00  2.05317472E+00  2.57898816E+00  2.59594384E+00
  2.60867107E+00  2.61180814E+00  2.66379174E+00  2.68657962E+00  2.81461638E+00
  2.83788088E+00  2.90186457E+00  2.99679588E+00  2.99952707E+00  3.01598574E+00
  3.02678506E+00  3.03461204E+00  3.05548048E+00  3.40559985E+00  3.41649468E+00
  3.43068540E+00  3.78612826E+00  3.80204168E+00  3.82555659E+00  3.95272162E+00
  4.01057049E+00  4.03827590E+00
Alpha MO coefficients                      R   N=        5184
  9.95697792E-01  2.20873027E-02  1.02173397E-03 -6.45800172E-04  1.44294270E-03
 -5.98140657E-03 -2.61730769E-04  7.14965958E-05 -4.48436617E-04 -1.25658948E-04
  6.60780655E-05 -2.43409688E-04  6.48306357E-05  3.65000116E-04  2.05799636E-04
  2.28002252E-04 -1.90684698E-05 -8.09004331E-06  4.01687208E-05 -7.93870530E-04
 -1.73126084E-05  3.27190065E-04 -4.38773488E-04 -1.51638024E-05 -1.66494006E-05
  9.23960713E-05  5.65707484E-05  2.80079359E-05 -3.95478403E-05  7.47072192E-05
 -2.31556053E-05  1.77852521E-05  2.20297061E-06 -3.52616261E-04  7.90894063E-05
  1.58029799E-04  1.85396472E-04 -3.29424897E-05  2.20717763E-06 -5.14278663E-05
  2.30291017E-05  1.30978753E-05 -5.78666466E-04  1.12553969E-03 -2.50680299E-04
 -8.74429470E-04  7.40347090E-04 -5.47701955E-04  1.13483087E-03  1.04239138E-03
  3.60308078E-04  3.84698032E-04  3.28488326E-05 -2.32916549E-04 -9.84858362E-06
 -2.01386813E-05 -7.09791585E-06  9.21966475E-05  9.79005103E-04  5.43398751E-05
  9.14066535E-05 -4.75357607E-05 -4.49369073E-05  5.28300800E-04  8.39177599E-06
  7.67714441E-05  9.94301270E-05 -2.34366246E-06 -1.32919914E-04  6.77818826E-06
  1.99574907E-05 -9.74375889E-06  4.97959576E-05  4.68248097E-05 -2.00984231E-05
  2.67526079E-05  3.85830061E-05 -9.31832300E-05  9.32707840E-05 -9.81964104E-05
 -1.87557003E-04  3.46094643E-05  3.54122170E-05 -2.24676662E-05  2.24516177E-05
  2.73007505E-05 -6.67488272E-05  1.90043041E-05 -2.83988743E-05  3.94656260E-05
  7.62499653E-05  2.66125442E-04  1.01572820E-04 -3.16452414E-04 -3.61146714E-04
 -2.19802791E-05  3.65107451E-05  1.18285434E-05 -1.31609669E-05  4.41529187E-06
  9.95717803E-01  2.22553708E-02  1.23032831E-03 -1.19991992E-06 -1.47877018E-03
 -7.02318872E-03 -4.75174728E-04  4.82732066E-04  1.17494319E-03 -1.06504452E-04
 -6.88325410E-05  1.22006628E-04 -4.11784571E-05  3.44221548E-04  4.74051767E-05
  2.52044299E-07 -1.01489363E-05  2.00586889E-05  1.24570666E-05  6.05437833E-06
 -1.24382057E-05 -3.42714824E-06  1.04709121E-05  2.19074433E-05 -1.83208734E-04
  3.68877484E-05 -1.74163094E-05 -2.04984404E-05 -1.35859217E-05  1.11575738E-04
 -9.97840389E-04  2.64525002E-05 -9.06177578E-05 -4.80923875E-05 -4.09180028E-04
  2.77592584E-03  7.46114153E-05 -5.23273530E-04 -7.64734949E-04 -5.22771633E-04
  1.04748617E-03  8.94613750E-04  7.02239114E-04 -2.82677512E-04 -1.90578274E-04
  1.51910260E-04 -8.08484168E-05  6.24759222E-05 -8.21612664E-05 -1.55671030E-04
  4.35189434E-04 -2.95388415E-04  4.38807598E-04 -1.36579928E-05 -9.02141493E-06
  2.91744508E-05  2.67774009E-05  6.25628199E-05  9.95711795E-01  2.21718447E-02
 -6.44238458E-05 -1.93569259E-03 -4.86308062E-04 -6.61100956E-03  4.52907664E-06
  1.21408368E-03 -1.09715583E-04  3.23887540E-04  1.12753450E-04 -1.91193380E-05
 -1.77315185E-04 -3.16604423E-06  6.80890021E-05  5.70613886E-05 -7.02511262E-07
 -1.26305330E-05  1.85858647E-05 -2.08418761E-04  3.70918815E-06  8.82288931E-05
  6.51485390E-05 -3.55536993E-05  1.59422462E-06 -2.42503892E-05 -5.20159524E-06
  1.20701709E-05 -5.95513675E-05 -1.43922802E-04 -6.83769156E-05 -1.56374217E-05
 -1.35803311E-05 -1.13389516E-04 -1.84793665E-04  4.46932053E-05  6.65047818E-05
 -1.90559200E-05 -4.77182790E-04  1.04895980E-03 -1.59129346E-04 -5.14914283E-04
 -1.03096175E-03 -4.40744822E-04  2.15806022E-03  1.20245038E-04 -8.47360227E-04
  5.57034490E-04 -4.44516746E-05  1.78049187E-04  1.91451946E-06  8.51667736E-05
 -1.41422787E-05 -3.61437388E-05  2.61986476E-05  5.58115488E-06 -2.74228021E-06
  2.60193723E-06 -1.78363863E-01  3.92280723E-01  3.58448837E-02 -2.20281973E-02
  4.94545501E-02  3.78491596E-01  1.20281054E-02 -3.76042454E-03  1.63257861E-02
  1.65259246E-04  1.91496781E-03 -2.05000720E-03 -7.72820141E-05 -4.13649898E-04
 -5.98686863E-02  1.30525800E-01  1.98407584E-04 -2.27984358E-02 -1.55133924E-03
  1.27392958E-01  1.33236494E-03 -8.77457898E-03  4.04370506E-03  6.33966614E-04
  2.70816172E-04 -4.97460075E-04 -9.76640557E-04 -3.98543970E-04 -9.81346389E-02
  2.15354067E-01  2.35319028E-02 -1.77921928E-03 -2.94966596E-02  2.08441388E-01
  8.74224280E-03 -3.67119167E-03 -9.39368313E-03  6.28716645E-04 -1.32607982E-03
  1.25754320E-03  2.82818894E-04  2.59694397E-04  1.17209759E-01  6.59044529E-03
  6.31534259E-03  1.71147344E-02 -1.26059074E-02  1.16657497E-01  5.29758045E-03
 -2.03235752E-02 -8.48198401E-03 -5.78199117E-03  3.79842722E-02  3.02830403E-03
  7.87161154E-04  2.24194769E-03  6.80808544E-03  4.46399602E-02  2.24734897E-03
 -8.57919761E-04  5.51305352E-03 -3.86079870E-03  6.87010294E-02  5.95044434E-04
  1.12263486E-03  7.08892511E-03  8.23379220E-03  6.51067292E-02  5.58845816E-03
 -9.01202353E-03 -8.32684887E-03  1.61618837E-03  1.13099266E-01 -2.50025421E-01
 -2.47449541E-02  1.67960846E-02 -3.24755151E-02 -2.39415595E-01 -1.13334612E-02
  7.18235817E-03 -1.06873234E-02 -3.26678348E-04 -1.34875834E-03  1.50601575E-03
 -3.24599452E-04 -3.37122540E-04 -4.44823902E-02  9.75349953E-02 -8.36851160E-04
 -1.49406528E-02 -1.40009675E-03  9.37394508E-02 -6.44267100E-04 -3.21222694E-03
  3.25558828E-03  9.15897649E-04 -1.43414356E-04  2.49665860E-04 -4.01077132E-04
 -8.89534600E-06 -1.75388353E-01  3.85813661E-01  4.14782451E-02  3.51889598E-04
 -5.05168794E-02  3.74264057E-01  1.43937516E-02 -2.58391227E-03 -1.56840532E-02
  8.98042562E-04 -2.23051370E-03  1.47749778E-03  8.32638234E-04  1.14601094E-03
 -7.56766540E-02 -3.34836492E-03 -3.91170872E-03 -1.10248163E-02  7.95990905E-03
 -7.50743775E-02 -1.28477787E-03  1.28366281E-02  5.19621262E-03  3.57326460E-03
  2.87017690E-02  1.46507490E-03  5.96516257E-04  1.55901039E-03  4.95565321E-03
  2.87720018E-02  4.57662815E-03 -9.38467924E-04  4.94008077E-03 -3.11540591E-03
  1.17053103E-01 -2.27766696E-03  1.21121060E-03  1.40528611E-02  1.54075279E-02
  1.17561626E-01  7.97771031E-03 -1.58947804E-02 -1.47675297E-02  2.92383294E-03
  2.96540905E-02 -6.60965121E-02 -7.68615605E-03  5.63992589E-03 -1.09303508E-02
 -6.19216456E-02 -4.41900512E-03  3.13336670E-03 -7.32027255E-03  1.15762241E-04
  2.62110787E-05 -2.54549484E-04 -1.30612182E-04 -2.52252015E-04 -1.99478324E-01
  4.39105904E-01 -9.70671604E-04 -7.31240496E-02 -1.87838396E-02  4.25280487E-01
  2.53947713E-03 -2.90809401E-02 -2.68931652E-03  8.39015861E-04  8.18523178E-04
  8.32305184E-06 -2.56058409E-03 -4.28558770E-04  7.11852538E-02 -1.56894451E-01
 -1.72513457E-02 -1.80816318E-03  1.71917098E-02 -1.53781346E-01 -6.18681116E-03
  8.13028601E-04  3.87186072E-03  3.46427231E-04  7.93729961E-04 -2.18642884E-04
 -4.15038172E-04 -4.81647469E-04 -2.05599285E-02 -6.50822097E-04 -1.06258526E-03
 -2.97876022E-03  2.30913442E-03 -2.02063760E-02 -1.15254962E-04  3.36992239E-03
  1.34220595E-03  1.08421485E-03  1.32083548E-01  8.05362944E-03  2.76391410E-03
  7.63889881E-03  2.32974143E-02  1.32824790E-01 -1.25833750E-03 -2.92988551E-03
  1.85646234E-02 -1.57099490E-02 -4.15328710E-02  3.86271849E-03 -3.49037738E-04
 -6.01362283E-03 -7.37419791E-03 -4.82653887E-02 -3.02453901E-03  6.45196831E-03
  5.90966953E-03 -1.33916632E-03 -3.32677435E-03  6.87957508E-03  1.26789138E-02
  1.07190737E-01 -5.77952469E-02  1.91831905E-02  1.69859136E-03  7.06034480E-02
 -3.65714271E-02 -1.94326903E-03  6.48376991E-04  4.66679251E-03  2.63081256E-03
  5.01640847E-04  6.54094518E-03 -1.70781271E-02  3.79598663E-02 -7.33639485E-02
  3.04015661E-01 -1.77259742E-02  2.25465804E-02 -4.12989985E-02  1.79834937E-01
 -6.36561222E-03 -1.25666119E-03 -1.77075188E-02 -4.80368770E-03 -2.73101186E-03
  9.08604832E-03 -2.02762584E-02 -1.44755657E-01 -2.84417607E-01 -1.69082737E-01
 -3.25575355E-02 -8.03018887E-02 -1.63441790E-01 -1.02392276E-01  1.24368364E-02
  5.55260960E-04  1.39935789E-02 -6.64796049E-03 -1.14432746E-02 -6.34610683E-02
 -2.37957714E-02 -1.68718387E-03 -4.28066860E-03  3.97513707E-03  1.96056958E-02
  1.08933464E-02 -1.82642098E-03  1.92055764E-03 -2.28321290E-03 -1.49827325E-01
 -6.30206736E-02 -1.31213093E-03 -9.91197472E-03 -1.12633537E-02  1.43061797E-01
  6.87413496E-02 -1.27740794E-03  1.38536631E-02 -3.15260012E-04  1.82308535E-01
  8.54173091E-02 -2.76590569E-03  5.53847578E-03  1.20067779E-02 -1.58607095E-01
 -7.57293440E-02  1.20035963E-02  6.15699929E-03 -9.72519099E-03 -2.79267636E-04
 -9.16687226E-04  3.56620100E-01  3.33412652E-01 -9.76158675E-02  4.70320289E-03
  2.09891399E-01  1.97466865E-01 -5.92360015E-02 -8.32121389E-03  1.34221119E-02
  1.77999314E-02  1.97803911E-02  4.20167482E-03  4.74621973E-04 -1.77159795E-03
  7.53241089E-03 -1.30320870E-03 -1.64889465E-02  2.23649767E-04  7.58676601E-03
 -1.60111190E-03 -8.89155047E-03 -2.11228349E-05  5.14635788E-04  6.81632030E-04
  2.15824355E-04 -5.93617907E-04  1.19671184E-03 -3.19349158E-03  5.74682635E-02
  8.69445649E-02  4.23717141E-02 -4.32786063E-03  3.51479802E-02  4.90778029E-02
  2.40887504E-02 -3.63383533E-03 -9.32475535E-04 -3.87941165E-03  2.45568380E-03
  3.31298342E-03 -2.27444019E-01 -1.00239464E-01  2.79731451E-03 -1.51021202E-02
  1.62250237E-02  2.25275529E-01  9.83253870E-02 -1.91618895E-02 -1.46448430E-03
 -1.23701213E-02  7.62893824E-03  3.93481609E-03  2.54346514E-04  4.07511446E-04
  6.47956027E-04 -5.01734107E-03 -4.04307182E-03  6.52240998E-04 -5.55729936E-04
 -4.74535421E-04 -5.10774129E-02 -2.48542870E-02  1.80791075E-03 -1.87551449E-03
 -4.41172464E-03  5.19681253E-02  2.89280694E-02 -3.77457737E-03 -2.38703654E-03
  2.79591069E-03 -5.43804851E-03  1.30590109E-02 -8.41440593E-02 -2.39999101E-02
 -4.21919475E-02  2.27476299E-02 -5.18939397E-02 -1.17296359E-02 -3.18250088E-02
  3.13948235E-04 -3.03490873E-03 -2.17643751E-03 -3.54340794E-03 -5.96119548E-04
  8.76337415E-04 -3.49260012E-03  6.70277791E-02 -1.11038327E-01  3.48934148E-01
 -1.55399489E-03  4.35793967E-02 -6.59681587E-02  2.06624786E-01 -1.01819827E-02
 -9.02225661E-04 -2.04863721E-02 -6.76637264E-03 -3.77734636E-03  1.24507162E-02
 -2.89826543E-02  1.87144115E-01  2.73883394E-01  9.01896925E-02 -4.89138773E-02
  1.15116808E-01  1.62308400E-01  4.95329094E-02 -8.99073398E-03 -3.83698076E-03
 -1.18186528E-02  7.08473457E-03  1.12465272E-02  1.39159065E-02  6.65147464E-03
 -2.11437620E-03  3.54345211E-04 -1.89025447E-03 -4.96553545E-02 -1.90911826E-02
  4.18508687E-03  1.69892946E-03  1.19530660E-03 -1.67919952E-01 -7.72931412E-02
 -6.08498770E-04 -1.15716887E-02 -1.13289622E-02  1.74419287E-01  8.42585746E-02
 -4.00507646E-04  1.59187668E-02 -4.26730767E-03 -1.34363760E-01 -5.68495562E-02
  5.39010548E-03 -5.97937287E-03 -1.47158110E-02  1.66933811E-01  8.34248412E-02
 -1.15431598E-02 -7.14030200E-03  7.27036062E-03  4.43476873E-02 -1.04375504E-01
  2.10100443E-01 -1.30889770E-01  3.03627382E-01 -1.87709782E-01  1.50803877E-01
 -9.31648150E-02  2.20117789E-01  4.88966442E-03  1.22670711E-02 -8.25536985E-03
  3.38802211E-03 -2.09237390E-03 -3.73038270E-02  8.34736344E-02 -1.02653486E-02
  2.60263650E-01  1.29800321E-01  1.71941755E-01 -1.01868306E-02  1.84388156E-01
  1.00950570E-01  3.45347477E-03 -1.39033725E-03 -7.00723974E-03  1.08345868E-02
  7.94214693E-04  2.92079978E-02 -6.73638503E-02  1.30283272E-01  2.02804848E-02
 -2.13337098E-01 -1.24827187E-01  9.44988723E-02  1.70890397E-02 -1.64735222E-01
  5.70414280E-03 -8.79286370E-03  8.35153778E-04  2.43827554E-03  2.69353722E-03
  9.88455933E-02  4.30176302E-02  9.08402052E-03  7.73312450E-03 -3.96105574E-04
  1.00237174E-01  4.55559335E-02 -7.75875326E-03 -8.48985291E-03  3.75873633E-03
 -9.34658002E-02 -3.74115601E-02 -1.61894886E-03  2.02490949E-03 -8.83190440E-03
 -6.35574367E-02 -6.17981035E-02 -5.12267821E-04  1.86572031E-03  8.02922012E-03
  6.43420974E-02  2.34314398E-02  2.83124165E-03  7.50988942E-03 -7.85763520E-05
  6.15824832E-02  3.31717992E-02 -2.82763447E-03 -5.34298218E-03 -4.08026363E-03
  3.17597194E-02 -7.43722258E-02  1.77863548E-01 -1.20767466E-01  1.85566633E-01
 -1.36167059E-01  1.29057596E-01 -9.17656052E-02  1.32269367E-01  2.84716717E-03
  9.42021082E-03 -7.27288708E-03  3.26835166E-03 -2.13708842E-03 -8.39352569E-03
  1.86818252E-02  2.28227833E-02 -4.35623421E-02  1.24474282E-01  4.03521059E-02
  1.20559714E-02 -3.54912638E-02  7.28337701E-02 -4.98216440E-03 -7.16238572E-04
 -7.25255025E-03 -2.56433335E-03 -7.12005299E-04 -5.26134925E-02  1.22867334E-01
 -2.98389043E-01  4.11775226E-03  3.52251214E-01  2.19810114E-01 -2.24969585E-01
  1.05316000E-02  2.66766076E-01 -6.07460701E-03  1.66346581E-02 -3.78515247E-03
 -5.27286343E-03 -3.31195425E-03  6.70979963E-02  3.22408581E-02  7.17811953E-03
  4.41689412E-03 -7.81671306E-04  7.65559684E-02  3.14288610E-02 -5.15525203E-03
 -7.02632014E-03  1.61912655E-03 -5.80548829E-02 -3.22878254E-02  6.92495306E-05
 -4.01558166E-03 -3.16120262E-03  5.47800646E-02 -7.17929001E-03 -5.73745439E-04
  5.80865556E-03 -3.75706305E-03 -1.14415658E-01 -3.45682721E-02 -8.59064284E-03
 -8.00096647E-03 -2.80008537E-03 -1.20414496E-01 -5.50048565E-02  4.29118524E-03
  1.06806969E-02  5.57622490E-03 -3.26491774E-02  7.79267155E-02 -1.21306209E-01
  6.70537460E-02 -2.20275678E-01  1.37437898E-01 -8.46695623E-02  4.68205350E-02
 -1.64173843E-01 -4.95240011E-03 -8.64128644E-03  6.12555409E-03 -1.82699263E-03
  1.65125236E-03 -5.30295214E-02  1.24278483E-01  4.60297995E-02  4.67581208E-01
  9.32643825E-02  2.28216709E-01  3.97859690E-02  3.37066423E-01  6.62907208E-02