#INFO: **** input file is /home/liwei01/wsr/dftpart/test_2body/w32/gfea_c8.py ****
from dftpart import gfea3
from pyscf import lib

par = 8
with lib.with_omp_threads(par):
    fr0 = gfea3.GFEA()
    fr0.inputstyle = 'frg'
    fr0.method = ['hf', '6-31gss','charge']
    fr0.gjfname = 'w32'
    fr0.output = 'w32'
    fr0.verbose = 9
    fr0.showinter = True
    #fr0.do_deriv = True
    fr0.kernel()

#INFO: ******************** input file end ********************


System: uname_result(system='Linux', node='master', release='3.10.0-693.el7.x86_64', version='#1 SMP Tue Aug 22 21:09:27 UTC 2017', machine='x86_64', processor='x86_64')  Threads 8
Python 3.7.6 (default, Jan  8 2020, 19:59:22) 
[GCC 7.3.0]
numpy 1.18.1  scipy 1.4.1
Date: Tue Jun 16 20:54:41 2020
PySCF version 1.6.1
PySCF path  /home/liwei01/zcheng/pyscf/pyscf
GIT HEAD      ref: refs/heads/master
GIT master branch  3adc7fd25839fe674469a52b764c3661e32d7318

[CONFIG] DEBUG = False
[CONFIG] MAX_MEMORY = 4000
[CONFIG] TMPDIR = .
[CONFIG] UNIT = angstrom
[CONFIG] VERBOSE = 3
[CONFIG] conf_file = None
[INPUT] verbose = 9
[INPUT] max_memory = 4000 
[INPUT] num. atoms = 24
[INPUT] num. electrons = 80
[INPUT] charge = 0
[INPUT] spin (= nelec alpha-beta = 2S) = 0
[INPUT] symmetry False subgroup None
[INPUT] Mole.unit = angstrom
[INPUT]  1 O      8.392325000000 -11.812941000000 -11.200483000000 AA   15.859195798340 -22.323223215646 -21.165845332847 Bohr
[INPUT]  2 O      7.250284000000  -9.859627000000 -13.103456000000 AA   13.701051085316 -18.631994720367 -24.761943125289 Bohr
[INPUT]  3 O      6.966193000000  -9.247795000000 -10.274305000000 AA   13.164196900862 -17.475799806122 -19.415622570249 Bohr
[INPUT]  4 O     10.084912000000  -9.602997000000 -13.694410000000 AA   19.057721670340 -18.147034305020 -25.878684337505 Bohr
[INPUT]  5 O      8.451586000000 -10.635579000000 -15.685931000000 AA   15.971182858208 -20.098331486176 -29.642113598825 Bohr
[INPUT]  6 O      4.039142000000 -11.224262000000 -12.804410000000 AA    7.632872158228 -21.210781130363 -24.196828086642 Bohr
[INPUT]  7 O      5.339755000000 -11.212242000000 -15.474518000000 AA   10.090674522277 -21.188066622346 -29.242600929652 Bohr
[INPUT]  8 O      4.641258000000  -8.138278000000 -12.671145000000 AA    8.770706493447 -15.379116545573 -23.944993734652 Bohr
[INPUT]  9 H      8.175276000000 -12.537815000000 -10.614239000000 AA   15.449032632730 -23.693036550464 -20.058004730677 Bohr
[INPUT] 10 H      9.252154000000 -11.514100000000 -10.904475000000 AA   17.484037122299 -21.758495570855 -20.606471282167 Bohr
[INPUT] 11 H      7.120660000000 -10.221473000000 -13.980096000000 AA   13.456097226145 -19.315784559636 -26.418552635128 Bohr
[INPUT] 12 H      7.341484000000 -10.626744000000 -12.538261000000 AA   13.873394107876 -20.081635755865 -23.693879368315 Bohr
[INPUT] 13 H      6.975152000000  -9.845016000000 -11.022289000000 AA   13.181126957212 -18.604383931961 -20.829107475806 Bohr
[INPUT] 14 H      7.684375000000  -8.638472000000 -10.445098000000 AA   14.521364188455 -16.324346214724 -19.738374564242 Bohr
[INPUT] 15 H      9.837963000000  -9.877914000000 -14.577398000000 AA   18.591055693604 -18.666552142007 -27.547289828782 Bohr
[INPUT] 16 H      9.267108000000  -9.628370000000 -13.197635000000 AA   17.512296086766 -18.194982325979 -24.939915641974 Bohr
[INPUT] 17 H      8.125035000000 -10.406856000000 -16.556152000000 AA   15.354090902505 -19.666107657787 -31.286592956670 Bohr
[INPUT] 18 H      9.262189000000 -11.116608000000 -15.852568000000 AA   17.503000523959 -21.007344554149 -29.957011891044 Bohr
[INPUT] 19 H      4.524844000000 -12.047609000000 -12.755179000000 AA    8.550715916381 -22.766681465845 -24.103794979804 Bohr
[INPUT] 20 H      4.432119000000 -10.757539000000 -13.541956000000 AA    8.375491061481 -20.328802484328 -25.590588030911 Bohr
[INPUT] 21 H      5.880078000000 -10.458674000000 -15.712045000000 AA   11.111737011080 -19.764029486109 -29.691461906842 Bohr
[INPUT] 22 H      5.489557000000 -11.845700000000 -16.176318000000 AA   10.373759275189 -22.385128753760 -30.568810723872 Bohr
[INPUT] 23 H      4.597809000000  -7.272042000000 -12.266198000000 AA    8.688599783060 -13.742167746334 -23.179754809688 Bohr
[INPUT] 24 H      5.576498000000  -8.338407000000 -12.709967000000 AA   10.538053954185 -15.757305545156 -24.018356682260 Bohr
[INPUT] ---------------- BASIS SET ---------------- 
[INPUT] l, kappa, [nprim/nctr], expnt,             c_1 c_2 ...
[INPUT] H
[INPUT] 0    0    [3    /1   ]  18.731137         0.0334946
                                2.8253937         0.23472695
                                0.6401217         0.81375733
[INPUT] 0    0    [1    /1   ]  0.1612778            1
[INPUT] 1    0    [1    /1   ]  1.1                  1
[INPUT] O
[INPUT] 0    0    [6    /1   ]  5484.6717         0.0018311
                                825.23495         0.0139501
                                188.04696         0.0684451
                                52.9645           0.2327143
                                16.89757          0.470193
                                5.7996353         0.3585209
[INPUT] 0    0    [3    /1   ]  15.539616         -0.1107775
                                3.5999336         -0.1480263
                                1.0137618         1.130767
[INPUT] 0    0    [1    /1   ]  0.2700058            1
[INPUT] 1    0    [3    /1   ]  15.539616         0.0708743
                                3.5999336         0.3397528
                                1.0137618         0.7271586
[INPUT] 1    0    [1    /1   ]  0.2700058            1
[INPUT] 2    0    [1    /1   ]  0.8                  1

nuclear repulsion = 455.234345145279
number of shells = 96
number of NR pGTOs = 328
number of NR cGTOs = 192
basis = 6-31gss
ecp = {}
bas 0, expnt(s) = [5484.6717     825.23495    188.04696     52.9645      16.89757
    5.7996353]
bas 1, expnt(s) = [15.539616   3.5999336  1.0137618]
bas 2, expnt(s) = [0.2700058]
bas 3, expnt(s) = [15.539616   3.5999336  1.0137618]
bas 4, expnt(s) = [0.2700058]
bas 5, expnt(s) = [0.8]
bas 6, expnt(s) = [5484.6717     825.23495    188.04696     52.9645      16.89757
    5.7996353]
bas 7, expnt(s) = [15.539616   3.5999336  1.0137618]
bas 8, expnt(s) = [0.2700058]
bas 9, expnt(s) = [15.539616   3.5999336  1.0137618]
bas 10, expnt(s) = [0.2700058]
bas 11, expnt(s) = [0.8]
bas 12, expnt(s) = [5484.6717     825.23495    188.04696     52.9645      16.89757
    5.7996353]
bas 13, expnt(s) = [15.539616   3.5999336  1.0137618]
bas 14, expnt(s) = [0.2700058]
bas 15, expnt(s) = [15.539616   3.5999336  1.0137618]
bas 16, expnt(s) = [0.2700058]
bas 17, expnt(s) = [0.8]
bas 18, expnt(s) = [5484.6717     825.23495    188.04696     52.9645      16.89757
    5.7996353]
bas 19, expnt(s) = [15.539616   3.5999336  1.0137618]
bas 20, expnt(s) = [0.2700058]
bas 21, expnt(s) = [15.539616   3.5999336  1.0137618]
bas 22, expnt(s) = [0.2700058]
bas 23, expnt(s) = [0.8]
bas 24, expnt(s) = [5484.6717     825.23495    188.04696     52.9645      16.89757
    5.7996353]
bas 25, expnt(s) = [15.539616   3.5999336  1.0137618]
bas 26, expnt(s) = [0.2700058]
bas 27, expnt(s) = [15.539616   3.5999336  1.0137618]
bas 28, expnt(s) = [0.2700058]
bas 29, expnt(s) = [0.8]
bas 30, expnt(s) = [5484.6717     825.23495    188.04696     52.9645      16.89757
    5.7996353]
bas 31, expnt(s) = [15.539616   3.5999336  1.0137618]
bas 32, expnt(s) = [0.2700058]
bas 33, expnt(s) = [15.539616   3.5999336  1.0137618]
bas 34, expnt(s) = [0.2700058]
bas 35, expnt(s) = [0.8]
bas 36, expnt(s) = [5484.6717     825.23495    188.04696     52.9645      16.89757
    5.7996353]
bas 37, expnt(s) = [15.539616   3.5999336  1.0137618]
bas 38, expnt(s) = [0.2700058]
bas 39, expnt(s) = [15.539616   3.5999336  1.0137618]
bas 40, expnt(s) = [0.2700058]
bas 41, expnt(s) = [0.8]
bas 42, expnt(s) = [5484.6717     825.23495    188.04696     52.9645      16.89757
    5.7996353]
bas 43, expnt(s) = [15.539616   3.5999336  1.0137618]
bas 44, expnt(s) = [0.2700058]
bas 45, expnt(s) = [15.539616   3.5999336  1.0137618]
bas 46, expnt(s) = [0.2700058]
bas 47, expnt(s) = [0.8]
bas 48, expnt(s) = [18.731137   2.8253937  0.6401217]
bas 49, expnt(s) = [0.1612778]
bas 50, expnt(s) = [1.1]
bas 51, expnt(s) = [18.731137   2.8253937  0.6401217]
bas 52, expnt(s) = [0.1612778]
bas 53, expnt(s) = [1.1]
bas 54, expnt(s) = [18.731137   2.8253937  0.6401217]
bas 55, expnt(s) = [0.1612778]
bas 56, expnt(s) = [1.1]
bas 57, expnt(s) = [18.731137   2.8253937  0.6401217]
bas 58, expnt(s) = [0.1612778]
bas 59, expnt(s) = [1.1]
bas 60, expnt(s) = [18.731137   2.8253937  0.6401217]
bas 61, expnt(s) = [0.1612778]
bas 62, expnt(s) = [1.1]
bas 63, expnt(s) = [18.731137   2.8253937  0.6401217]
bas 64, expnt(s) = [0.1612778]
bas 65, expnt(s) = [1.1]
bas 66, expnt(s) = [18.731137   2.8253937  0.6401217]
bas 67, expnt(s) = [0.1612778]
bas 68, expnt(s) = [1.1]
bas 69, expnt(s) = [18.731137   2.8253937  0.6401217]
bas 70, expnt(s) = [0.1612778]
bas 71, expnt(s) = [1.1]
bas 72, expnt(s) = [18.731137   2.8253937  0.6401217]
bas 73, expnt(s) = [0.1612778]
bas 74, expnt(s) = [1.1]
bas 75, expnt(s) = [18.731137   2.8253937  0.6401217]
bas 76, expnt(s) = [0.1612778]
bas 77, expnt(s) = [1.1]
bas 78, expnt(s) = [18.731137   2.8253937  0.6401217]
bas 79, expnt(s) = [0.1612778]
bas 80, expnt(s) = [1.1]
bas 81, expnt(s) = [18.731137   2.8253937  0.6401217]
bas 82, expnt(s) = [0.1612778]
bas 83, expnt(s) = [1.1]
bas 84, expnt(s) = [18.731137   2.8253937  0.6401217]
bas 85, expnt(s) = [0.1612778]
bas 86, expnt(s) = [1.1]
bas 87, expnt(s) = [18.731137   2.8253937  0.6401217]
bas 88, expnt(s) = [0.1612778]
bas 89, expnt(s) = [1.1]
bas 90, expnt(s) = [18.731137   2.8253937  0.6401217]
bas 91, expnt(s) = [0.1612778]
bas 92, expnt(s) = [1.1]
bas 93, expnt(s) = [18.731137   2.8253937  0.6401217]
bas 94, expnt(s) = [0.1612778]
bas 95, expnt(s) = [1.1]
CPU time:       264.75
arg.atm = [[  8  20   1  23   0   0]
 [  8  24   1  27   0   0]
 [  8  28   1  31   0   0]
 [  8  32   1  35   0   0]
 [  8  36   1  39   0   0]
 [  8  40   1  43   0   0]
 [  8  44   1  47   0   0]
 [  8  48   1  51   0   0]
 [  1  52   1  55   0   0]
 [  1  56   1  59   0   0]
 [  1  60   1  63   0   0]
 [  1  64   1  67   0   0]
 [  1  68   1  71   0   0]
 [  1  72   1  75   0   0]
 [  1  76   1  79   0   0]
 [  1  80   1  83   0   0]
 [  1  84   1  87   0   0]
 [  1  88   1  91   0   0]
 [  1  92   1  95   0   0]
 [  1  96   1  99   0   0]
 [  1 100   1 103   0   0]
 [  1 104   1 107   0   0]
 [  1 108   1 111   0   0]
 [  1 112   1 115   0   0]]
arg.bas = [[  0   0   6   1   0 126 132   0]
 [  0   0   3   1   0 138 141   0]
 [  0   0   1   1   0 144 145   0]
 [  0   1   3   1   0 146 149   0]
 [  0   1   1   1   0 152 153   0]
 [  0   2   1   1   0 154 155   0]
 [  1   0   6   1   0 126 132   0]
 [  1   0   3   1   0 138 141   0]
 [  1   0   1   1   0 144 145   0]
 [  1   1   3   1   0 146 149   0]
 [  1   1   1   1   0 152 153   0]
 [  1   2   1   1   0 154 155   0]
 [  2   0   6   1   0 126 132   0]
 [  2   0   3   1   0 138 141   0]
 [  2   0   1   1   0 144 145   0]
 [  2   1   3   1   0 146 149   0]
 [  2   1   1   1   0 152 153   0]
 [  2   2   1   1   0 154 155   0]
 [  3   0   6   1   0 126 132   0]
 [  3   0   3   1   0 138 141   0]
 [  3   0   1   1   0 144 145   0]
 [  3   1   3   1   0 146 149   0]
 [  3   1   1   1   0 152 153   0]
 [  3   2   1   1   0 154 155   0]
 [  4   0   6   1   0 126 132   0]
 [  4   0   3   1   0 138 141   0]
 [  4   0   1   1   0 144 145   0]
 [  4   1   3   1   0 146 149   0]
 [  4   1   1   1   0 152 153   0]
 [  4   2   1   1   0 154 155   0]
 [  5   0   6   1   0 126 132   0]
 [  5   0   3   1   0 138 141   0]
 [  5   0   1   1   0 144 145   0]
 [  5   1   3   1   0 146 149   0]
 [  5   1   1   1   0 152 153   0]
 [  5   2   1   1   0 154 155   0]
 [  6   0   6   1   0 126 132   0]
 [  6   0   3   1   0 138 141   0]
 [  6   0   1   1   0 144 145   0]
 [  6   1   3   1   0 146 149   0]
 [  6   1   1   1   0 152 153   0]
 [  6   2   1   1   0 154 155   0]
 [  7   0   6   1   0 126 132   0]
 [  7   0   3   1   0 138 141   0]
 [  7   0   1   1   0 144 145   0]
 [  7   1   3   1   0 146 149   0]
 [  7   1   1   1   0 152 153   0]
 [  7   2   1   1   0 154 155   0]
 [  8   0   3   1   0 116 119   0]
 [  8   0   1   1   0 122 123   0]
 [  8   1   1   1   0 124 125   0]
 [  9   0   3   1   0 116 119   0]
 [  9   0   1   1   0 122 123   0]
 [  9   1   1   1   0 124 125   0]
 [ 10   0   3   1   0 116 119   0]
 [ 10   0   1   1   0 122 123   0]
 [ 10   1   1   1   0 124 125   0]
 [ 11   0   3   1   0 116 119   0]
 [ 11   0   1   1   0 122 123   0]
 [ 11   1   1   1   0 124 125   0]
 [ 12   0   3   1   0 116 119   0]
 [ 12   0   1   1   0 122 123   0]
 [ 12   1   1   1   0 124 125   0]
 [ 13   0   3   1   0 116 119   0]
 [ 13   0   1   1   0 122 123   0]
 [ 13   1   1   1   0 124 125   0]
 [ 14   0   3   1   0 116 119   0]
 [ 14   0   1   1   0 122 123   0]
 [ 14   1   1   1   0 124 125   0]
 [ 15   0   3   1   0 116 119   0]
 [ 15   0   1   1   0 122 123   0]
 [ 15   1   1   1   0 124 125   0]
 [ 16   0   3   1   0 116 119   0]
 [ 16   0   1   1   0 122 123   0]
 [ 16   1   1   1   0 124 125   0]
 [ 17   0   3   1   0 116 119   0]
 [ 17   0   1   1   0 122 123   0]
 [ 17   1   1   1   0 124 125   0]
 [ 18   0   3   1   0 116 119   0]
 [ 18   0   1   1   0 122 123   0]
 [ 18   1   1   1   0 124 125   0]
 [ 19   0   3   1   0 116 119   0]
 [ 19   0   1   1   0 122 123   0]
 [ 19   1   1   1   0 124 125   0]
 [ 20   0   3   1   0 116 119   0]
 [ 20   0   1   1   0 122 123   0]
 [ 20   1   1   1   0 124 125   0]
 [ 21   0   3   1   0 116 119   0]
 [ 21   0   1   1   0 122 123   0]
 [ 21   1   1   1   0 124 125   0]
 [ 22   0   3   1   0 116 119   0]
 [ 22   0   1   1   0 122 123   0]
 [ 22   1   1   1   0 124 125   0]
 [ 23   0   3   1   0 116 119   0]
 [ 23   0   1   1   0 122 123   0]
 [ 23   1   1   1   0 124 125   0]]
arg.env = [ 1.37036000e+02  0.00000000e+00  0.00000000e+00  0.00000000e+00
  0.00000000e+00  0.00000000e+00  0.00000000e+00  0.00000000e+00
  0.00000000e+00  0.00000000e+00  0.00000000e+00  0.00000000e+00
  0.00000000e+00  0.00000000e+00  0.00000000e+00  0.00000000e+00
  0.00000000e+00  0.00000000e+00  0.00000000e+00  0.00000000e+00
  1.58591958e+01 -2.23232232e+01 -2.11658453e+01  0.00000000e+00
  1.37010511e+01 -1.86319947e+01 -2.47619431e+01  0.00000000e+00
  1.31641969e+01 -1.74757998e+01 -1.94156226e+01  0.00000000e+00
  1.90577217e+01 -1.81470343e+01 -2.58786843e+01  0.00000000e+00
  1.59711829e+01 -2.00983315e+01 -2.96421136e+01  0.00000000e+00
  7.63287216e+00 -2.12107811e+01 -2.41968281e+01  0.00000000e+00
  1.00906745e+01 -2.11880666e+01 -2.92426009e+01  0.00000000e+00
  8.77070649e+00 -1.53791165e+01 -2.39449937e+01  0.00000000e+00
  1.54490326e+01 -2.36930366e+01 -2.00580047e+01  0.00000000e+00
  1.74840371e+01 -2.17584956e+01 -2.06064713e+01  0.00000000e+00
  1.34560972e+01 -1.93157846e+01 -2.64185526e+01  0.00000000e+00
  1.38733941e+01 -2.00816358e+01 -2.36938794e+01  0.00000000e+00
  1.31811270e+01 -1.86043839e+01 -2.08291075e+01  0.00000000e+00
  1.45213642e+01 -1.63243462e+01 -1.97383746e+01  0.00000000e+00
  1.85910557e+01 -1.86665521e+01 -2.75472898e+01  0.00000000e+00
  1.75122961e+01 -1.81949823e+01 -2.49399156e+01  0.00000000e+00
  1.53540909e+01 -1.96661077e+01 -3.12865930e+01  0.00000000e+00
  1.75030005e+01 -2.10073446e+01 -2.99570119e+01  0.00000000e+00
  8.55071592e+00 -2.27666815e+01 -2.41037950e+01  0.00000000e+00
  8.37549106e+00 -2.03288025e+01 -2.55905880e+01  0.00000000e+00
  1.11117370e+01 -1.97640295e+01 -2.96914619e+01  0.00000000e+00
  1.03737593e+01 -2.23851288e+01 -3.05688107e+01  0.00000000e+00
  8.68859978e+00 -1.37421677e+01 -2.31797548e+01  0.00000000e+00
  1.05380540e+01 -1.57573055e+01 -2.40183567e+01  0.00000000e+00
  1.87311370e+01  2.82539370e+00  6.40121700e-01  7.61926220e-01
  1.29237100e+00  1.47131900e+00  1.61277800e-01  6.42977783e-01
  1.10000000e+00  3.28643653e+00  5.48467170e+03  8.25234950e+02
  1.88046960e+02  5.29645000e+01  1.68975700e+01  5.79963530e+00
  2.94842455e+00  5.42657124e+00  8.78126489e+00  1.15432129e+01
  9.90055015e+00  3.38516599e+00  1.55396160e+01  3.59993360e+00
  1.01376180e+00 -2.19051792e+00 -9.77405528e-01  2.88629094e+00
  2.70005800e-01  9.46334873e-01  1.55396160e+01  3.59993360e+00
  1.01376180e+00  6.37930734e+00  4.91490975e+00  2.15791055e+00
  2.70005800e-01  5.67807022e-01  8.00000000e-01  1.76578110e+00]
ecpbas  = []


******** <class 'pyscf.qmmm.itrf.mm_charge.<locals>.QMMM'> ********
method = QMMM-RHF
initial guess = minao
damping factor = 0
level shift factor = 0
DIIS = <class 'pyscf.scf.diis.CDIIS'>
DIIS start cycle = 1
DIIS space = 8
SCF tol = 1e-09
SCF gradient tol = None
max. SCF cycles = 50
direct_scf = True
direct_scf_tol = 1e-13
chkfile to save SCF result = /home/liwei01/wsr/dftpart/test_2body/w32/tmpm9nugubf
max_memory 4000 MB (current use 304 MB)
** Add background charges for <class 'pyscf.scf.hf.RHF'> **
Charge      Location
-1.035697    [ 20.23144001 -20.50137794 -19.07019386]
0.520608    [ 21.7723038  -21.39222885 -18.74761761]
0.515624    [ 19.97024207 -19.49608333 -17.58928542]
-1.009926    [ 16.42785407 -26.58707085 -18.04142885]
0.499922    [ 15.53371882 -25.95112132 -16.60336995]
0.507893    [ 16.16245338 -28.37548309 -17.98600129]
-1.050024    [ 10.52651529 -24.11298283 -20.2839555 ]
0.521386    [  8.7734466  -24.2410798  -19.85703047]
0.506414    [ 11.30765248 -23.44237383 -18.79666545]
-1.052762    [ 13.11969196 -22.35429031 -15.81898054]
0.521035    [ 14.16458201 -22.84877684 -14.42771692]
0.525545    [ 13.80909996 -20.77345693 -16.36451423]
-1.002885    [ 18.40539199 -27.51482622 -24.72543362]
0.521542    [ 17.83274639 -26.30664305 -23.50711585]
0.49877    [ 20.13069872 -27.06649815 -25.03241585]
-0.997115    [ 17.90283445 -15.11249509 -20.63210731]
0.530073    [ 18.89257472 -16.62132612 -20.50652934]
0.49195    [ 18.18557149 -14.25298717 -19.06582671]
-1.012936    [ 10.55365553 -29.46492154 -21.67488842]
0.504954    [  8.84108934 -29.00412127 -22.03084479]
0.525721    [ 11.34418277 -27.91794449 -21.17105153]
-0.985176    [ 16.63195772 -23.48150439 -12.27810621]
0.500614    [ 17.11266814 -22.20236011 -11.09293235]
0.508291    [ 16.89319913 -25.03868407 -11.39557387]
-0.979947    [ 19.94097588 -17.12125506 -14.67509908]
0.500341    [ 18.95312155 -17.86288753 -13.35371942]
0.493696    [ 19.00620207 -15.6543646  -15.17143564]
-0.982261    [ 16.04742575 -26.75780005 -29.6895325 ]
0.479882    [ 16.71262824 -28.42851069 -29.88488293]
0.495008    [ 16.8532352  -26.12000803 -28.20097066]
-0.983713    [ 20.17321188 -22.53529584 -29.89394228]
0.505479    [ 21.06170253 -23.16751127 -28.4507471 ]
0.512532    [ 20.35114661 -23.83370776 -31.14069287]
-1.011239    [ 14.66303696 -31.18986921 -25.03135193]
0.492592    [ 13.80996545 -30.6346091  -23.53606456]
0.497341    [ 16.13314373 -30.14067248 -25.13086491]
-0.999332    [ 25.43111026 -22.24828235 -18.47023794]
0.512801    [ 26.28398524 -20.77981964 -19.09325419]
0.507583    [ 26.7410892  -23.47726762 -18.25698991]
-1.016163    [ 10.56617686 -29.35403808 -16.44102735]
0.483053    [ 11.92280935 -30.36927076 -15.8079521 ]
0.523726    [ 10.34862781 -29.90290525 -18.15080431]
-0.977833    [ 24.5589393  -27.80514674 -21.18389789]
0.50587    [ 23.21796885 -28.65180829 -20.31390388]
0.463809    [ 25.76766104 -27.42438582 -19.8931866 ]
-0.992057    [ 16.93410036 -32.15697813 -17.52810554]
0.50918    [ 16.39069828 -32.53931319 -15.84570882]
0.510293    [ 15.6895513  -32.92540692 -18.59231236]
-0.998393    [ 24.35861321 -18.31258187 -25.98586582]
0.466984    [ 25.48944989 -18.60606579 -24.60492389]
0.51604    [ 22.70911474 -18.4111103  -25.25008395]
-1.010464    [  9.27281806 -14.9477601  -17.25327322]
0.476424    [  7.6789399  -15.16789619 -18.07972415]
0.517552    [ 10.24747455 -16.38576609 -17.75736144]
-0.991473    [  5.5836248  -24.00414405 -18.66237963]
0.501887    [  5.79022289 -25.52045085 -17.69798247]
0.510487    [  5.17491673 -22.73885336 -17.43603619]
-1.029267    [  7.95719829 -25.19119252 -14.2761212 ]
0.497876    [  9.38018663 -24.0850659  -14.1227926 ]
0.519667    [  8.66153702 -26.76190075 -14.83174226]
-1.001943    [ 16.13613705 -11.83176802 -24.46883904]
0.509813    [ 16.78082846 -12.94299123 -23.1954641 ]
0.477312    [ 17.5304658  -11.57071369 -25.59117007]
-1.019724    [ 21.67798379 -29.0173418  -14.20699124]
0.475311    [ 20.53074618 -29.01816194 -15.60548117]
0.514632    [ 22.50198564 -27.40961194 -14.29731259]
-0.9959    [ 24.21450458 -24.60133719 -13.9203349 ]
0.499354    [ 23.58737251 -23.46499007 -12.66043371]
0.511038    [ 23.91476757 -23.75039163 -15.48812918]
-1.001922    [ 21.40011279 -32.14724982 -20.33868764]
0.487648    [ 22.14106118 -33.75675602 -19.97480576]
0.509505    [ 19.73399418 -32.24696878 -19.64152988]
Set gradient conv threshold to 3.16228e-05
Nelec from initial guess = 79.91917950122611
cond(S) = 167.9556498389272
E1 = -1733.1486266004567  E_coul = 673.3259485745768
init E= -607.063066044062
    CPU time for initialize scf      8.77 sec, wall time      1.11 sec
  HOMO = -0.412993315303441  LUMO = 0.0697509139656655
  mo_energy =
[-20.84269033 -20.80201044 -20.7874985  -20.77266228 -20.77115875
 -20.76220199 -20.76096574 -20.73351359  -1.66934811  -1.63695931
  -1.6101546   -1.59893026  -1.59358624  -1.57793167  -1.57177881
  -1.54923947  -0.79736658  -0.75720254  -0.74715489  -0.73591985
  -0.7232312   -0.71590889  -0.70759947  -0.68427176  -0.6316109
  -0.60483545  -0.58628934  -0.58293607  -0.57079812  -0.54208567
  -0.53177029  -0.5218103   -0.51602487  -0.47472292  -0.46458502
  -0.45352644  -0.45084958  -0.44130794  -0.43775716  -0.41299332
   0.06975091   0.12852945   0.15373879   0.18121092   0.19414935
   0.21810894   0.22574156   0.2446824    0.26903741   0.2877178
   0.30278588   0.30605321   0.31792771   0.33495813   0.37518748
   0.3950946    0.88403794   0.89390618   0.91849785   0.93303483
   0.94325944   0.9464287    0.96572081   0.9766932    0.99344585
   1.00273772   1.01274369   1.01507253   1.02752608   1.03263066
   1.04330366   1.0489261    1.06527153   1.06858486   1.08504559
   1.1011448    1.10498933   1.13059872   1.13788079   1.15018443
   1.15713878   1.17377348   1.18735659   1.19388775   1.21821769
   1.22130925   1.23384745   1.25030722   1.26320667   1.27104774
   1.31100275   1.34086223   1.35119447   1.37524232   1.38281745
   1.41880243   1.49836934   1.53643013   1.56106072   1.58340164
   1.619398     1.62673934   1.65318902   1.69295713   1.70488873
   1.72004627   1.73530064   1.73612657   1.73964955   1.74983324
   1.75051857   1.76128137   1.76635474   1.77794225   1.79635438
   1.80033148   1.8192513    1.82553277   1.83230694   1.83997267
   1.85849479   1.88441229   1.888956     1.91342527   1.92017125
   1.95310826   1.96544461   2.01189758   2.46007858   2.49696313
   2.51499769   2.5162178    2.52412858   2.53305759   2.54778375
   2.5656361    2.58878583   2.59352236   2.59431093   2.60788191
   2.61465956   2.62602931   2.63241637   2.66087234   2.70489527
   2.74461815   2.74499591   2.77522987   2.77704038   2.79186171
   2.82193832   2.84858633   2.90363969   2.92333836   2.93371118
   2.94241613   2.94924679   2.95077937   2.95156387   2.95788119
   2.96696477   2.97226655   2.97802204   2.9836108    2.99173232
   2.99775113   3.03604955   3.06879521   3.31129082   3.34742417
   3.35135294   3.37346603   3.38162012   3.38603379   3.39068751
   3.43630733   3.69547561   3.73050564   3.743983     3.75476342
   3.75751603   3.77018643   3.79052466   3.82543163   3.87506046
   3.8924338    3.90595829   3.90903167   3.92161105   3.95576566
   4.02079152   4.04230037]
E1 = -1753.210975448103  E_coul = 692.408816270399
cycle= 1 E= -608.042547195886  delta_E= -0.979  |g|= 1.21  |ddm|= 3.34
    CPU time for cycle= 1      1.48 sec, wall time      0.19 sec
diis-norm(errvec)=2.18298
diis-c [-4.76540708  1.        ]
  HOMO = -0.306883510184401  LUMO = 0.180266654518365
  mo_energy =
[-20.39008324 -20.36416561 -20.34935964 -20.34105884 -20.28765804
 -20.24559796 -20.2387744  -20.20527525  -1.31634058  -1.28789242
  -1.28086849  -1.27806113  -1.24943658  -1.21607326  -1.19497901
  -1.16335371  -0.69625152  -0.6781697   -0.65892592  -0.65630256
  -0.62313146  -0.60275514  -0.58194309  -0.55005037  -0.54585359
  -0.52047172  -0.49960322  -0.49926086  -0.48140728  -0.47005432
  -0.44059384  -0.43829122  -0.42234791  -0.4144635   -0.40602522
  -0.3956904   -0.37852756  -0.36797968  -0.33879419  -0.30688351
   0.18026665   0.23138592   0.26393143   0.28664802   0.30951201
   0.32136948   0.33186298   0.34368963   0.36679229   0.37651381
   0.4027698    0.43523575   0.44922896   0.47535671   0.48672862
   0.49716278   0.98822259   1.0102979    1.02649318   1.03733405
   1.05952076   1.06849632   1.09584304   1.10346674   1.1064807
   1.11620897   1.12430896   1.13480961   1.1501536    1.16859942
   1.16977367   1.18926116   1.20056524   1.21087023   1.24406663
   1.25384192   1.26531231   1.29129955   1.29934454   1.31061759
   1.31934302   1.34155656   1.34267018   1.35513015   1.36934402
   1.39453971   1.40803222   1.4223769    1.43873362   1.44756233
   1.45592398   1.48049023   1.49409417   1.51238006   1.52107183
   1.54709207   1.6391849    1.67890812   1.72036171   1.72463415
   1.75136782   1.77772109   1.81236833   1.82507176   1.83205956
   1.83521982   1.86315325   1.86724047   1.87189284   1.88895939
   1.90255297   1.91029618   1.9187429    1.93629543   1.93798909
   1.94687776   1.95627593   1.96696709   1.99413995   2.00723684
   2.03354713   2.03614254   2.0456875    2.05490577   2.08145388
   2.0986783    2.10009508   2.13654292   2.54295149   2.56753363
   2.57759479   2.58205117   2.59905559   2.60825064   2.62860055
   2.6310345    2.65406833   2.67212927   2.67975007   2.6933728
   2.69864672   2.7266705    2.73641914   2.75148406   2.83199391
   2.84579748   2.85847756   2.86170017   2.91036723   2.92468781
   2.93616184   2.95993401   2.96862333   2.99527818   2.99814503
   3.00135489   3.00364983   3.02008711   3.0251377    3.04212486
   3.06217538   3.06295996   3.06915893   3.07073367   3.08637713
   3.09636598   3.12439056   3.13314537   3.38184623   3.40168506
   3.41279068   3.42456181   3.43456479   3.48217356   3.5114178
   3.51656541   3.76607357   3.78968914   3.79308425   3.81744768
   3.84640476   3.86932406   3.89797003   3.90822823   3.97011528
   3.99230449   4.02844742   4.05977312   4.09201442   4.12597719
   4.13143793   4.14028009]
E1 = -1741.1651002208075  E_coul = 680.1427932151715
cycle= 2 E= -608.262695023818  delta_E= -0.22  |g|= 0.586  |ddm|= 0.966
    CPU time for cycle= 2      1.35 sec, wall time      0.17 sec
diis-norm(errvec)=0.982156
diis-c [-0.23439954  0.28645397  0.71354603]
  HOMO = -0.412596672380795  LUMO = 0.181238250170493
  mo_energy =
[-20.58677412 -20.58300845 -20.58064491 -20.57751778 -20.55793157
 -20.53873806 -20.52318584 -20.49864231  -1.35996932  -1.34951767
  -1.34550281  -1.3405926   -1.33065335  -1.30410726  -1.28442113
  -1.25996129  -0.72739856  -0.72240884  -0.70697409  -0.7056652
  -0.6853811   -0.66822753  -0.6503989   -0.62557538  -0.59877932
  -0.58307195  -0.57646061  -0.57293864  -0.55891437  -0.54183748
  -0.51329155  -0.50944629  -0.50516406  -0.49451067  -0.48981285
  -0.48308041  -0.47440813  -0.46244164  -0.43856575  -0.41259667
   0.18123825   0.22261013   0.2614175    0.27697038   0.29746303
   0.31138271   0.32424555   0.33448673   0.35789955   0.3645361
   0.39002375   0.41228379   0.42851051   0.44202084   0.46962402
   0.47805231   0.97024577   0.9991307    1.00325638   1.01491722
   1.029946     1.04647241   1.06517938   1.0787909    1.08269561
   1.08783761   1.10089542   1.11077573   1.1114746    1.12244343
   1.12939276   1.13950779   1.15741613   1.16632758   1.17972294
   1.20120268   1.20581227   1.22215003   1.24296146   1.25629709
   1.26903308   1.27278466   1.27966831   1.30568465   1.31493652
   1.33404069   1.34668147   1.36429867   1.36945327   1.39488207
   1.41267179   1.42925437   1.43501809   1.46163678   1.46598155
   1.49680396   1.59683529   1.63019815   1.67209958   1.68306129
   1.70159527   1.72885616   1.76464181   1.79246919   1.8003792
   1.80534951   1.82168464   1.82651901   1.83421551   1.84595388
   1.85791087   1.8615236    1.87574472   1.88900462   1.89292084
   1.90028639   1.91396505   1.92590502   1.93535511   1.95476449
   1.97152707   1.98467606   1.98945344   2.00925953   2.02924897
   2.04808052   2.05041946   2.08767597   2.55525029   2.56475115
   2.57893685   2.57927454   2.59068214   2.59288096   2.59382192
   2.59924946   2.63636978   2.64611081   2.65883265   2.67365034
   2.67567524   2.68929144   2.69018435   2.69229384   2.804858
   2.81192316   2.82737646   2.8295132    2.8744545    2.88623317
   2.90275027   2.91287019   2.96155424   2.98265088   2.98499885
   2.98669729   2.99002694   3.00641978   3.01088474   3.0216219
   3.03681327   3.04062332   3.0454171    3.04734313   3.05537033
   3.06594763   3.08620572   3.11277298   3.38255823   3.38919234
   3.39584281   3.40167119   3.42150456   3.45142202   3.47703284
   3.48712081   3.76345905   3.76930188   3.776215     3.78559629
   3.8169234    3.83115104   3.86517524   3.87591616   3.93297578
   3.95438954   4.00049566   4.00576635   4.03340397   4.05908906
   4.08703899   4.10533391]
E1 = -1746.498003077578  E_coul = 685.4160228222537
cycle= 3 E= -608.322368273507  delta_E= -0.0597  |g|= 0.0866  |ddm|= 0.381
    CPU time for cycle= 3      1.39 sec, wall time      0.18 sec
diis-norm(errvec)=0.160694
diis-c [-0.01197041 -0.02680067  0.06420188  0.96259879]
  HOMO = -0.403021227348045  LUMO = 0.189539692592211
  mo_energy =
[-20.55590511 -20.5483631  -20.54483583 -20.54223374 -20.53707981
 -20.50637878 -20.48618089 -20.46282351  -1.34414956  -1.3357815
  -1.32885957  -1.32730528  -1.31947041  -1.2921003   -1.27100999
  -1.24721299  -0.71428029  -0.70981486  -0.69246426  -0.69231084
  -0.67453609  -0.65739943  -0.63888101  -0.61440207  -0.58772012
  -0.57352821  -0.56674082  -0.56079515  -0.5498699   -0.53293651
  -0.50300106  -0.49924254  -0.49286546  -0.48235615  -0.47906188
  -0.47374991  -0.46699684  -0.45296024  -0.42821256  -0.40302123
   0.18953969   0.22861857   0.26893671   0.28288815   0.30300236
   0.31811078   0.33177292   0.341305     0.36451974   0.37187872
   0.39674807   0.41843295   0.4350963    0.44727901   0.47721398
   0.4842467    0.97787833   1.00798761   1.01173471   1.02359619
   1.03949208   1.05531278   1.07362515   1.08757474   1.09233638
   1.09742397   1.1103724    1.12109042   1.12372605   1.13182671
   1.13915795   1.1487399    1.16632947   1.17672481   1.18812463
   1.21013327   1.21454748   1.23068774   1.2519995    1.26633864
   1.27912778   1.28101298   1.2891725    1.31522961   1.32436902
   1.34285459   1.35606317   1.37336223   1.37768234   1.4036088
   1.42244048   1.4373544    1.44590506   1.47127933   1.47598533
   1.506916     1.60721925   1.641642     1.68186656   1.69407455
   1.7113633    1.73869523   1.77392449   1.80243809   1.81285555
   1.8176916    1.83229473   1.83794867   1.84414269   1.8569865
   1.8676197    1.8718859    1.88606527   1.8985322    1.90295407
   1.90985346   1.92699572   1.93896988   1.94482194   1.96378638
   1.98060824   1.99400301   1.99883456   2.01797466   2.03829598
   2.05754251   2.05991866   2.09604183   2.56668201   2.57585433
   2.59111341   2.59297608   2.60293861   2.60497563   2.60690273
   2.60981165   2.64609582   2.65549162   2.66817579   2.68299716
   2.68469537   2.69853895   2.69990298   2.70170341   2.81637996
   2.82449884   2.84031715   2.84409496   2.88535667   2.89842236
   2.91264713   2.92361175   2.97517685   2.99332954   2.99547119
   2.99906305   3.0027998    3.0158531    3.02221819   3.03145466
   3.04477317   3.04912878   3.05414093   3.05701248   3.06346933
   3.07525758   3.09368387   3.12188681   3.39576262   3.40193808
   3.40442882   3.41271663   3.42987885   3.46012784   3.48545843
   3.4954923    3.78037597   3.78381619   3.79272537   3.79951249
   3.82894851   3.84418015   3.8778954    3.88791853   3.94610884
   3.96904684   4.01280188   4.01744907   4.04450125   4.06958497
   4.09786074   4.1151339 ]
E1 = -1745.8926294821972  E_coul = 684.8089414674241
cycle= 4 E= -608.324076032955  delta_E= -0.00171  |g|= 0.0141  |ddm|= 0.0556
    CPU time for cycle= 4      1.34 sec, wall time      0.17 sec
diis-norm(errvec)=0.0290116
diis-c [-2.59702237e-04 -8.73214097e-03 -3.76206846e-02 -1.50331196e-01
  1.19668402e+00]
  HOMO = -0.404911079160419  LUMO = 0.189851110648108
  mo_energy =
[-20.55635041 -20.55001217 -20.54864714 -20.54435656 -20.53461361
 -20.50613291 -20.49010101 -20.46590616  -1.34425446  -1.33620167
  -1.33005843  -1.32801605  -1.31921718  -1.2924793   -1.27262255
  -1.24855657  -0.71382173  -0.70934184  -0.69261177  -0.69238115
  -0.67433575  -0.65734848  -0.6395275   -0.61487502  -0.58756457
  -0.57363411  -0.56720324  -0.56168225  -0.54976554  -0.53282298
  -0.50406668  -0.50035416  -0.49387879  -0.48367962  -0.48041267
  -0.47487484  -0.46727031  -0.45367587  -0.43029856  -0.40491108
   0.18985111   0.22862658   0.26897666   0.28274874   0.30286324
   0.31822932   0.33196766   0.3414589    0.36475785   0.37224002
   0.39687199   0.41863715   0.435304     0.44747131   0.47757937
   0.48470939   0.97778811   1.00777901   1.01176477   1.02339709
   1.03940306   1.05525108   1.07330062   1.08744102   1.09224767
   1.09720828   1.1097749    1.12099813   1.12357357   1.13169855
   1.13888216   1.14837365   1.16599734   1.17623458   1.18777978
   1.2094332    1.21392145   1.22980906   1.2517439    1.26603417
   1.27898572   1.280423     1.28880345   1.31503974   1.32416818
   1.34244519   1.3560782    1.37297536   1.3773733    1.40342338
   1.42232012   1.43700924   1.44577125   1.47113762   1.47569698
   1.50673137   1.60694602   1.64098185   1.68159423   1.69395702
   1.71095052   1.73846442   1.77373111   1.80243817   1.8129057
   1.81770989   1.83188595   1.83800024   1.84411865   1.8567098
   1.86746584   1.87117753   1.885963     1.89814229   1.90285879
   1.90928243   1.92714006   1.93845795   1.94436967   1.96361618
   1.98003715   1.99334731   1.99879      2.01816042   2.03777168
   2.05752601   2.06004325   2.09630682   2.56710502   2.5761426
   2.59147691   2.59329458   2.6032932    2.60515246   2.60667751
   2.60985075   2.6461288    2.65529656   2.66798426   2.68289894
   2.68461239   2.69856492   2.69962011   2.70181524   2.81654983
   2.82481233   2.84050916   2.84409609   2.88500225   2.89872101
   2.91329094   2.92336519   2.97584068   2.99356476   2.99566572
   2.9994062    3.00305372   3.01585157   3.02252048   3.03161644
   3.04468953   3.04920124   3.05458135   3.05694841   3.06320144
   3.07505242   3.09378184   3.12238686   3.39643283   3.40226778
   3.40446305   3.41311762   3.43072224   3.46005841   3.48549984
   3.49543511   3.7807726    3.7838246    3.79292598   3.79951956
   3.82912149   3.84381299   3.8775837    3.88857181   3.94646244
   3.96916019   4.01297147   4.01770895   4.04419027   4.06952794
   4.09811072   4.1162278 ]
E1 = -1745.9134763023305  E_coul = 684.8297024396194
cycle= 5 E= -608.324161880893  delta_E= -8.58e-05  |g|= 0.00325  |ddm|= 0.0178
    CPU time for cycle= 5      1.34 sec, wall time      0.17 sec
diis-norm(errvec)=0.00591111
diis-c [-2.65029699e-05  5.45398632e-04 -5.59919725e-04 -2.54710503e-02
  1.08134697e-02  1.01467210e+00]
  HOMO = -0.404868451654996  LUMO = 0.189829971865458
  mo_energy =
[-20.55670519 -20.54974709 -20.54686858 -20.54427975 -20.53716894
 -20.50786942 -20.48874809 -20.4650877   -1.34442791  -1.33631875
  -1.32958513  -1.32808413  -1.31985533  -1.29312256  -1.27228344
  -1.24837007  -0.7140097   -0.70945502  -0.69229565  -0.69209396
  -0.67450182  -0.65773199  -0.63920063  -0.61459253  -0.58782955
  -0.57392685  -0.56733086  -0.56129021  -0.55026791  -0.53339541
  -0.50404817  -0.50026164  -0.49404183  -0.48365549  -0.48051411
  -0.47476744  -0.46812617  -0.45442661  -0.43009268  -0.40486845
   0.18982997   0.22855484   0.26895846   0.28273709   0.30286457
   0.31822911   0.33198733   0.3414405    0.36474329   0.37221364
   0.39673709   0.41858346   0.43515151   0.44744506   0.47738048
   0.48450439   0.97762108   1.00770368   1.01167302   1.02333381
   1.03943908   1.05505394   1.07312863   1.08733271   1.09198912
   1.09708068   1.10972557   1.12089913   1.12364324   1.13150511
   1.13870798   1.14829634   1.16591884   1.17615279   1.18773575
   1.20945549   1.21364011   1.22967004   1.25150911   1.26609204
   1.27893698   1.28038113   1.28877043   1.31492067   1.32402656
   1.34234729   1.35593108   1.37304493   1.37737289   1.4031595
   1.42213643   1.43697425   1.44575454   1.47092911   1.47557154
   1.50657218   1.60681496   1.64119559   1.68134388   1.69392521
   1.71090851   1.73824901   1.77353152   1.8022844    1.81283254
   1.81764599   1.83178365   1.83782549   1.84381314   1.85674318
   1.86718105   1.8712791    1.88586336   1.89815931   1.90271105
   1.90935398   1.92700582   1.93877681   1.94426437   1.96320003
   1.98012942   1.9934474    1.99863763   2.01773517   2.03782897
   2.05735315   2.05978241   2.09587723   2.56691498   2.57602139
   2.59146649   2.59317415   2.60327148   2.60511315   2.60689584
   2.60975827   2.64584536   2.6552506    2.66790678   2.68265886
   2.68444513   2.69845717   2.6995867    2.70156056   2.81635369
   2.8246063    2.84047225   2.84433066   2.88507818   2.89847084
   2.91289655   2.92342009   2.97579669   2.99348632   2.99563888
   2.99950761   3.00318202   3.01572852   3.02240308   3.03152346
   3.04442573   3.04909259   3.05433572   3.05671897   3.06317927
   3.07513344   3.09369663   3.12208894   3.39633758   3.40244135
   3.40433306   3.4130922    3.4303486    3.4600622    3.48550572
   3.49515401   3.78072705   3.7838356    3.79302511   3.79947277
   3.82876915   3.84391533   3.8776668    3.8882313    3.94640692
   3.96941418   4.01283273   4.01755033   4.04430999   4.06957612
   4.09771205   4.11567864]
E1 = -1745.9103524190105  E_coul = 684.8265750229416
cycle= 6 E= -608.324165414251  delta_E= -3.53e-06  |g|= 0.00145  |ddm|= 0.0038
    CPU time for cycle= 6      1.34 sec, wall time      0.18 sec
diis-norm(errvec)=0.00261512
diis-c [-1.58552749e-06  1.26969986e-03  4.88076645e-03  1.02763682e-02
 -1.39397585e-01  2.49585479e-01  8.73385272e-01]
  HOMO = -0.405044586194293  LUMO = 0.189827481262727
  mo_energy =
[-20.55648025 -20.54975891 -20.54743297 -20.54423664 -20.53613318
 -20.50720645 -20.48918571 -20.4653208   -1.34436029  -1.33628386
  -1.32976209  -1.32807744  -1.31964104  -1.29293337  -1.2724531
  -1.24849154  -0.71389252  -0.70934005  -0.6922979   -0.69213353
  -0.67437401  -0.6575545   -0.63927663  -0.61465715  -0.5877713
  -0.57387701  -0.56734174  -0.56147836  -0.55014522  -0.53325322
  -0.50414565  -0.50038689  -0.49408832  -0.48378449  -0.48058269
  -0.47490916  -0.46796178  -0.45427953  -0.43031709  -0.40504459
   0.18982748   0.22855693   0.26894173   0.2827181    0.30284511
   0.31822147   0.33198359   0.34144774   0.36474512   0.37223384
   0.39676095   0.41857176   0.43517107   0.44739262   0.47743979
   0.48455257   0.97762482   1.00766612   1.0116691    1.02328393
   1.03938198   1.05507942   1.07312359   1.08730278   1.09201618
   1.09706561   1.10967313   1.12088865   1.12358445   1.13151741
   1.13870943   1.14826671   1.16587401   1.17611412   1.18768646
   1.20936365   1.21365278   1.22961803   1.25154038   1.26604047
   1.2789288    1.28032186   1.28875166   1.31492514   1.32403624
   1.34231004   1.35595782   1.37298723   1.37731909   1.40319208
   1.42216527   1.43693101   1.44574497   1.4709748    1.47558634
   1.50661191   1.60684237   1.64110169   1.68139701   1.69391562
   1.71089035   1.73828645   1.77354835   1.80229125   1.81282495
   1.81763595   1.83176901   1.83785062   1.84386573   1.85667757
   1.86722446   1.8711749    1.88584367   1.89808515   1.90271848
   1.90925577   1.92703887   1.93863559   1.94425282   1.96328825
   1.98002611   1.9933474    1.9986463    2.01784311   2.03773763
   2.05737336   2.05983591   2.095986     2.56693956   2.57602782
   2.59144372   2.59319367   2.60325343   2.60509406   2.60677701
   2.60974769   2.64588417   2.6552032    2.66786663   2.68267634
   2.68443812   2.69843133   2.69951945   2.70158434   2.816375
   2.8246407    2.8404523    2.84421845   2.88497978   2.89852075
   2.91298294   2.92332655   2.97581729   2.99347366   2.99561777
   2.99945077   3.00312329   3.01572829   3.0224133    3.03151143
   3.04444571   3.04907536   3.0543683    3.0567544    3.0631095
   3.07506692   3.0936204    3.12214297   3.39636145   3.40235747
   3.40432348   3.41307244   3.43043096   3.4599934    3.48542778
   3.49518706   3.78073864   3.78380926   3.79298136   3.79946125
   3.82884385   3.84383551   3.87758956   3.88831394   3.94639922
   3.96929825   4.01283623   4.01756451   4.04419715   4.06947613
   4.09779739   4.11582988]
E1 = -1745.907579447216  E_coul = 684.8238014568366
cycle= 7 E= -608.324166008562  delta_E= -5.94e-07  |g|= 0.000228  |ddm|= 0.00141
    CPU time for cycle= 7      1.36 sec, wall time      0.18 sec
diis-norm(errvec)=0.000428206
diis-c [-4.94654213e-08 -2.05211621e-04 -5.63388938e-04 -1.07492169e-03
  2.02102455e-02 -9.19036736e-02 -1.44094102e-01  1.21763105e+00]
  HOMO = -0.405057028944425  LUMO = 0.189836917439682
  mo_energy =
[-20.55644353 -20.54971268 -20.54736462 -20.54420884 -20.53620112
 -20.5071895  -20.48914087 -20.46530057  -1.34434889  -1.33627577
  -1.32973926  -1.32807129  -1.31965459  -1.29294117  -1.2724466
  -1.24848847  -0.71388137  -0.70932099  -0.69226926  -0.6921013
  -0.67436219  -0.65754803  -0.63926121  -0.61463963  -0.58776984
  -0.57388354  -0.56734262  -0.56146061  -0.55015665  -0.53326689
  -0.50414608  -0.50038369  -0.49409163  -0.48378751  -0.4805867
  -0.47491249  -0.46799845  -0.45429987  -0.43032121  -0.40505703
   0.18983692   0.2285598    0.26894859   0.28272001   0.3028452
   0.31822688   0.33199491   0.34145303   0.36475467   0.37224412
   0.39676415   0.41858107   0.43517528   0.44740797   0.47744449
   0.48455691   0.97762909   1.00767328   1.01167888   1.02329335
   1.03939426   1.05508309   1.07312205   1.08730745   1.09201718
   1.09707124   1.10967458   1.12089742   1.12359931   1.1315205
   1.1387107    1.14826918   1.16588064   1.17611892   1.18768939
   1.20936838   1.21364924   1.22961641   1.25154153   1.26605394
   1.27893841   1.28032646   1.28876317   1.31493229   1.32404395
   1.34231412   1.3559657    1.37299522   1.37732631   1.40318877
   1.42217225   1.43694062   1.44575801   1.47098147   1.47559062
   1.50661843   1.60684664   1.64111778   1.6813982    1.69392547
   1.71089582   1.73828988   1.77354906   1.80229478   1.81283604
   1.81764616   1.83176982   1.8378576    1.84386241   1.85668642
   1.86722105   1.87117675   1.88584895   1.89808859   1.90272142
   1.90926007   1.92704925   1.93865547   1.94425426   1.96328226
   1.98003187   1.993352     1.99865129   2.01783691   2.03774399
   2.05737856   2.05983833   2.09597988   2.56694848   2.57603645
   2.5914568    2.59320655   2.60326892   2.60510763   2.60679581
   2.60975517   2.6458825    2.65520339   2.66786911   2.68267547
   2.68443878   2.69843537   2.6995241    2.70158315   2.81638024
   2.82464992   2.84046709   2.84424041   2.8849863    2.89852662
   2.91298204   2.92333444   2.97583407   2.99348204   2.99562786
   2.9994704    3.00313756   3.01572924   3.02242169   3.03152066
   3.04444071   3.04907462   3.05436971   3.05675256   3.06311114
   3.07506301   3.09363757   3.12214641   3.39637678   3.40237837
   3.40432664   3.4130883    3.43043303   3.45999747   3.4854372
   3.49518302   3.78075684   3.7838231    3.79300242   3.79947181
   3.82884389   3.8438396    3.87759461   3.88831873   3.9464156
   3.96932169   4.01284407   4.01757426   4.04420623   4.0694898
   4.0977965    4.11582638]
E1 = -1745.9069697501186  E_coul = 684.8231917346152
cycle= 8 E= -608.324166033686  delta_E= -2.51e-08  |g|= 4.17e-05  |ddm|= 0.000361
    CPU time for cycle= 8      1.38 sec, wall time      0.18 sec
diis-norm(errvec)=7.58451e-05
diis-c [-3.63676018e-09 -5.79698319e-05 -2.01186665e-04 -4.62460142e-04
  6.20295713e-03 -1.52547148e-02 -4.09309470e-02  9.46679531e-02
  9.56036368e-01]
  HOMO = -0.40505053127356  LUMO = 0.189836319473837
  mo_energy =
[-20.5564524  -20.54971671 -20.54736082 -20.54420623 -20.53617111
 -20.50721137 -20.48913463 -20.46527858  -1.34435143  -1.33627462
  -1.32973829  -1.32806989  -1.31964847  -1.29294827  -1.27244427
  -1.24848148  -0.71387774  -0.70932057  -0.69226751  -0.69209971
  -0.67435734  -0.65755136  -0.63925782  -0.61463364  -0.58777048
  -0.57388228  -0.56734234  -0.56146003  -0.55015622  -0.53326688
  -0.50414568  -0.50038372  -0.49409472  -0.48378745  -0.48058627
  -0.47490776  -0.4679934   -0.45430825  -0.43031977  -0.40505053
   0.18983632   0.2285604    0.2689481    0.28272043   0.30284633
   0.31822783   0.33199477   0.34145384   0.36475569   0.37224486
   0.39676401   0.41858149   0.43517566   0.44740774   0.47744434
   0.48455839   0.9776288    1.00767341   1.01167811   1.02329351
   1.03939419   1.05508139   1.07312271   1.08730893   1.0920157
   1.09707155   1.10967537   1.12089624   1.12359872   1.13151956
   1.13871127   1.14827013   1.16588091   1.17611833   1.18769185
   1.20936978   1.21364626   1.22961505   1.25154167   1.26605533
   1.27893904   1.2803279    1.2887635    1.31493303   1.32404395
   1.34231594   1.35596756   1.37299872   1.37732802   1.40319101
   1.42217092   1.43694156   1.44576028   1.47098178   1.47559224
   1.50661887   1.6068475    1.64111885   1.6813981    1.69392483
   1.71089745   1.73828918   1.77354839   1.80229701   1.81283585
   1.81764599   1.83177049   1.83785666   1.84386214   1.85668674
   1.86722022   1.87117798   1.88585092   1.89809111   1.90272326
   1.90926239   1.92704704   1.93865561   1.94425514   1.96327798
   1.98003507   1.99335319   1.99865167   2.01783811   2.03774701
   2.05737931   2.05983888   2.09598193   2.56694901   2.57603735
   2.59145752   2.59320469   2.6032694    2.60510817   2.60679614
   2.60975581   2.64588266   2.65520408   2.66787031   2.6826744
   2.68443944   2.69843605   2.69952698   2.70158571   2.81638142
   2.82464838   2.84046742   2.84424111   2.88498808   2.89852452
   2.91298541   2.92333809   2.97583287   2.99348273   2.99562895
   2.99946998   3.00313806   3.01573024   3.02242147   3.03152085
   3.04443927   3.04907608   3.05437178   3.05675053   3.06311122
   3.07506798   3.09363674   3.12214744   3.39637572   3.40237875
   3.40432801   3.41308917   3.43043625   3.4599986    3.48543925
   3.49518104   3.7807561    3.78382339   3.79300225   3.79947266
   3.82884294   3.84384228   3.87759818   3.88832108   3.9464154
   3.96932262   4.0128438    4.01757401   4.04420731   4.06949321
   4.09779327   4.11583094]
E1 = -1745.9069194120493  E_coul = 684.8231413959127
cycle= 9 E= -608.324166034319  delta_E= -6.33e-10  |g|= 1.62e-05  |ddm|= 5.24e-05
    CPU time for cycle= 9      1.38 sec, wall time      0.18 sec
  HOMO = -0.405053085290219  LUMO = 0.189836200521372
  mo_energy =
[-20.55644747 -20.54971327 -20.54736318 -20.54420615 -20.53618378
 -20.50719878 -20.48913748 -20.46528892  -1.34435019  -1.33627417
  -1.32973857  -1.32806961  -1.31965109  -1.29294444  -1.27244491
  -1.24848427  -0.7138786   -0.70932007  -0.69226697  -0.69209918
  -0.67435836  -0.65754852  -0.63925843  -0.61463564  -0.58776967
  -0.57388237  -0.56734198  -0.56146067  -0.55015584  -0.53326656
  -0.50414558  -0.50038353  -0.49409325  -0.48378783  -0.4805853
  -0.47491006  -0.46799639  -0.45430399  -0.43032018  -0.40505309
   0.1898362    0.22856043   0.268948     0.28272035   0.30284615
   0.31822745   0.3319948    0.34145375   0.36475575   0.37224482
   0.39676436   0.41858111   0.43517528   0.4474072    0.47744463
   0.48455806   0.97762929   1.00767335   1.01167835   1.02329309
   1.03939391   1.05508215   1.07312259   1.08730803   1.09201642
   1.09707124   1.10967533   1.1208964    1.12359836   1.13152013
   1.13871111   1.14826986   1.16588068   1.17611837   1.18769084
   1.20936896   1.21364753   1.22961561   1.25154193   1.26605492
   1.27893904   1.28032747   1.28876419   1.31493318   1.32404425
   1.34231498   1.35596712   1.37299768   1.37732742   1.40319007
   1.42217159   1.43694103   1.44575931   1.47098191   1.47559163
   1.50661892   1.60684747   1.6411184    1.68139851   1.69392511
   1.71089711   1.73828981   1.77354881   1.80229608   1.81283637
   1.81764653   1.83177062   1.83785701   1.84386241   1.85668651
   1.86722079   1.87117751   1.88584997   1.89809007   1.90272295
   1.90926134   1.927048     1.93865537   1.94425525   1.96328027
   1.98003365   1.99335274   1.99865196   2.01783762   2.0377456
   2.05737916   2.05983882   2.09598097   2.5669487    2.57603699
   2.5914572    2.59320544   2.60326956   2.60510862   2.60679593
   2.60975597   2.64588281   2.65520399   2.66786986   2.68267502
   2.68443921   2.69843588   2.69952572   2.70158461   2.81638125
   2.82464939   2.84046807   2.84424067   2.88498736   2.89852556
   2.91298399   2.92333657   2.97583317   2.9934829    2.99562952
   2.99946993   3.00313772   3.01573024   3.02242179   3.031521
   3.04444001   3.04907568   3.05437083   3.05675156   3.0631109
   3.07506707   3.09363581   3.12214698   3.39637606   3.40237843
   3.40432786   3.41308975   3.43043493   3.45999817   3.48543835
   3.49518214   3.78075633   3.78382359   3.79300231   3.79947285
   3.82884352   3.84384152   3.87759698   3.88832013   3.94641638
   3.96932213   4.01284422   4.01757441   4.04420674   4.0694913
   4.09779507   4.11582887]
E1 = -1745.906947701731  E_coul = 684.8231696855037
Extra cycle  E= -608.32416603441  delta_E= -9.07e-11  |g|= 8.95e-06  |ddm|= 2.13e-05
    CPU time for scf_cycle     22.47 sec, wall time      2.86 sec
    CPU time for SCF     22.48 sec, wall time      2.87 sec
converged SCF energy = -608.32416603441
