Atom number=6                                                           
SP        RHF                                                         6-31G(d,p)          
Number of atoms                            I                6
Info1-9                                    I   N=           9
         107         106           0           0           0         111
           1           1           2
Full Title                                 C   N=           2
Atom number=6           
Route                                      C   N=           4
#p hf/6-31g** 5d 7f pop=npa charge nosymm       
Charge                                     I                0
Multiplicity                               I                1
Number of electrons                        I               20
Number of alpha electrons                  I               10
Number of beta electrons                   I               10
Number of basis functions                  I               48
Number of independent functions            I               48
Number of point charges in /Mol/           I                0
Number of translation vectors              I                0
Atomic numbers                             I   N=           6
           8           8           1           1           1           1
Nuclear charges                            R   N=           6
  8.00000000E+00  8.00000000E+00  1.00000000E+00  1.00000000E+00  1.00000000E+00
  1.00000000E+00
Current cartesian coordinates              R   N=          18
  2.54311103E+01 -2.22482823E+01 -1.84702379E+01  2.16779838E+01 -2.90173418E+01
 -1.42069912E+01  2.62839852E+01 -2.07798196E+01 -1.90932542E+01  2.67410892E+01
 -2.34772676E+01 -1.82569899E+01  2.05307462E+01 -2.90181619E+01 -1.56054812E+01
  2.25019856E+01 -2.74096119E+01 -1.42973126E+01
Number of symbols in /Mol/                 I                0
Force Field                                I                0
Atom Types                                 C   N=           6
                                                            
            
Int Atom Types                             I   N=           6
           0           0           0           0           0           0
MM charges                                 R   N=           6
  0.00000000E+00  0.00000000E+00  0.00000000E+00  0.00000000E+00  0.00000000E+00
  0.00000000E+00
Integer atomic weights                     I   N=           6
          16          16           1           1           1           1
Real atomic weights                        R   N=           6
  1.59949146E+01  1.59949146E+01  1.00782504E+00  1.00782504E+00  1.00782504E+00
  1.00782504E+00
Atom fragment info                         I   N=           6
           0           0           0           0           0           0
Atom residue num                           I   N=           6
           0           0           0           0           0           0
Nuclear spins                              I   N=           6
           0           0           1           1           1           1
Nuclear ZEff                               R   N=           6
 -5.60000000E+00 -5.60000000E+00 -1.00000000E+00 -1.00000000E+00 -1.00000000E+00
 -1.00000000E+00
Nuclear ZNuc                               R   N=           6
  8.00000000E+00  8.00000000E+00  1.00000000E+00  1.00000000E+00  1.00000000E+00
  1.00000000E+00
Nuclear QMom                               R   N=           6
  0.00000000E+00  0.00000000E+00  0.00000000E+00  0.00000000E+00  0.00000000E+00
  0.00000000E+00
Nuclear GFac                               R   N=           6
  0.00000000E+00  0.00000000E+00  2.79284600E+00  2.79284600E+00  2.79284600E+00
  2.79284600E+00
MicOpt                                     I   N=           6
          -1          -1          -1          -1          -1          -1
Number of residues                         I                0
Number of secondary structures             I                0
Number of contracted shells                I               20
Number of primitive shells                 I               42
Pure/Cartesian d shells                    I                0
Pure/Cartesian f shells                    I                0
Highest angular momentum                   I                2
Largest degree of contraction              I                6
Shell types                                I   N=          20
           0          -1          -1          -2           0          -1
          -1          -2           0           0           1           0
           0           1           0           0           1           0
           0           1
Number of primitives per shell             I   N=          20
           6           3           1           1           6           3
           1           1           3           1           1           3
           1           1           3           1           1           3
           1           1
Shell to atom map                          I   N=          20
           1           1           1           1           2           2
           2           2           3           3           3           4
           4           4           5           5           5           6
           6           6
Primitive exponents                        R   N=          42
  5.48467166E+03  8.25234946E+02  1.88046958E+02  5.29645000E+01  1.68975704E+01
  5.79963534E+00  1.55396162E+01  3.59993359E+00  1.01376175E+00  2.70005823E-01
  8.00000000E-01  5.48467166E+03  8.25234946E+02  1.88046958E+02  5.29645000E+01
  1.68975704E+01  5.79963534E+00  1.55396162E+01  3.59993359E+00  1.01376175E+00
  2.70005823E-01  8.00000000E-01  1.87311370E+01  2.82539436E+00  6.40121692E-01
  1.61277759E-01  1.10000000E+00  1.87311370E+01  2.82539436E+00  6.40121692E-01
  1.61277759E-01  1.10000000E+00  1.87311370E+01  2.82539436E+00  6.40121692E-01
  1.61277759E-01  1.10000000E+00  1.87311370E+01  2.82539436E+00  6.40121692E-01
  1.61277759E-01  1.10000000E+00
Contraction coefficients                   R   N=          42
  1.83107443E-03  1.39501722E-02  6.84450781E-02  2.32714336E-01  4.70192898E-01
  3.58520853E-01 -1.10777550E-01 -1.48026263E-01  1.13076702E+00  1.00000000E+00
  1.00000000E+00  1.83107443E-03  1.39501722E-02  6.84450781E-02  2.32714336E-01
  4.70192898E-01  3.58520853E-01 -1.10777550E-01 -1.48026263E-01  1.13076702E+00
  1.00000000E+00  1.00000000E+00  3.34946043E-02  2.34726953E-01  8.13757326E-01
  1.00000000E+00  1.00000000E+00  3.34946043E-02  2.34726953E-01  8.13757326E-01
  1.00000000E+00  1.00000000E+00  3.34946043E-02  2.34726953E-01  8.13757326E-01
  1.00000000E+00  1.00000000E+00  3.34946043E-02  2.34726953E-01  8.13757326E-01
  1.00000000E+00  1.00000000E+00
P(S=P) Contraction coefficients            R   N=          42
  0.00000000E+00  0.00000000E+00  0.00000000E+00  0.00000000E+00  0.00000000E+00
  0.00000000E+00  7.08742682E-02  3.39752839E-01  7.27158577E-01  1.00000000E+00
  0.00000000E+00  0.00000000E+00  0.00000000E+00  0.00000000E+00  0.00000000E+00
  0.00000000E+00  0.00000000E+00  7.08742682E-02  3.39752839E-01  7.27158577E-01
  1.00000000E+00  0.00000000E+00  0.00000000E+00  0.00000000E+00  0.00000000E+00
  0.00000000E+00  0.00000000E+00  0.00000000E+00  0.00000000E+00  0.00000000E+00
  0.00000000E+00  0.00000000E+00  0.00000000E+00  0.00000000E+00  0.00000000E+00
  0.00000000E+00  0.00000000E+00  0.00000000E+00  0.00000000E+00  0.00000000E+00
  0.00000000E+00  0.00000000E+00
Coordinates of each shell                  R   N=          60
  2.54311103E+01 -2.22482823E+01 -1.84702379E+01  2.54311103E+01 -2.22482823E+01
 -1.84702379E+01  2.54311103E+01 -2.22482823E+01 -1.84702379E+01  2.54311103E+01
 -2.22482823E+01 -1.84702379E+01  2.16779838E+01 -2.90173418E+01 -1.42069912E+01
  2.16779838E+01 -2.90173418E+01 -1.42069912E+01  2.16779838E+01 -2.90173418E+01
 -1.42069912E+01  2.16779838E+01 -2.90173418E+01 -1.42069912E+01  2.62839852E+01
 -2.07798196E+01 -1.90932542E+01  2.62839852E+01 -2.07798196E+01 -1.90932542E+01
  2.62839852E+01 -2.07798196E+01 -1.90932542E+01  2.67410892E+01 -2.34772676E+01
 -1.82569899E+01  2.67410892E+01 -2.34772676E+01 -1.82569899E+01  2.67410892E+01
 -2.34772676E+01 -1.82569899E+01  2.05307462E+01 -2.90181619E+01 -1.56054812E+01
  2.05307462E+01 -2.90181619E+01 -1.56054812E+01  2.05307462E+01 -2.90181619E+01
 -1.56054812E+01  2.25019856E+01 -2.74096119E+01 -1.42973126E+01  2.25019856E+01
 -2.74096119E+01 -1.42973126E+01  2.25019856E+01 -2.74096119E+01 -1.42973126E+01
Num ILSW                                   I              100
ILSW                                       I   N=         100
           0           0           0           0           2           0
           0           0           0           0           0          -1
           5           0           0           0           0           0
           0           0           0           0           0           0
           1           1           0           0           0           0
           0           0      100000           0          -1           0
           0           0           0           0           0           0
           0           0           0           1           0           0
           0 -2000000000           1           0           0           0
           0           0           4          52           0           0
           0           1           0           0           0           0
           0           0           0           6           0           1
           0           0           0           0           0           0
           0           0           0           0           0           0
           0           0           0           0           0           0
           0           0           0           0           0           0
           0           0           0           0
Num RLSW                                   I               52
RLSW                                       R   N=          52
  1.00000000E+00  1.00000000E+00  1.00000000E+00  1.00000000E+00  1.00000000E+00
  0.00000000E+00  0.00000000E+00  1.00000000E+00  0.00000000E+00  0.00000000E+00
  0.00000000E+00  0.00000000E+00  1.00000000E+00  0.00000000E+00  0.00000000E+00
  0.00000000E+00  0.00000000E+00  1.00000000E+00  0.00000000E+00  0.00000000E+00
  0.00000000E+00  0.00000000E+00  1.00000000E+00  0.00000000E+00  0.00000000E+00
  0.00000000E+00  0.00000000E+00  1.00000000E+00  0.00000000E+00  0.00000000E+00
  0.00000000E+00  0.00000000E+00  1.00000000E+00  0.00000000E+00  0.00000000E+00
  0.00000000E+00  0.00000000E+00  0.00000000E+00  1.00000000E+00  1.00000000E+00
  0.00000000E+00  1.00000000E+00  0.00000000E+00  0.00000000E+00  0.00000000E+00
  0.00000000E+00  0.00000000E+00  0.00000000E+00  0.00000000E+00  0.00000000E+00
  0.00000000E+00  0.00000000E+00
MxBond                                     I                2
NBond                                      I   N=           6
           2           2           1           1           1           1
IBond                                      I   N=          12
           3           4           5           6           1           0
           1           0           2           0           2           0
RBond                                      R   N=          12
  1.00000000E+00  1.00000000E+00  1.00000000E+00  1.00000000E+00  1.00000000E+00
  0.00000000E+00  1.00000000E+00  0.00000000E+00  1.00000000E+00  0.00000000E+00
  1.00000000E+00  0.00000000E+00
Virial Ratio                               R      2.098188665273696E+00
SCF Energy                                 R     -1.666981973548681E+02
Total Energy                               R     -1.666981973548681E+02
RMS Density                                R      2.204162616503025E-09
Job Status                                 I                1
Nuclear derivative order                   I                0
External E-field                           R   N=          35
  0.00000000E+00  0.00000000E+00  0.00000000E+00  0.00000000E+00  0.00000000E+00
  0.00000000E+00  0.00000000E+00  0.00000000E+00  0.00000000E+00  0.00000000E+00
  0.00000000E+00  0.00000000E+00  0.00000000E+00  0.00000000E+00  0.00000000E+00
  0.00000000E+00  0.00000000E+00  0.00000000E+00  0.00000000E+00  0.00000000E+00
  0.00000000E+00  0.00000000E+00  0.00000000E+00  0.00000000E+00  0.00000000E+00
  0.00000000E+00  0.00000000E+00  0.00000000E+00  0.00000000E+00  0.00000000E+00
  0.00000000E+00  0.00000000E+00  0.00000000E+00  0.00000000E+00  0.00000000E+00
IOpCl                                      I                0
IROHF                                      I                0
Alpha Orbital Energies                     R   N=          48
 -2.06439493E+01 -2.05628400E+01 -1.42551451E+00 -1.34630219E+00 -7.88494534E-01
 -7.06854413E-01 -6.68351653E-01 -5.83593449E-01 -5.77260479E-01 -5.05614438E-01
  1.47451581E-01  2.21786165E-01  2.41864180E-01  3.37042038E-01  9.18558998E-01
  9.99576638E-01  1.01414964E+00  1.07455118E+00  1.08675720E+00  1.10051475E+00
  1.15678360E+00  1.17977205E+00  1.20255062E+00  1.29888357E+00  1.51692188E+00
  1.59656490E+00  1.72138609E+00  1.74019031E+00  1.79854235E+00  1.82343651E+00
  1.83484201E+00  1.91726656E+00  2.49860023E+00  2.50719767E+00  2.57831355E+00
  2.58919690E+00  2.72345037E+00  2.80841589E+00  2.89789501E+00  2.91129255E+00
  2.97448570E+00  2.99179505E+00  3.29335971E+00  3.37824112E+00  3.66487443E+00
  3.75072088E+00  3.83872941E+00  3.93070813E+00
Alpha MO coefficients                      R   N=        2304
  9.95701475E-01  2.19889217E-02  1.93791726E-03  2.26772300E-04 -3.10592474E-04
 -5.94416193E-03 -9.20532146E-04 -1.07083717E-04  1.57810888E-04 -2.95895122E-04
 -3.74842232E-05 -2.41836410E-04 -1.55803235E-04 -8.16217349E-05 -2.22094771E-06
 -5.53785572E-06  4.32342272E-08 -1.74734395E-07 -7.84597703E-07  2.27318716E-05
  6.91949150E-06  1.24650320E-05  1.99249684E-06 -1.96458328E-06 -3.72547516E-07
 -4.75057441E-07 -1.89939964E-06  2.44617729E-06 -5.03681693E-04  1.25916514E-03
  5.95910148E-04  8.93983279E-04 -3.91143435E-04 -5.06971465E-04  1.26059809E-03
  8.72830472E-04 -7.33669523E-04  1.11836335E-04 -1.60268821E-07  4.10754951E-06
  2.36317696E-07 -5.60098066E-07  1.97025875E-07 -9.13171461E-07 -2.93340212E-05
  2.47170829E-06  5.32568191E-06  5.51836937E-09  2.56857957E-07 -1.11760716E-05
 -4.51843095E-06 -2.18736386E-06  3.74917530E-06  6.60837076E-05  4.02475440E-05
  8.11070555E-06 -1.47035722E-05 -5.93951311E-06 -3.09309567E-06 -4.39446624E-06
 -1.02229355E-06  3.77169420E-06  9.95706793E-01  2.19637241E-02 -3.65502103E-04
  1.50340395E-03 -1.41128780E-03 -5.91652111E-03  1.54616733E-04 -6.96217951E-04
  6.44925745E-04 -4.57410968E-05  3.19199773E-04  2.59714858E-07 -4.65287740E-05
  2.88258174E-04 -2.52460693E-05 -5.35630160E-06  2.14096538E-06  8.79290729E-06
 -2.27883573E-06  8.89107087E-06 -6.88470546E-05  5.15099112E-06 -1.16518105E-05
  4.19903208E-06 -5.29447274E-04  1.26253502E-03 -7.27458150E-04  5.99527320E-05
 -9.28099762E-04 -5.14572299E-04  1.25537550E-03  4.87576038E-04  1.03569822E-03
 -1.11180236E-04 -2.13039878E-01  4.71255574E-01  7.72988818E-02  8.89183765E-03
 -1.24634070E-02  4.46241638E-01  2.34775650E-02  2.93621252E-03  8.96700967E-05
 -3.15710306E-03 -1.76217799E-03 -2.45817066E-03  1.91618186E-03 -2.29475326E-04
 -2.85571646E-05  3.39772352E-04  2.45165293E-05  5.21796050E-05 -4.50296760E-06
 -9.90372334E-04 -3.89588096E-04 -6.19440535E-04 -7.57598171E-05  7.02724034E-05
  1.39343676E-05  1.54196870E-05  7.36162359E-05 -9.20075600E-05  1.43403685E-01
  8.94037146E-03 -1.02573069E-02 -2.24168860E-02  9.10981457E-03  1.43146904E-01
  8.28748199E-03 -1.73941264E-02  1.92210811E-02 -4.01310560E-03  4.93286931E-05
 -2.44081855E-04  4.37894786E-06  2.55079226E-05 -9.49615740E-06  8.36170974E-05
  1.60347488E-03 -1.02185056E-04 -2.00008615E-04  7.94182841E-06  8.52977138E-05
 -9.47219675E-05 -2.79191992E-05 -2.84501536E-05  1.66615772E-05 -5.85047148E-04
 -2.64594343E-04  6.52504980E-05  4.28869453E-05  2.87853545E-05  4.68367837E-06
  1.55587377E-05 -7.04345098E-07  1.30030575E-05 -2.12438188E-01  4.69212803E-01
 -1.39497949E-02  5.97201590E-02 -5.55353056E-02  4.45599507E-01 -7.63718795E-03
  2.47783656E-02 -2.14147721E-02  2.55121918E-04  2.11698029E-03 -2.43435518E-03
 -1.37668367E-03  7.95083939E-04  9.48276428E-06 -4.99937604E-05  4.80056523E-06
 -1.35606171E-05  1.82106220E-06 -6.65553006E-05  5.92164909E-04 -3.68283279E-05
  4.79213017E-05 -1.23077355E-05  1.45024937E-01  1.18009893E-02  1.72123224E-02
  2.22439046E-03  1.98185199E-02  1.40439812E-01  5.73855742E-03 -1.39222053E-02
 -2.30632628E-02 -9.89946145E-04 -6.20755065E-06  4.86233194E-04 -7.99077440E-02
  4.76663639E-01 -1.51467170E-01 -1.20398995E-03 -4.61790071E-02  2.75885282E-01
 -9.05646952E-02  1.90845950E-03 -8.01004278E-03 -4.82480781E-03 -8.06584669E-03
  2.80370690E-02 -2.33146347E-04 -1.32641313E-04 -1.04096151E-03 -1.14625464E-03
 -3.04368456E-04  3.42854520E-03  3.32364784E-04  9.01950851E-04  1.06078559E-04
 -1.10288697E-04  2.34241745E-05 -7.24566749E-06 -9.56231469E-05  1.57449837E-04
  2.35937610E-01  1.14326827E-01 -1.69074502E-02 -1.28842465E-02  6.91023945E-03
 -2.34507772E-01 -1.13841813E-01  2.06067521E-02 -8.50138929E-03 -2.53987797E-04
  6.15229008E-04  7.44502417E-04  2.08933752E-05 -8.01464455E-05  7.36948639E-05
 -8.59897586E-04 -4.86600156E-03  2.23779414E-04  4.65678885E-04 -2.29747959E-06
 -3.14854924E-04  7.44761641E-04 -3.86255046E-03  1.78548462E-03  8.07068423E-04
  1.12497394E-03 -3.24699028E-03  8.77285415E-04  1.00719475E-03  1.32348042E-04
  2.39913944E-05 -1.03084537E-05 -1.44512204E-04  1.01194801E-04 -3.09864473E-03
  5.95179399E-03  3.48135109E-01  2.85840575E-01  2.29531659E-01  2.05299112E-02
  1.99384638E-01  1.67011951E-01  1.28576742E-01 -1.71623776E-02 -1.81494820E-02
 -1.47111535E-03 -1.79894035E-02  1.32670403E-02  9.16828586E-05  2.07272350E-04
 -1.04125736E-04  2.48633449E-05  2.19351160E-05 -2.04058419E-03 -7.72636398E-05
  6.18691264E-05 -9.94901127E-05  4.33078847E-05 -2.40846687E-01 -1.29100474E-01
 -9.82266290E-03  7.35305937E-03 -1.79772500E-02  2.32873655E-01  1.04348495E-01
 -6.95251627E-03 -2.08055749E-02  6.55725805E-03  6.41909404E-02 -1.46900660E-01
  5.36620005E-01  5.03776305E-02 -1.23584772E-01 -2.80637700E-01  4.01601110E-01
  3.68785468E-02 -9.87530241E-02 -1.42685574E-02 -5.92788971E-03 -2.63394837E-03
  1.59905082E-02  3.64383847E-03 -4.97732186E-04 -4.46937488E-04  2.84326131E-03
  1.17250911E-03  2.69501356E-03  8.12502761E-03  4.11983042E-03  4.52047900E-03
  2.02030964E-03 -5.20013865E-04 -2.34069273E-04 -4.44592482E-05 -5.10011082E-04
  6.11845153E-04  1.42130314E-01  6.40158526E-02  5.53794816E-03 -1.43744874E-02
  3.45027920E-03  1.44547449E-01  6.39344076E-02  2.82808204E-04  1.48571245E-02
 -5.31421427E-03 -2.27403973E-03  1.46558432E-04 -1.08439731E-04 -1.05036368E-04
 -7.42114856E-05  1.27818257E-03 -9.92289594E-03  5.09630332E-04  8.76122907E-04
  2.97328720E-05  4.38217197E-03 -1.40966351E-02  1.14209176E-01  2.07626368E-01
  5.92798491E-01 -1.25767193E-02  8.47048603E-02  1.55469111E-01  4.68461284E-01
 -4.68753511E-03  1.99670978E-02  1.76334496E-03  2.93195653E-03  7.67757042E-03
  1.24561661E-03 -2.34807167E-03 -1.69059819E-03  6.07520993E-03 -6.46934671E-03
 -7.61636498E-03 -2.41278449E-03  2.62408384E-03 -4.97400486E-03  2.83509629E-04
  2.43620705E-04 -3.32035257E-04  2.30977646E-05 -2.87285541E-04  8.12925688E-03
  9.80763013E-03  2.88455559E-03  5.18839269E-03  1.90023736E-02  5.19385330E-04
  2.65285939E-03  3.60215190E-03  6.94828106E-03  1.81448144E-02  2.76656796E-03
  2.34840187E-04  1.38764343E-04  2.49506963E-04  3.75827715E-06  2.02916160E-03
  5.88981686E-03 -4.14632419E-04 -5.24218215E-04 -1.57570291E-04  3.22387221E-04
 -4.17874414E-04 -1.48465876E-04 -2.19580235E-03 -1.07310406E-02 -2.88021114E-03
 -1.28343804E-03 -1.96732123E-03 -8.03484810E-03  1.24513986E-04 -3.56370009E-04
 -1.09226556E-05 -8.09398945E-06 -4.68534653E-05  6.86199860E-02 -1.63556310E-01
 -7.00285832E-02  4.01795406E-01 -3.75245585E-01 -2.92370034E-01 -4.55392911E-02
  2.94075559E-01 -2.70211975E-01  4.21522982E-03  8.87007307E-03 -2.30364180E-02
 -1.24460297E-02 -2.42982076E-03  1.24205149E-03  6.17114343E-04 -8.07622802E-05
 -2.72810726E-04 -2.63758634E-04 -1.97267727E-04  2.48813520E-03 -1.00995506E-04
  6.88768858E-05 -3.67419333E-04  1.44635837E-01  8.74970545E-02  1.03040118E-02
  1.23820391E-02  4.29536504E-03  1.40470145E-01  6.48137441E-02 -1.23813042E-02
 -6.65575558E-03 -1.04589457E-02  6.37128920E-05  1.53507228E-04 -1.00763116E-04
  2.52954861E-04 -7.31014508E-05 -1.51206579E-03 -7.90610290E-04  7.79474566E-04
 -1.38447368E-04  7.28849243E-05 -1.29656004E-05  2.37994732E-05 -1.75591654E-05
  1.08091064E-04 -2.20699501E-03  7.50571656E-03  4.50814738E-01 -2.57547379E-01
 -3.64046297E-01  6.23823590E-03  3.59704210E-01 -2.04226775E-01 -2.91244726E-01
  1.86713543E-02 -9.45192218E-03 -4.11049879E-03  3.88059827E-03  1.61021278E-02
  2.09181460E-04 -3.38968982E-04  1.39419162E-05 -2.43601854E-05  5.48838580E-06
 -1.35545461E-04  2.37311762E-03 -1.35632439E-04  1.46321687E-04 -2.92044921E-05
 -3.62025813E-04 -5.02641007E-03  1.40916995E-02 -8.12460868E-03 -1.16636020E-02
 -1.00202017E-03 -4.13084931E-03  1.36488043E-02 -7.41711432E-03 -1.09050284E-02
 -8.88176128E-02  1.15912666E-01  1.86758817E-01  2.07949681E-02 -2.71431829E-02
  1.20513591E+00  4.85938123E-01  5.74339862E-02 -9.65543368E-02 -1.54488763E-02
 -4.37237088E-03 -8.15067816E-03  3.90733691E-03  6.39878537E-06 -1.05090755E-02
  6.90254769E-03  4.64180575E-03  2.50025446E-02 -1.32266907E-02  1.62913541E-01
  1.99564646E-02  7.16988312E-02 -2.40947303E-02 -2.03494545E-03  7.43361960E-04
 -1.68273215E-03 -3.08454085E-03  3.27789663E-03 -7.17536992E-02 -9.98310190E-01
  4.80637750E-03  1.17298735E-02 -4.05170550E-03 -6.57317607E-02 -9.97107721E-01
  7.86818026E-03 -9.31346463E-03  2.75613405E-03 -3.71198476E-03 -6.42455739E-02
 -5.97199086E-04 -4.49346468E-04 -6.79505472E-04 -5.18408672E-03 -1.97794622E-01
  3.08440306E-03  5.77160563E-03  2.57700514E-04 -9.96098987E-03  1.35168876E-02
  1.85369576E-02  9.68705612E-02 -3.77966360E-02  1.37584410E-01  1.15396667E-02
  2.26647411E-01 -7.68685672E-02 -1.02382882E-05 -2.80420530E-03 -2.21870790E-03
 -1.60939444E-03  8.45220120E-03  8.10388486E-02 -1.00663526E-01  7.92570947E-02
 -1.07135397E-01  1.60582895E-01 -1.12339893E+00  1.87132022E-01 -2.30857625E-01
  3.88082989E-01 -5.64276650E-03 -1.71248655E-02  9.76866158E-03  1.78630187E-03
 -2.35410128E-03 -1.49509668E-02 -5.26383323E-01  1.55557768E-03  2.58003717E-03
 -1.40398462E-03  2.88878426E-04  2.90236712E-01 -2.74500346E-03  4.33812197E-03
 -1.16615657E-03  5.70228740E-02  1.22193827E+00  1.02122629E-02  8.20021602E-04
  1.21465391E-02  4.77194155E-02  6.49401554E-01 -4.45397087E-03 -6.91324669E-03
 -1.06856359E-03  2.27690540E-03 -3.79061205E-03 -5.58290735E-02  2.93986656E-01
 -8.84082204E-02 -2.92104702E-02 -1.40179572E-01  7.59405256E-01 -2.33763973E-01
  2.03353689E-03 -6.77595879E-03 -4.74497410E-03 -7.34180181E-03  2.50057908E-02
 -2.40315831E-02  3.27968542E-02 -4.60335641E-02  1.47290592E-02 -5.94676017E-02
  3.24917328E-01 -1.12599108E-01  1.91298397E-02 -1.52446080E-01  4.16679519E-03
  6.89248227E-03 -2.64162478E-03  1.99682304E-03 -1.59748742E-03 -6.19258261E-02
 -1.30877672E+00  4.58292971E-03  1.19367736E-02 -4.72022163E-03  6.67152861E-02
  1.35891083E+00 -8.35590922E-03  1.00616770E-02 -2.02440810E-03 -2.27277468E-02
 -4.94668515E-01 -4.11017754E-03 -2.33696994E-04 -4.63330310E-03 -1.25622102E-02
 -5.01002360E-02 -3.67039388E-04 -1.14917996E-03 -1.17792744E-04 -6.67739607E-03
  9.49633507E-03  4.47865177E-02 -2.41979058E-02 -9.11865976E-03  9.43240879E-02
  4.23538826E-02 -1.08301348E-01  3.53095363E-02  1.25453784E-03 -2.62582077E-04
 -7.18759769E-05  1.20657693E-03 -5.88525567E-04  2.06681359E-02 -4.32990306E-02
 -2.15980814E-01 -2.17974502E-01 -1.17659561E-01 -2.44470238E-01 -5.38338438E-01
 -5.19375736E-01 -3.01462086E-01  1.34675098E-02  1.38799132E-02  3.29024949E-03
  1.51019362E-02 -1.02696726E-02  2.74183297E-02  6.41883572E-02 -8.98295306E-04
 -5.23337137E-03  9.09410485E-04 -3.89661994E-02 -2.34283554E-01 -1.07586011E-03
  2.53665566E-03 -1.34585717E-03 -4.98454420E-02 -1.12596905E+00 -7.69938907E-03
 -3.18454945E-03 -8.24520566E-03  7.71558879E-02  1.56520441E+00 -9.08981425E-03
 -9.77719756E-03 -3.30227697E-03 -3.77726835E-04  3.96386954E-03 -2.40220028E-02
  9.58190275E-02 -6.76781719E-03 -1.31286221E-03 -5.95709748E-02  3.97377710E-01
 -1.45451364E-01 -2.84272844E-02  6.92761595E-02  5.76159175E-02  6.86335229E-02
 -2.41999843E-01  5.84362130E-03 -4.87720829E-02 -2.92861385E-02 -5.66759779E-02
 -6.42283065E-03  4.68271770E-02 -9.70478748E-03  1.01740916E-02 -1.00252047E-02
 -2.06636390E-02 -7.59040434E-03 -1.68548401E-03 -1.97520458E-02  2.48988204E-02
 -7.65222606E-01  5.81122163E-01 -8.38977249E-02 -5.17155803E-02  3.11391773E-02
  7.68393367E-01 -5.85147374E-01  9.97818198E-02 -3.43688606E-02 -2.51740822E-03
 -4.31287908E-02  2.82830988E-02  8.60254385E-04 -8.34730826E-03  6.14027957E-03
  1.12976726E-01 -6.48556505E-02  1.44917641E-02  3.26843917E-02 -3.77050603E-03
 -1.14168582E-02  9.89967482E-02  3.85551845E-01  4.61823658E-02 -1.39088910E-01
 -3.10921042E-01 -3.51743837E-01 -1.54660603E-02  1.26183223E-01  9.30678258E-02
  2.07372023E-02  8.35623311E-02  5.84737126E-02 -3.39302688E-03  9.72092126E-05
  1.58870041E-03  7.71042594E-02  5.33772619E-02  6.72934690E-02  1.08912247E-02
  2.07329279E-01  1.72828338E-01  1.25532708E-01  1.16496460E-01  1.20723570E-01
  1.03059752E-02  1.09638578E-01 -8.75067653E-02 -3.71033528E-01  4.25461386E-01
 -3.35438145E-02 -1.18120587E-01  4.23926344E-02 -2.30037200E-01  2.55032370E-01
 -4.49280375E-02  9.48766213E-02 -2.69986643E-02  6.35306696E-01 -5.03080268E-01
 -4.50390767E-02  3.49949166E-02 -7.76537845E-02 -5.94612013E-01  4.59177476E-01
 -1.26994697E-02 -7.83276752E-02  3.72221532E-02  2.20632942E-02 -1.75034404E-01
 -4.56060207E-01 -3.62789173E-02  1.12186400E-01  4.37000217E-01  3.65834029E-01
  3.97273527E-02 -1.00306797E-01 -1.40737350E-01 -1.47500447E-02 -1.11288658E-01
 -7.25537964E-02 -4.97947311E-02  9.78543097E-03 -8.23639142E-02  3.83633938E-02
 -5.16815235E-02  7.48458226E-02  1.22145064E-01  1.78853371E-01  1.97900620E-01
  9.02876406E-02  7.49618308E-02  1.12298985E-01  7.28060676E-03  7.01490327E-02
 -3.26951433E-02  4.40651955E-01 -4.56827474E-01  2.26594786E-02  1.45969377E-01
 -5.12698079E-02  5.01782856E-01 -5.25003638E-01  7.94905817E-02 -1.38144297E-01
  3.55782333E-02  5.63352446E-01 -4.47043240E-01 -4.93924931E-02  1.61201648E-02
 -7.08589648E-02 -3.36582073E-01  2.49303093E-01  1.63433224E-02 -1.63271247E-02
  3.17432498E-02  5.27503197E-02 -3.70098998E-01  3.49633333E-01 -9.00105670E-02
 -5.90654320E-01  1.82372758E-01 -6.28500942E-01  6.05081737E-02  6.88961372E-01
 -7.53486906E-02  9.32960358E-04 -6.27696262E-02 -4.98907774E-02 -4.19380322E-02
 -1.47202141E-02  1.21995421E-01 -3.13234123E-03  1.54824706E-01 -1.28601727E-01
 -2.30330170E-01 -2.42859138E-02 -1.28593125E-01  7.81435224E-02  9.88135443E-03
 -7.06849480E-02 -7.61111664E-04  9.60545322E-03 -6.35982418E-02  3.99778058E-01
 -9.44261806E-02 -2.69620591E-02  1.89482848E-02 -1.05455915E-02  4.52919545E-01
 -2.21537654E-01  1.52520264E-03 -4.00771301E-02  5.12688060E-03 -2.56937137E-01
  2.33668188E-01  5.14109006E-02  2.08597137E-02  4.72819818E-02 -2.10001447E-01
  2.20373172E-01 -4.76393390E-02 -6.43646196E-02 -1.52465501E-02 -3.33052706E-02
  2.10648546E-01 -4.60627601E-01 -2.71819995E-01 -6.88270002E-01 -3.06179806E-02
  6.80085831E-01  2.99225550E-01  7.17390836E-01  3.67293675E-02  1.08607622E-02
  3.67252443E-02  3.31129154E-02  1.54614456E-02  8.63267408E-03 -6.77771522E-02
  1.43659371E-02 -8.59181960E-02  8.67835303E-02  1.34515795E-01 -1.91585693E-02
  5.03949428E-02 -6.89758352E-02 -9.80084726E-03  4.12502828E-02  4.18628672E-04
 -9.16427511E-03  4.29825395E-02 -2.48065416E-01  5.55481696E-02  1.47074129E-02
 -1.08240527E-02 -8.32827990E-03 -2.62026268E-01  3.31818741E-02  1.77031829E-02
  2.46563973E-03 -1.34993739E-02  1.30853551E-01 -1.34397210E-01 -3.33158536E-02
 -1.50294459E-02 -2.96920664E-02  1.67831653E-01 -1.53337402E-01  2.75094617E-02
  3.75027970E-02  8.66290306E-03  2.88043159E-02 -2.01536772E-01  3.61336790E-01
 -1.97254315E-03 -7.58859621E-02  2.02547910E-02 -5.29118400E-01 -4.67675906E-03
  1.05678165E-01 -1.25817287E-02 -7.96676969E-03 -2.16391154E-02 -2.50867890E-02
  1.83938142E-02  2.78807833E-02 -2.05361736E-01  7.43165764E-02 -2.94010049E-01
  3.58352007E-01  4.59735189E-01 -1.32304000E-01  1.32345458E-01 -3.22716355E-01
 -3.94352754E-02  1.50504633E-01  1.66169731E-03 -3.64861969E-02  1.62523650E-01
  1.99810904E-01 -7.05708517E-02 -6.16473004E-03 -1.32342397E-03  1.26227863E-03
  1.13254766E-01  1.15808301E-01 -3.35721842E-02  1.35307951E-02 -2.91309217E-05
  4.37278111E-01 -4.98471370E-01 -1.27053487E-01 -5.89348649E-02 -1.11598833E-01
  6.73432744E-01 -5.83793405E-01  9.51778390E-02  1.27739972E-01  3.18653515E-02
 -4.99182934E-04  6.93297303E-03 -8.31114456E-03 -1.98935942E-02  7.25952005E-03
 -2.38820396E-03  5.22279589E-03  3.95709505E-02 -1.33023537E-02 -1.83779664E-03
 -4.04695661E-04 -1.64298672E-03 -1.31076270E-03  3.49390410E-04 -4.62284799E-03
  4.17160539E-02 -6.87891778E-01  3.66525586E-01  5.65990397E-01 -4.85495387E-02
  7.45261639E-01 -3.78318213E-01 -6.16550154E-01  1.08891638E-02 -1.54353212E-02
 -3.52070518E-03  1.47834057E-03 -2.13753689E-03 -2.65823713E-03 -1.97700681E-02
  1.71391579E-03  5.41773729E-03 -2.05715884E-03  1.41638316E-02  5.58531191E-03
 -2.21937389E-03  1.84436852E-03 -2.58922311E-04 -3.88949976E-02  4.16531933E-02
 -4.85172237E-04  8.27787927E-03  1.25776466E-02 -4.71301384E-02  2.86541227E-02
 -1.40870242E-02  1.90332069E-03  5.20921649E-03 -3.97350170E-04  6.32371054E-03
 -3.63948187E-03 -2.74751393E-02  7.38245630E-03 -4.35281016E-03 -1.34882849E-03