 Entering Gaussian System, Link 0=g16
 Input=w32_34.gjf
 Output=w32_34.log
 Initial command:
 /home/soft/g16/l1.exe "/tmp/liwei01/gaussian/wsr/Gau-6727.inp" -scrdir="/tmp/liwei01/gaussian/wsr/"
 Entering Link 1 = /home/soft/g16/l1.exe PID=      6728.
  
 Copyright (c) 1988,1990,1992,1993,1995,1998,2003,2009,2016,
            Gaussian, Inc.  All Rights Reserved.
  
 This is part of the Gaussian(R) 16 program.  It is based on
 the Gaussian(R) 09 system (copyright 2009, Gaussian, Inc.),
 the Gaussian(R) 03 system (copyright 2003, Gaussian, Inc.),
 the Gaussian(R) 98 system (copyright 1998, Gaussian, Inc.),
 the Gaussian(R) 94 system (copyright 1995, Gaussian, Inc.),
 the Gaussian 92(TM) system (copyright 1992, Gaussian, Inc.),
 the Gaussian 90(TM) system (copyright 1990, Gaussian, Inc.),
 the Gaussian 88(TM) system (copyright 1988, Gaussian, Inc.),
 the Gaussian 86(TM) system (copyright 1986, Carnegie Mellon
 University), and the Gaussian 82(TM) system (copyright 1983,
 Carnegie Mellon University). Gaussian is a federally registered
 trademark of Gaussian, Inc.
  
 This software contains proprietary and confidential information,
 including trade secrets, belonging to Gaussian, Inc.
  
 This software is provided under written license and may be
 used, copied, transmitted, or stored only in accord with that
 written license.
  
 The following legend is applicable only to US Government
 contracts under FAR:
  
                    RESTRICTED RIGHTS LEGEND
  
 Use, reproduction and disclosure by the US Government is
 subject to restrictions as set forth in subparagraphs (a)
 and (c) of the Commercial Computer Software - Restricted
 Rights clause in FAR 52.227-19.
  
 Gaussian, Inc.
 340 Quinnipiac St., Bldg. 40, Wallingford CT 06492
  
  
 ---------------------------------------------------------------
 Warning -- This program may not be used in any manner that
 competes with the business of Gaussian, Inc. or will provide
 assistance to any competitor of Gaussian, Inc.  The licensee
 of this program is prohibited from giving any competitor of
 Gaussian, Inc. access to this program.  By using this program,
 the user acknowledges that Gaussian, Inc. is engaged in the
 business of creating and licensing software in the field of
 computational chemistry and represents and warrants to the
 licensee that it is not a competitor of Gaussian, Inc. and that
 it will not use this program in any manner prohibited above.
 ---------------------------------------------------------------
  

 Cite this work as:
 Gaussian 16, Revision A.03,
 M. J. Frisch, G. W. Trucks, H. B. Schlegel, G. E. Scuseria, 
 M. A. Robb, J. R. Cheeseman, G. Scalmani, V. Barone, 
 G. A. Petersson, H. Nakatsuji, X. Li, M. Caricato, A. V. Marenich, 
 J. Bloino, B. G. Janesko, R. Gomperts, B. Mennucci, H. P. Hratchian, 
 J. V. Ortiz, A. F. Izmaylov, J. L. Sonnenberg, D. Williams-Young, 
 F. Ding, F. Lipparini, F. Egidi, J. Goings, B. Peng, A. Petrone, 
 T. Henderson, D. Ranasinghe, V. G. Zakrzewski, J. Gao, N. Rega, 
 G. Zheng, W. Liang, M. Hada, M. Ehara, K. Toyota, R. Fukuda, 
 J. Hasegawa, M. Ishida, T. Nakajima, Y. Honda, O. Kitao, H. Nakai, 
 T. Vreven, K. Throssell, J. A. Montgomery, Jr., J. E. Peralta, 
 F. Ogliaro, M. J. Bearpark, J. J. Heyd, E. N. Brothers, K. N. Kudin, 
 V. N. Staroverov, T. A. Keith, R. Kobayashi, J. Normand, 
 K. Raghavachari, A. P. Rendell, J. C. Burant, S. S. Iyengar, 
 J. Tomasi, M. Cossi, J. M. Millam, M. Klene, C. Adamo, R. Cammi, 
 J. W. Ochterski, R. L. Martin, K. Morokuma, O. Farkas, 
 J. B. Foresman, and D. J. Fox, Gaussian, Inc., Wallingford CT, 2016.
 
 ******************************************
 Gaussian 16:  ES64L-G16RevA.03 25-Dec-2016
                15-May-2020 
 ******************************************
 %chk=w32_34.chk
 %nproc=4
 Will use up to    4 processors via shared memory.
 %mem=1gb
 -----------------------------------------
 #p hf/6-31g** 5d 7f pop=npa charge nosymm
 -----------------------------------------
 1/18=10,28=-2,38=1,125=101,172=1/1;
 2/12=2,15=1,17=6,18=5,40=1/2;
 3/5=1,6=6,7=101,8=11,11=9,25=1,30=1/1,2,3;
 4//1;
 5/5=2,38=5/2;
 6/7=2,8=2,9=2,10=2,28=1,40=-1/1,7;
 99/5=1,9=1/99;
 Leave Link    1 at Fri May 15 22:35:39 2020, MaxMem=   134217728 cpu:               0.3 elap:               0.1
 (Enter /home/soft/g16/l101.exe)
 --------------
 Atom number=12
 --------------
 Symbolic Z-matrix:
 Charge =  0 Multiplicity = 1
 o                     8.39232  -11.81294  -11.20048 
 o                     7.25028  -9.85963  -13.10346 
 o                     10.08491  -9.603    -13.69441 
 o                     9.47377  -7.99719  -10.91804 
 h                     8.17528  -12.53782  -10.61424 
 h                     9.25215  -11.5141  -10.90447 
 h                     7.12066  -10.22147  -13.9801 
 h                     7.34148  -10.62674  -12.53826 
 h                     9.83796  -9.87791  -14.5774 
 h                     9.26711  -9.62837  -13.19764 
 h                     9.99752  -8.79563  -10.85159 
 h                     9.62339  -7.54236  -10.0892 
 
 ITRead=  0  0  0  0  0  0  0  0  0  0  0  0
 MicOpt= -1 -1 -1 -1 -1 -1 -1 -1 -1 -1 -1 -1
 NAtoms=     12 NQM=       12 NQMF=       0 NMMI=      0 NMMIF=      0
                NMic=       0 NMicF=      0.
                    Isotopes and Nuclear Properties:
 (Nuclear quadrupole moments (NQMom) in fm**2, nuclear magnetic moments (NMagM)
  in nuclear magnetons)

  Atom         1           2           3           4           5           6           7           8           9          10
 IAtWgt=          16          16          16          16           1           1           1           1           1           1
 AtmWgt=  15.9949146  15.9949146  15.9949146  15.9949146   1.0078250   1.0078250   1.0078250   1.0078250   1.0078250   1.0078250
 NucSpn=           0           0           0           0           1           1           1           1           1           1
 AtZEff=  -0.0000000  -0.0000000  -0.0000000  -0.0000000  -0.0000000  -0.0000000  -0.0000000  -0.0000000  -0.0000000  -0.0000000
 NQMom=    0.0000000   0.0000000   0.0000000   0.0000000   0.0000000   0.0000000   0.0000000   0.0000000   0.0000000   0.0000000
 NMagM=    0.0000000   0.0000000   0.0000000   0.0000000   2.7928460   2.7928460   2.7928460   2.7928460   2.7928460   2.7928460
 AtZNuc=   8.0000000   8.0000000   8.0000000   8.0000000   1.0000000   1.0000000   1.0000000   1.0000000   1.0000000   1.0000000

  Atom        11          12
 IAtWgt=           1           1
 AtmWgt=   1.0078250   1.0078250
 NucSpn=           1           1
 AtZEff=  -0.0000000  -0.0000000
 NQMom=    0.0000000   0.0000000
 NMagM=    2.7928460   2.7928460
 AtZNuc=   1.0000000   1.0000000
 Background charge distribution read from input stream:
 Point Charges:
 XYZ=   10.7060  -10.8489  -10.0915 Q=   -1.0357 A=    0.0000 R=    0.0000 C=    0.0000
 XYZ=   11.5214  -11.3203   -9.9208 Q=    0.5206 A=    0.0000 R=    0.0000 C=    0.0000
 XYZ=   10.5678  -10.3169   -9.3078 Q=    0.5156 A=    0.0000 R=    0.0000 C=    0.0000
 XYZ=    8.6932  -14.0693   -9.5471 Q=   -1.0099 A=    0.0000 R=    0.0000 C=    0.0000
 XYZ=    8.2201  -13.7327   -8.7861 Q=    0.4999 A=    0.0000 R=    0.0000 C=    0.0000
 XYZ=    8.5528  -15.0157   -9.5178 Q=    0.5079 A=    0.0000 R=    0.0000 C=    0.0000
 XYZ=    5.5704  -12.7600  -10.7338 Q=   -1.0500 A=    0.0000 R=    0.0000 C=    0.0000
 XYZ=    4.6427  -12.8278  -10.5079 Q=    0.5214 A=    0.0000 R=    0.0000 C=    0.0000
 XYZ=    5.9838  -12.4052   -9.9468 Q=    0.5064 A=    0.0000 R=    0.0000 C=    0.0000
 XYZ=    6.9662   -9.2478  -10.2743 Q=   -1.0324 A=    0.0000 R=    0.0000 C=    0.0000
 XYZ=    6.9752   -9.8450  -11.0223 Q=    0.5142 A=    0.0000 R=    0.0000 C=    0.0000
 XYZ=    7.6844   -8.6385  -10.4451 Q=    0.5185 A=    0.0000 R=    0.0000 C=    0.0000
 XYZ=    6.9426  -11.8294   -8.3710 Q=   -1.0528 A=    0.0000 R=    0.0000 C=    0.0000
 XYZ=    7.4956  -12.0911   -7.6348 Q=    0.5210 A=    0.0000 R=    0.0000 C=    0.0000
 XYZ=    7.3075  -10.9928   -8.6597 Q=    0.5255 A=    0.0000 R=    0.0000 C=    0.0000
 XYZ=    9.7397  -14.5602  -13.0841 Q=   -1.0029 A=    0.0000 R=    0.0000 C=    0.0000
 XYZ=    9.4367  -13.9209  -12.4394 Q=    0.5215 A=    0.0000 R=    0.0000 C=    0.0000
 XYZ=   10.6527  -14.3230  -13.2466 Q=    0.4988 A=    0.0000 R=    0.0000 C=    0.0000
 XYZ=    8.4516  -10.6356  -15.6859 Q=   -1.0322 A=    0.0000 R=    0.0000 C=    0.0000
 XYZ=    8.1250  -10.4069  -16.5562 Q=    0.4798 A=    0.0000 R=    0.0000 C=    0.0000
 XYZ=    9.2622  -11.1166  -15.8526 Q=    0.5341 A=    0.0000 R=    0.0000 C=    0.0000
 XYZ=    4.0391  -11.2243  -12.8044 Q=   -0.9921 A=    0.0000 R=    0.0000 C=    0.0000
 XYZ=    4.5248  -12.0476  -12.7552 Q=    0.4802 A=    0.0000 R=    0.0000 C=    0.0000
 XYZ=    4.4321  -10.7575  -13.5420 Q=    0.5046 A=    0.0000 R=    0.0000 C=    0.0000
 XYZ=    5.5848  -15.5922  -11.4699 Q=   -1.0129 A=    0.0000 R=    0.0000 C=    0.0000
 XYZ=    4.6785  -15.3483  -11.6582 Q=    0.5050 A=    0.0000 R=    0.0000 C=    0.0000
 XYZ=    6.0031  -14.7735  -11.2032 Q=    0.5257 A=    0.0000 R=    0.0000 C=    0.0000
 XYZ=    8.8013  -12.4259   -6.4973 Q=   -0.9852 A=    0.0000 R=    0.0000 C=    0.0000
 XYZ=    9.0556  -11.7490   -5.8701 Q=    0.5006 A=    0.0000 R=    0.0000 C=    0.0000
 XYZ=    8.9395  -13.2499   -6.0303 Q=    0.5083 A=    0.0000 R=    0.0000 C=    0.0000
 XYZ=   10.5523   -9.0602   -7.7657 Q=   -0.9799 A=    0.0000 R=    0.0000 C=    0.0000
 XYZ=   10.0296   -9.4526   -7.0665 Q=    0.5003 A=    0.0000 R=    0.0000 C=    0.0000
 XYZ=   10.0576   -8.2839   -8.0284 Q=    0.4937 A=    0.0000 R=    0.0000 C=    0.0000
 XYZ=    8.4919  -14.1596  -15.7110 Q=   -0.9823 A=    0.0000 R=    0.0000 C=    0.0000
 XYZ=    8.8439  -15.0437  -15.8144 Q=    0.4799 A=    0.0000 R=    0.0000 C=    0.0000
 XYZ=    8.9183  -13.8221  -14.9233 Q=    0.4950 A=    0.0000 R=    0.0000 C=    0.0000
 XYZ=   10.6752  -11.9252  -15.8192 Q=   -0.9837 A=    0.0000 R=    0.0000 C=    0.0000
 XYZ=   11.1454  -12.2597  -15.0555 Q=    0.5055 A=    0.0000 R=    0.0000 C=    0.0000
 XYZ=   10.7694  -12.6123  -16.4789 Q=    0.5125 A=    0.0000 R=    0.0000 C=    0.0000
 XYZ=    7.7593  -16.5050  -13.2460 Q=   -1.0112 A=    0.0000 R=    0.0000 C=    0.0000
 XYZ=    7.3079  -16.2111  -12.4547 Q=    0.4926 A=    0.0000 R=    0.0000 C=    0.0000
 XYZ=    8.5373  -15.9498  -13.2987 Q=    0.4973 A=    0.0000 R=    0.0000 C=    0.0000
 XYZ=   13.4576  -11.7733   -9.7740 Q=   -0.9993 A=    0.0000 R=    0.0000 C=    0.0000
 XYZ=   13.9089  -10.9962  -10.1037 Q=    0.5128 A=    0.0000 R=    0.0000 C=    0.0000
 XYZ=   14.1508  -12.4236   -9.6612 Q=    0.5076 A=    0.0000 R=    0.0000 C=    0.0000
 XYZ=    5.5914  -15.5335   -8.7002 Q=   -1.0162 A=    0.0000 R=    0.0000 C=    0.0000
 XYZ=    6.3093  -16.0707   -8.3652 Q=    0.4831 A=    0.0000 R=    0.0000 C=    0.0000
 XYZ=    5.4763  -15.8239   -9.6050 Q=    0.5237 A=    0.0000 R=    0.0000 C=    0.0000
 XYZ=    5.3398  -11.2122  -15.4745 Q=   -0.9760 A=    0.0000 R=    0.0000 C=    0.0000
 XYZ=    5.8801  -10.4587  -15.7120 Q=    0.4863 A=    0.0000 R=    0.0000 C=    0.0000
 XYZ=    5.4896  -11.8457  -16.1763 Q=    0.4965 A=    0.0000 R=    0.0000 C=    0.0000
 XYZ=   12.9960  -14.7139  -11.2100 Q=   -0.9778 A=    0.0000 R=    0.0000 C=    0.0000
 XYZ=   12.2864  -15.1619  -10.7497 Q=    0.5059 A=    0.0000 R=    0.0000 C=    0.0000
 XYZ=   13.6357  -14.5124  -10.5270 Q=    0.4638 A=    0.0000 R=    0.0000 C=    0.0000
 XYZ=    4.6413   -8.1383  -12.6711 Q=   -0.9897 A=    0.0000 R=    0.0000 C=    0.0000
 XYZ=    4.5978   -7.2720  -12.2662 Q=    0.4876 A=    0.0000 R=    0.0000 C=    0.0000
 XYZ=    5.5765   -8.3384  -12.7100 Q=    0.4969 A=    0.0000 R=    0.0000 C=    0.0000
 XYZ=    8.9611  -17.0167   -9.2755 Q=   -0.9921 A=    0.0000 R=    0.0000 C=    0.0000
 XYZ=    8.6736  -17.2191   -8.3852 Q=    0.5092 A=    0.0000 R=    0.0000 C=    0.0000
 XYZ=    8.3026  -17.4234   -9.8386 Q=    0.5103 A=    0.0000 R=    0.0000 C=    0.0000
 XYZ=   12.8900   -9.6906  -13.7511 Q=   -0.9984 A=    0.0000 R=    0.0000 C=    0.0000
 XYZ=   13.4884   -9.8459  -13.0204 Q=    0.4670 A=    0.0000 R=    0.0000 C=    0.0000
 XYZ=   12.0171   -9.7427  -13.3618 Q=    0.5160 A=    0.0000 R=    0.0000 C=    0.0000
 XYZ=    4.9070   -7.9100   -9.1300 Q=   -1.0105 A=    0.0000 R=    0.0000 C=    0.0000
 XYZ=    4.0635   -8.0265   -9.5674 Q=    0.4764 A=    0.0000 R=    0.0000 C=    0.0000
 XYZ=    5.4227   -8.6710   -9.3968 Q=    0.5176 A=    0.0000 R=    0.0000 C=    0.0000
 XYZ=    2.9547  -12.7024   -9.8757 Q=   -0.9915 A=    0.0000 R=    0.0000 C=    0.0000
 XYZ=    3.0641  -13.5048   -9.3654 Q=    0.5019 A=    0.0000 R=    0.0000 C=    0.0000
 XYZ=    2.7384  -12.0329   -9.2268 Q=    0.5105 A=    0.0000 R=    0.0000 C=    0.0000
 XYZ=    4.2108  -13.3306   -7.5546 Q=   -1.0293 A=    0.0000 R=    0.0000 C=    0.0000
 XYZ=    4.9638  -12.7453   -7.4735 Q=    0.4979 A=    0.0000 R=    0.0000 C=    0.0000
 XYZ=    4.5835  -14.1618   -7.8486 Q=    0.5197 A=    0.0000 R=    0.0000 C=    0.0000
 XYZ=    8.5389   -6.2611  -12.9484 Q=   -1.0019 A=    0.0000 R=    0.0000 C=    0.0000
 XYZ=    8.8800   -6.8491  -12.2745 Q=    0.5098 A=    0.0000 R=    0.0000 C=    0.0000
 XYZ=    9.2767   -6.1230  -13.5423 Q=    0.4773 A=    0.0000 R=    0.0000 C=    0.0000
 XYZ=   11.4715  -15.3553   -7.5180 Q=   -1.0197 A=    0.0000 R=    0.0000 C=    0.0000
 XYZ=   10.8644  -15.3558   -8.2581 Q=    0.4753 A=    0.0000 R=    0.0000 C=    0.0000
 XYZ=   11.9075  -14.5045   -7.5658 Q=    0.5146 A=    0.0000 R=    0.0000 C=    0.0000
 XYZ=   12.8138  -13.0185   -7.3663 Q=   -0.9959 A=    0.0000 R=    0.0000 C=    0.0000
 XYZ=   12.4819  -12.4171   -6.6996 Q=    0.4994 A=    0.0000 R=    0.0000 C=    0.0000
 XYZ=   12.6552  -12.5682   -8.1960 Q=    0.5110 A=    0.0000 R=    0.0000 C=    0.0000
 XYZ=   11.3245  -17.0116  -10.7628 Q=   -1.0019 A=    0.0000 R=    0.0000 C=    0.0000
 XYZ=   11.7165  -17.8633  -10.5702 Q=    0.4876 A=    0.0000 R=    0.0000 C=    0.0000
 XYZ=   10.4428  -17.0644  -10.3939 Q=    0.5095 A=    0.0000 R=    0.0000 C=    0.0000
 Pt Chg Charge=             -0.0019 electrons
 Pt Chg Dipole moment (Debye):
    X=             16.1845    Y=             -1.7748    Z=             13.4789  Tot=             21.1369
 Pt Chg Quadrupole moment (Debye-Ang):
   XX=            252.7565   YY=             64.7913   ZZ=           -235.1359
   XY=           -169.0988   XZ=            -68.9812   YZ=           -150.3963
 Pt Chg Traceless Quadrupole moment (Debye-Ang):
   XX=            225.2859   YY=             37.3207   ZZ=           -262.6065
   XY=           -169.0988   XZ=            -68.9812   YZ=           -150.3963
 Pt Chg Octapole moment (Debye-Ang**2):
  XXX=           3360.8662  YYY=          -1816.1071  ZZZ=           2911.3856  XYY=           1946.6791
  XXY=          -2499.5247  XXZ=          -1835.3297  XZZ=            123.3496  YZZ=           2828.1368
  YYZ=           1606.0870  XYZ=            608.1112
 Pt Chg Hexadecapole moment (Debye-Ang**3):
 XXXX=          45370.9059 YYYY=          44930.8187 ZZZZ=         -25585.4818 XXXY=         -32864.4787
 XXXZ=         -28235.7758 YYYX=         -26808.8896 YYYZ=         -14197.7457 ZZZX=              7.9773
 ZZZY=         -36580.6086 XXYY=          25752.3480 XXZZ=          14489.2406 YYZZ=         -35207.4349
 XXYZ=          18272.6714 YYXZ=          -5873.2352 ZZXY=            578.3460
 Leave Link  101 at Fri May 15 22:35:39 2020, MaxMem=   134217728 cpu:               0.5 elap:               0.2
 (Enter /home/soft/g16/l202.exe)
                          Input orientation:                          
 ---------------------------------------------------------------------
 Center     Atomic      Atomic             Coordinates (Angstroms)
 Number     Number       Type             X           Y           Z
 ---------------------------------------------------------------------
      1          8           0        8.392325  -11.812941  -11.200483
      2          8           0        7.250284   -9.859627  -13.103456
      3          8           0       10.084912   -9.602997  -13.694410
      4          8           0        9.473772   -7.997188  -10.918041
      5          1           0        8.175276  -12.537815  -10.614239
      6          1           0        9.252154  -11.514100  -10.904475
      7          1           0        7.120660  -10.221473  -13.980096
      8          1           0        7.341484  -10.626744  -12.538261
      9          1           0        9.837963   -9.877914  -14.577398
     10          1           0        9.267108   -9.628370  -13.197635
     11          1           0        9.997520   -8.795627  -10.851588
     12          1           0        9.623390   -7.542356  -10.089201
 ---------------------------------------------------------------------
                    Distance matrix (angstroms):
                    1          2          3          4          5
     1  O    0.000000
     2  O    2.956518   0.000000
     3  O    3.737429   2.906923   0.000000
     4  O    3.976088   3.631614   3.265018   0.000000
     5  H    0.957201   3.771538   4.663402   4.732408   0.000000
     6  H    0.957200   3.402981   3.482749   3.523914   1.513901
     7  H    3.446179   0.957200   3.041532   4.456541   4.219792
     8  H    2.073880   0.957200   3.148196   3.753176   2.837122
     9  H    4.151837   2.978074   0.957200   4.130455   5.054328
    10  H    3.086456   2.032223   0.957200   2.810696   4.041151
    11  H    3.435486   3.708141   2.956539   0.957201   4.169038
    12  H    4.581306   4.481865   4.178131   0.957201   5.227553
                    6          7          8          9         10
     6  H    0.000000
     7  H    3.958989   0.000000
     8  H    2.665955   1.513901   0.000000
     9  H    4.063329   2.803308   3.309265   0.000000
    10  H    2.968970   2.360351   2.267058   1.513900   0.000000
    11  H    2.819302   4.482959   3.640382   3.883100   2.594398
    12  H    4.071515   5.346063   4.551751   5.064068   3.760419
                   11         12
    11  H    0.000000
    12  H    1.513901   0.000000
 Symmetry turned off by external request.
 Stoichiometry    H8O4
 Framework group  C1[X(H8O4)]
 Deg. of freedom    30
 Full point group                 C1      NOp   1
 Rotational constants (GHZ):           2.9755783           2.3105366           1.8589260
 Leave Link  202 at Fri May 15 22:35:39 2020, MaxMem=   134217728 cpu:               0.0 elap:               0.0
 (Enter /home/soft/g16/l301.exe)
 Standard basis: 6-31G(d,p) (5D, 7F)
 Ernie: Thresh=  0.10000D-02 Tol=  0.10000D-05 Strict=F.
    96 basis functions,   168 primitive gaussians,   100 cartesian basis functions
    20 alpha electrons       20 beta electrons
       nuclear repulsion energy       130.5525607272 Hartrees.
 IExCor=    0 DFT=F Ex=HF Corr=None ExCW=0 ScaHFX=  1.000000
 ScaDFX=  1.000000  1.000000  1.000000  1.000000 ScalE2=  1.000000  1.000000
 IRadAn=      5 IRanWt=     -1 IRanGd=            0 ICorTp=0 IEmpDi=  4
 NAtoms=   12 NActive=   12 NUniq=   12 SFac= 1.00D+00 NAtFMM=   60 NAOKFM=F Big=F
 Integral buffers will be    131072 words long.
 Raffenetti 1 integral format.
 Two-electron integral symmetry is turned off.
 Background charge distribution read from rwf.
 PtFMM for NChg=        96 BoxLen=    40.00 Levels= 1 LMax=20 SMax=    22.2 ICnFMM=     1:
 Self energy of the charges =       -13.4810912153 a.u.
 MM   energy of the charges =         0.0000000000 a.u.
 Nuclei-charges interaction =         0.2082359097 a.u.
 Nuclear repulsion after external point charges =      117.2797054216 Hartrees.
 Leave Link  301 at Fri May 15 22:35:39 2020, MaxMem=   134217728 cpu:               0.2 elap:               0.1
 (Enter /home/soft/g16/l302.exe)
 NPDir=0 NMtPBC=     1 NCelOv=     1 NCel=       1 NClECP=     1 NCelD=      1
         NCelK=      1 NCelE2=     1 NClLst=     1 CellRange=     0.0.
 One-electron integrals computed using PRISM.
 NBasis=    96 RedAO= T EigKep=  2.91D-02  NBF=    96
 NBsUse=    96 1.00D-06 EigRej= -1.00D+00 NBFU=    96
 Leave Link  302 at Fri May 15 22:35:39 2020, MaxMem=   134217728 cpu:               0.5 elap:               0.1
 (Enter /home/soft/g16/l303.exe)
 DipDrv:  MaxL=1.
 Leave Link  303 at Fri May 15 22:35:39 2020, MaxMem=   134217728 cpu:               0.1 elap:               0.1
 (Enter /home/soft/g16/l401.exe)
 ExpMin= 1.61D-01 ExpMax= 5.48D+03 ExpMxC= 8.25D+02 IAcc=3 IRadAn=         5 AccDes= 0.00D+00
 Harris functional with IExCor=  205 and IRadAn=       5 diagonalized for initial guess.
 HarFok:  IExCor=  205 AccDes= 0.00D+00 IRadAn=         5 IDoV= 1 UseB2=F ITyADJ=14
 ICtDFT=  3500011 ScaDFX=  1.000000  1.000000  1.000000  1.000000
 FoFCou: FMM=F IPFlag=           0 FMFlag=      100000 FMFlg1=           0
         NFxFlg=           0 DoJE=T BraDBF=F KetDBF=T FulRan=T
         wScrn=  0.000000 ICntrl=       500 IOpCl=  0 I1Cent=   200000004 NGrid=           0
         NMat0=    1 NMatS0=      1 NMatT0=    0 NMatD0=    1 NMtDS0=    0 NMtDT0=    0
 Symmetry not used in FoFCou.
 Harris En= -318.068530369597    
 JPrj=0 DoOrth=F DoCkMO=F.
 Leave Link  401 at Fri May 15 22:35:40 2020, MaxMem=   134217728 cpu:               1.8 elap:               0.5
 (Enter /home/soft/g16/l502.exe)
 Keep R1 ints in memory in canonical form, NReq=11711997.
 FoFCou: FMM=F IPFlag=           0 FMFlag=           0 FMFlg1=           0
         NFxFlg=           0 DoJE=F BraDBF=F KetDBF=F FulRan=T
         wScrn=  0.000000 ICntrl=       600 IOpCl=  0 I1Cent=           0 NGrid=           0
         NMat0=    1 NMatS0=   4656 NMatT0=    0 NMatD0=    1 NMtDS0=    0 NMtDT0=    0
 Symmetry not used in FoFCou.
 Two-electron integral symmetry not used.
 Closed shell SCF:
 Using DIIS extrapolation, IDIIS=  1040.
 NGot=   134217728 LenX=   123354636 LenY=   123344195
 Requested convergence on RMS density matrix=1.00D-08 within 128 cycles.
 Requested convergence on MAX density matrix=1.00D-06.
 Requested convergence on             energy=1.00D-06.
 No special actions if energy rises.

 Cycle   1  Pass 1  IDiag  1:
 E= -317.356707222124    
 DIIS: error= 4.87D-02 at cycle   1 NSaved=   1.
 NSaved= 1 IEnMin= 1 EnMin= -317.356707222124     IErMin= 1 ErrMin= 4.87D-02
 ErrMax= 4.87D-02  0.00D+00 EMaxC= 1.00D-01 BMatC= 4.92D-01 BMatP= 4.92D-01
 IDIUse=3 WtCom= 5.13D-01 WtEn= 4.87D-01
 Coeff-Com:  0.100D+01
 Coeff-En:   0.100D+01
 Coeff:      0.100D+01
 Gap=     0.564 Goal=   None    Shift=    0.000
 GapD=    0.564 DampG=2.000 DampE=0.500 DampFc=1.0000 IDamp=-1.
 RMSDP=5.94D-03 MaxDP=1.24D-01              OVMax= 1.30D-01

 Cycle   2  Pass 1  IDiag  1:
 E= -317.586190539118     Delta-E=       -0.229483316994 Rises=F Damp=F
 DIIS: error= 2.82D-02 at cycle   2 NSaved=   2.
 NSaved= 2 IEnMin= 2 EnMin= -317.586190539118     IErMin= 2 ErrMin= 2.82D-02
 ErrMax= 2.82D-02  0.00D+00 EMaxC= 1.00D-01 BMatC= 1.49D-01 BMatP= 4.92D-01
 IDIUse=3 WtCom= 7.18D-01 WtEn= 2.82D-01
 Coeff-Com:  0.343D+00 0.657D+00
 Coeff-En:   0.730D-01 0.927D+00
 Coeff:      0.267D+00 0.733D+00
 Gap=     0.634 Goal=   None    Shift=    0.000
 RMSDP=2.66D-03 MaxDP=5.22D-02 DE=-2.29D-01 OVMax= 4.70D-02

 Cycle   3  Pass 1  IDiag  1:
 E= -317.685263715153     Delta-E=       -0.099073176035 Rises=F Damp=F
 DIIS: error= 4.44D-03 at cycle   3 NSaved=   3.
 NSaved= 3 IEnMin= 3 EnMin= -317.685263715153     IErMin= 3 ErrMin= 4.44D-03
 ErrMax= 4.44D-03  0.00D+00 EMaxC= 1.00D-01 BMatC= 3.67D-03 BMatP= 1.49D-01
 IDIUse=3 WtCom= 9.56D-01 WtEn= 4.44D-02
 Coeff-Com: -0.313D-01 0.913D-01 0.940D+00
 Coeff-En:   0.000D+00 0.000D+00 0.100D+01
 Coeff:     -0.299D-01 0.873D-01 0.943D+00
 Gap=     0.622 Goal=   None    Shift=    0.000
 RMSDP=3.69D-04 MaxDP=8.18D-03 DE=-9.91D-02 OVMax= 9.61D-03

 Cycle   4  Pass 1  IDiag  1:
 E= -317.688111886431     Delta-E=       -0.002848171278 Rises=F Damp=F
 DIIS: error= 4.77D-04 at cycle   4 NSaved=   4.
 NSaved= 4 IEnMin= 4 EnMin= -317.688111886431     IErMin= 4 ErrMin= 4.77D-04
 ErrMax= 4.77D-04  0.00D+00 EMaxC= 1.00D-01 BMatC= 3.09D-05 BMatP= 3.67D-03
 IDIUse=3 WtCom= 9.95D-01 WtEn= 4.77D-03
 Coeff-Com:  0.419D-02-0.362D-01-0.234D+00 0.127D+01
 Coeff-En:   0.000D+00 0.000D+00 0.000D+00 0.100D+01
 Coeff:      0.417D-02-0.360D-01-0.233D+00 0.127D+01
 Gap=     0.623 Goal=   None    Shift=    0.000
 RMSDP=8.56D-05 MaxDP=1.48D-03 DE=-2.85D-03 OVMax= 2.22D-03

 Cycle   5  Pass 1  IDiag  1:
 E= -317.688166567021     Delta-E=       -0.000054680590 Rises=F Damp=F
 DIIS: error= 1.56D-04 at cycle   5 NSaved=   5.
 NSaved= 5 IEnMin= 5 EnMin= -317.688166567021     IErMin= 5 ErrMin= 1.56D-04
 ErrMax= 1.56D-04  0.00D+00 EMaxC= 1.00D-01 BMatC= 2.49D-06 BMatP= 3.09D-05
 IDIUse=3 WtCom= 9.98D-01 WtEn= 1.56D-03
 Coeff-Com:  0.246D-02-0.121D-01-0.935D-01 0.236D+00 0.867D+00
 Coeff-En:   0.000D+00 0.000D+00 0.000D+00 0.000D+00 0.100D+01
 Coeff:      0.246D-02-0.121D-01-0.933D-01 0.235D+00 0.868D+00
 Gap=     0.624 Goal=   None    Shift=    0.000
 RMSDP=1.94D-05 MaxDP=4.32D-04 DE=-5.47D-05 OVMax= 4.61D-04

 Cycle   6  Pass 1  IDiag  1:
 E= -317.688169850405     Delta-E=       -0.000003283384 Rises=F Damp=F
 DIIS: error= 4.60D-05 at cycle   6 NSaved=   6.
 NSaved= 6 IEnMin= 6 EnMin= -317.688169850405     IErMin= 6 ErrMin= 4.60D-05
 ErrMax= 4.60D-05  0.00D+00 EMaxC= 1.00D-01 BMatC= 2.12D-07 BMatP= 2.49D-06
 IDIUse=1 WtCom= 1.00D+00 WtEn= 0.00D+00
 Coeff-Com: -0.774D-04 0.187D-02 0.113D-01-0.982D-01 0.913D-01 0.994D+00
 Coeff:     -0.774D-04 0.187D-02 0.113D-01-0.982D-01 0.913D-01 0.994D+00
 Gap=     0.624 Goal=   None    Shift=    0.000
 RMSDP=7.12D-06 MaxDP=1.53D-04 DE=-3.28D-06 OVMax= 1.99D-04

 Cycle   7  Pass 1  IDiag  1:
 E= -317.688170190600     Delta-E=       -0.000000340195 Rises=F Damp=F
 DIIS: error= 8.21D-06 at cycle   7 NSaved=   7.
 NSaved= 7 IEnMin= 7 EnMin= -317.688170190600     IErMin= 7 ErrMin= 8.21D-06
 ErrMax= 8.21D-06  0.00D+00 EMaxC= 1.00D-01 BMatC= 8.38D-09 BMatP= 2.12D-07
 IDIUse=1 WtCom= 1.00D+00 WtEn= 0.00D+00
 Coeff-Com: -0.149D-03 0.618D-03 0.520D-02-0.692D-02-0.689D-01-0.845D-01
 Coeff-Com:  0.115D+01
 Coeff:     -0.149D-03 0.618D-03 0.520D-02-0.692D-02-0.689D-01-0.845D-01
 Coeff:      0.115D+01
 Gap=     0.624 Goal=   None    Shift=    0.000
 RMSDP=1.85D-06 MaxDP=4.70D-05 DE=-3.40D-07 OVMax= 5.50D-05

 Cycle   8  Pass 1  IDiag  1:
 E= -317.688170208173     Delta-E=       -0.000000017573 Rises=F Damp=F
 DIIS: error= 1.53D-06 at cycle   8 NSaved=   8.
 NSaved= 8 IEnMin= 8 EnMin= -317.688170208173     IErMin= 8 ErrMin= 1.53D-06
 ErrMax= 1.53D-06  0.00D+00 EMaxC= 1.00D-01 BMatC= 3.04D-10 BMatP= 8.38D-09
 IDIUse=1 WtCom= 1.00D+00 WtEn= 0.00D+00
 Coeff-Com:  0.405D-04-0.223D-03-0.179D-02 0.525D-02 0.163D-01-0.557D-02
 Coeff-Com: -0.320D+00 0.131D+01
 Coeff:      0.405D-04-0.223D-03-0.179D-02 0.525D-02 0.163D-01-0.557D-02
 Coeff:     -0.320D+00 0.131D+01
 Gap=     0.624 Goal=   None    Shift=    0.000
 RMSDP=2.91D-07 MaxDP=7.30D-06 DE=-1.76D-08 OVMax= 9.06D-06

 Cycle   9  Pass 1  IDiag  1:
 E= -317.688170208825     Delta-E=       -0.000000000652 Rises=F Damp=F
 DIIS: error= 2.80D-07 at cycle   9 NSaved=   9.
 NSaved= 9 IEnMin= 9 EnMin= -317.688170208825     IErMin= 9 ErrMin= 2.80D-07
 ErrMax= 2.80D-07  0.00D+00 EMaxC= 1.00D-01 BMatC= 1.36D-11 BMatP= 3.04D-10
 IDIUse=1 WtCom= 1.00D+00 WtEn= 0.00D+00
 Coeff-Com:  0.766D-05-0.338D-04-0.281D-03 0.391D-03 0.384D-02 0.449D-02
 Coeff-Com: -0.655D-01 0.532D-01 0.100D+01
 Coeff:      0.766D-05-0.338D-04-0.281D-03 0.391D-03 0.384D-02 0.449D-02
 Coeff:     -0.655D-01 0.532D-01 0.100D+01
 Gap=     0.624 Goal=   None    Shift=    0.000
 RMSDP=5.09D-08 MaxDP=1.69D-06 DE=-6.52D-10 OVMax= 1.32D-06

 Cycle  10  Pass 1  IDiag  1:
 E= -317.688170208851     Delta-E=       -0.000000000026 Rises=F Damp=F
 DIIS: error= 1.29D-07 at cycle  10 NSaved=  10.
 NSaved=10 IEnMin=10 EnMin= -317.688170208851     IErMin=10 ErrMin= 1.29D-07
 ErrMax= 1.29D-07  0.00D+00 EMaxC= 1.00D-01 BMatC= 1.82D-12 BMatP= 1.36D-11
 IDIUse=1 WtCom= 1.00D+00 WtEn= 0.00D+00
 Coeff-Com: -0.162D-05 0.109D-04 0.868D-04-0.365D-03-0.415D-03 0.162D-02
 Coeff-Com:  0.104D-01-0.908D-01 0.210D+00 0.870D+00
 Coeff:     -0.162D-05 0.109D-04 0.868D-04-0.365D-03-0.415D-03 0.162D-02
 Coeff:      0.104D-01-0.908D-01 0.210D+00 0.870D+00
 Gap=     0.624 Goal=   None    Shift=    0.000
 RMSDP=1.49D-08 MaxDP=3.33D-07 DE=-2.58D-11 OVMax= 4.85D-07

 Cycle  11  Pass 1  IDiag  1:
 E= -317.688170208850     Delta-E=        0.000000000000 Rises=F Damp=F
 DIIS: error= 2.45D-08 at cycle  11 NSaved=  11.
 NSaved=11 IEnMin=10 EnMin= -317.688170208851     IErMin=11 ErrMin= 2.45D-08
 ErrMax= 2.45D-08  0.00D+00 EMaxC= 1.00D-01 BMatC= 9.71D-14 BMatP= 1.82D-12
 IDIUse=1 WtCom= 1.00D+00 WtEn= 0.00D+00
 Coeff-Com: -0.741D-06 0.348D-05 0.289D-04-0.550D-04-0.357D-03-0.348D-03
 Coeff-Com:  0.614D-02-0.583D-02-0.946D-01-0.927D-03 0.110D+01
 Coeff:     -0.741D-06 0.348D-05 0.289D-04-0.550D-04-0.357D-03-0.348D-03
 Coeff:      0.614D-02-0.583D-02-0.946D-01-0.927D-03 0.110D+01
 Gap=     0.624 Goal=   None    Shift=    0.000
 RMSDP=6.03D-09 MaxDP=8.71D-08 DE= 1.71D-13 OVMax= 1.55D-07

 SCF Done:  E(RHF) =  -317.688170209     A.U. after   11 cycles
            NFock= 11  Conv=0.60D-08     -V/T= 2.0464
 KE= 3.035899229035D+02 PE=-9.844231953491D+02 EE= 2.458653968151D+02
 Leave Link  502 at Fri May 15 22:35:40 2020, MaxMem=   134217728 cpu:               1.5 elap:               0.5
 (Enter /home/soft/g16/l601.exe)
 Copying SCF densities to generalized density rwf, IOpCl= 0 IROHF=0.

 **********************************************************************

            Population analysis using the SCF density.

 **********************************************************************

 Alpha  occ. eigenvalues --  -20.61157 -20.54416 -20.53015 -20.50956  -1.39305
 Alpha  occ. eigenvalues --   -1.32834  -1.31538  -1.29257  -0.75290  -0.68909
 Alpha  occ. eigenvalues --   -0.68079  -0.65910  -0.62800  -0.56943  -0.55454
 Alpha  occ. eigenvalues --   -0.54481  -0.53652  -0.49042  -0.46590  -0.45494
 Alpha virt. eigenvalues --    0.16899   0.23741   0.28575   0.29972   0.34538
 Alpha virt. eigenvalues --    0.39630   0.41347   0.44261   0.92883   1.00990
 Alpha virt. eigenvalues --    1.03913   1.04323   1.07914   1.09873   1.11963
 Alpha virt. eigenvalues --    1.12800   1.13712   1.16428   1.19304   1.19963
 Alpha virt. eigenvalues --    1.21656   1.24140   1.28739   1.29429   1.32689
 Alpha virt. eigenvalues --    1.35900   1.38885   1.44176   1.55938   1.63239
 Alpha virt. eigenvalues --    1.72073   1.75531   1.77438   1.78483   1.82097
 Alpha virt. eigenvalues --    1.82647   1.84518   1.85460   1.86837   1.91499
 Alpha virt. eigenvalues --    1.93406   1.96224   1.97760   2.07263   2.53477
 Alpha virt. eigenvalues --    2.54253   2.59465   2.60997   2.61198   2.65065
 Alpha virt. eigenvalues --    2.65832   2.68205   2.77322   2.83910   2.85406
 Alpha virt. eigenvalues --    2.88192   2.92876   2.94545   3.00054   3.01187
 Alpha virt. eigenvalues --    3.02364   3.03435   3.04363   3.08488   3.33244
 Alpha virt. eigenvalues --    3.41128   3.42193   3.46070   3.71180   3.78582
 Alpha virt. eigenvalues --    3.80963   3.85073   3.90926   3.95474   3.98433
 Alpha virt. eigenvalues --    4.06118
          Condensed to atoms (all electrons):
               1          2          3          4          5          6
     1  O    8.131868  -0.006929  -0.000132  -0.000059   0.314104   0.310806
     2  O   -0.006929   8.121625  -0.010792   0.000042   0.000189   0.000346
     3  O   -0.000132  -0.010792   8.176737  -0.000201   0.000002   0.000448
     4  O   -0.000059   0.000042  -0.000201   8.107027   0.000000   0.000211
     5  H    0.314104   0.000189   0.000002   0.000000   0.311841  -0.018639
     6  H    0.310806   0.000346   0.000448   0.000211  -0.018639   0.305103
     7  H    0.000134   0.317641   0.001069   0.000005  -0.000007   0.000001
     8  H    0.020638   0.302825   0.000795   0.000076  -0.000661  -0.001183
     9  H   -0.000000   0.001190   0.322361   0.000019   0.000000  -0.000007
    10  H    0.001011   0.030485   0.307386   0.001366  -0.000016   0.000051
    11  H    0.000446   0.000007   0.001567   0.314861  -0.000010   0.000215
    12  H   -0.000001   0.000011   0.000031   0.306691   0.000000  -0.000001
               7          8          9         10         11         12
     1  O    0.000134   0.020638  -0.000000   0.001011   0.000446  -0.000001
     2  O    0.317641   0.302825   0.001190   0.030485   0.000007   0.000011
     3  O    0.001069   0.000795   0.322361   0.307386   0.001567   0.000031
     4  O    0.000005   0.000076   0.000019   0.001366   0.314861   0.306691
     5  H   -0.000007  -0.000661   0.000000  -0.000016  -0.000010   0.000000
     6  H    0.000001  -0.001183  -0.000007   0.000051   0.000215  -0.000001
     7  H    0.310981  -0.020365   0.000181  -0.001555  -0.000002  -0.000000
     8  H   -0.020365   0.327539   0.000044  -0.002259   0.000018  -0.000003
     9  H    0.000181   0.000044   0.314753  -0.026463  -0.000041  -0.000001
    10  H   -0.001555  -0.002259  -0.026463   0.310058  -0.000761  -0.000018
    11  H   -0.000002   0.000018  -0.000041  -0.000761   0.317651  -0.023531
    12  H   -0.000000  -0.000003  -0.000001  -0.000018  -0.023531   0.377548
 Mulliken charges:
               1
     1  O   -0.771884
     2  O   -0.756638
     3  O   -0.799272
     4  O   -0.730038
     5  H    0.393197
     6  H    0.402650
     7  H    0.391917
     8  H    0.372536
     9  H    0.387963
    10  H    0.380713
    11  H    0.389581
    12  H    0.339275
 Sum of Mulliken charges =  -0.00000
 Mulliken charges with hydrogens summed into heavy atoms:
               1
     1  O    0.023962
     2  O    0.007815
     3  O   -0.030596
     4  O   -0.001181
 Electronic spatial extent (au):  <R**2>=          46944.9497
 Charge=             -0.0000 electrons
 Dipole moment (field-independent basis, Debye):
    X=              0.2138    Y=             -4.9905    Z=              2.0708  Tot=              5.4073
 Quadrupole moment (field-independent basis, Debye-Ang):
   XX=            -24.8227   YY=             76.6412   ZZ=            -57.9895
   XY=            -43.5002   XZ=             23.8323   YZ=             40.7596
 Traceless Quadrupole moment (field-independent basis, Debye-Ang):
   XX=            -22.7657   YY=             78.6982   ZZ=            -55.9325
   XY=            -43.5002   XZ=             23.8323   YZ=             40.7596
 Octapole moment (field-independent basis, Debye-Ang**2):
  XXX=           -708.8853  YYY=           -833.3789  ZZZ=           1193.4824  XYY=            642.0148
  XXY=           -104.9244  XXZ=            615.2563  XZZ=           -677.1399  YZZ=           -184.4728
  YYZ=           -713.6176  XYZ=            277.1305
 Hexadecapole moment (field-independent basis, Debye-Ang**3):
 XXXX=         -13054.0748 YYYY=           7057.3374 ZZZZ=         -21637.5315 XXXY=           3934.1637
 XXXZ=          12181.4611 YYYX=          -6732.5371 YYYZ=           7474.3679 ZZZX=          13731.5759
 ZZZY=          -2327.2328 XXYY=           2658.2879 XXZZ=         -11919.9153 YYZZ=           5370.1533
 XXYZ=          -1688.6241 YYXZ=          -5169.8395 ZZXY=            287.4794
 N-N= 1.172797054216D+02 E-N=-9.844231954900D+02  KE= 3.035899229035D+02
 No NMR shielding tensors so no spin-rotation constants.
 Leave Link  601 at Fri May 15 22:35:40 2020, MaxMem=   134217728 cpu:               0.3 elap:               0.1
 (Enter /home/soft/g16/l607.exe)
 ******************************Gaussian NBO Version 3.1******************************
             N A T U R A L   A T O M I C   O R B I T A L   A N D
          N A T U R A L   B O N D   O R B I T A L   A N A L Y S I S
 ******************************Gaussian NBO Version 3.1******************************
       /RESON  / : Allow strongly delocalized NBO set

 Analyzing the SCF density

 Job title: Atom number=12                                                  

 Storage needed:     28188 in NPA ( 134216936 available)
 GSVD:  LWork=        4224 too small for GESVD, short by        5328 words or        5328 for optimal perf.


 NATURAL POPULATIONS:  Natural atomic orbital occupancies 
                                                          
   NAO  Atom  No  lang   Type(AO)    Occupancy      Energy
 ----------------------------------------------------------
     1    O    1  S      Cor( 1S)     1.99986     -20.38184
     2    O    1  S      Val( 2S)     1.75863      -1.15138
     3    O    1  S      Ryd( 3S)     0.00085       1.72876
     4    O    1  px     Val( 2p)     1.68684      -0.38305
     5    O    1  px     Ryd( 3p)     0.00151       1.31886
     6    O    1  py     Val( 2p)     1.74960      -0.40500
     7    O    1  py     Ryd( 3p)     0.00143       1.28997
     8    O    1  pz     Val( 2p)     1.84723      -0.44157
     9    O    1  pz     Ryd( 3p)     0.00047       1.27287
    10    O    1  dxy    Ryd( 3d)     0.00054       2.55780
    11    O    1  dxz    Ryd( 3d)     0.00129       2.52567
    12    O    1  dyz    Ryd( 3d)     0.00144       2.72617
    13    O    1  dx2y2  Ryd( 3d)     0.00083       2.69212
    14    O    1  dz2    Ryd( 3d)     0.00133       2.36820

    15    O    2  S      Cor( 1S)     1.99985     -20.36086
    16    O    2  S      Val( 2S)     1.75230      -1.13847
    17    O    2  S      Ryd( 3S)     0.00087       1.88843
    18    O    2  px     Val( 2p)     1.97300      -0.46098
    19    O    2  px     Ryd( 3p)     0.00087       1.30716
    20    O    2  py     Val( 2p)     1.75074      -0.40216
    21    O    2  py     Ryd( 3p)     0.00034       1.24798
    22    O    2  pz     Val( 2p)     1.55091      -0.32630
    23    O    2  pz     Ryd( 3p)     0.00175       1.33688
    24    O    2  dxy    Ryd( 3d)     0.00145       2.27414
    25    O    2  dxz    Ryd( 3d)     0.00011       2.33924
    26    O    2  dyz    Ryd( 3d)     0.00168       3.05365
    27    O    2  dx2y2  Ryd( 3d)     0.00185       2.53824
    28    O    2  dz2    Ryd( 3d)     0.00050       2.74912

    29    O    3  S      Cor( 1S)     1.99985     -20.33947
    30    O    3  S      Val( 2S)     1.74863      -1.11796
    31    O    3  S      Ryd( 3S)     0.00078       1.91755
    32    O    3  px     Val( 2p)     1.75876      -0.39126
    33    O    3  px     Ryd( 3p)     0.00067       1.24516
    34    O    3  py     Val( 2p)     1.96796      -0.44193
    35    O    3  py     Ryd( 3p)     0.00050       1.22007
    36    O    3  pz     Val( 2p)     1.57374      -0.31268
    37    O    3  pz     Ryd( 3p)     0.00174       1.37407
    38    O    3  dxy    Ryd( 3d)     0.00127       2.30707
    39    O    3  dxz    Ryd( 3d)     0.00118       2.90402
    40    O    3  dyz    Ryd( 3d)     0.00039       2.45916
    41    O    3  dx2y2  Ryd( 3d)     0.00148       2.58606
    42    O    3  dz2    Ryd( 3d)     0.00058       2.78051

    43    O    4  S      Cor( 1S)     1.99986     -20.44841
    44    O    4  S      Val( 2S)     1.75894      -1.21202
    45    O    4  S      Ryd( 3S)     0.00117       1.64161
    46    O    4  px     Val( 2p)     1.88915      -0.51741
    47    O    4  px     Ryd( 3p)     0.00067       1.13251
    48    O    4  py     Val( 2p)     1.64187      -0.42979
    49    O    4  py     Ryd( 3p)     0.00198       1.21892
    50    O    4  pz     Val( 2p)     1.70771      -0.45740
    51    O    4  pz     Ryd( 3p)     0.00100       1.20731
    52    O    4  dxy    Ryd( 3d)     0.00100       2.64773
    53    O    4  dxz    Ryd( 3d)     0.00163       2.29412
    54    O    4  dyz    Ryd( 3d)     0.00107       2.61114
    55    O    4  dx2y2  Ryd( 3d)     0.00054       2.32809
    56    O    4  dz2    Ryd( 3d)     0.00173       2.65933

    57    H    5  S      Val( 1S)     0.46736       0.40576
    58    H    5  S      Ryd( 2S)     0.00049       0.75130
    59    H    5  px     Ryd( 2p)     0.00055       2.74525
    60    H    5  py     Ryd( 2p)     0.00133       3.09433
    61    H    5  pz     Ryd( 2p)     0.00108       2.93326

    62    H    6  S      Val( 1S)     0.46292       0.41641
    63    H    6  S      Ryd( 2S)     0.00070       0.79001
    64    H    6  px     Ryd( 2p)     0.00158       3.30160
    65    H    6  py     Ryd( 2p)     0.00070       2.76770
    66    H    6  pz     Ryd( 2p)     0.00077       2.74066

    67    H    7  S      Val( 1S)     0.46775       0.41438
    68    H    7  S      Ryd( 2S)     0.00053       0.79413
    69    H    7  px     Ryd( 2p)     0.00076       2.66948
    70    H    7  py     Ryd( 2p)     0.00075       2.79681
    71    H    7  pz     Ryd( 2p)     0.00145       3.33194

    72    H    8  S      Val( 1S)     0.48332       0.38872
    73    H    8  S      Ryd( 2S)     0.00077       0.88393
    74    H    8  px     Ryd( 2p)     0.00091       2.67046
    75    H    8  py     Ryd( 2p)     0.00143       3.18602
    76    H    8  pz     Ryd( 2p)     0.00081       2.96514

    77    H    9  S      Val( 1S)     0.47178       0.42760
    78    H    9  S      Ryd( 2S)     0.00058       0.78376
    79    H    9  px     Ryd( 2p)     0.00061       2.76038
    80    H    9  py     Ryd( 2p)     0.00086       2.71422
    81    H    9  pz     Ryd( 2p)     0.00141       3.35475

    82    H   10  S      Val( 1S)     0.47795       0.41433
    83    H   10  S      Ryd( 2S)     0.00232       0.93848
    84    H   10  px     Ryd( 2p)     0.00149       3.28702
    85    H   10  py     Ryd( 2p)     0.00080       2.65573
    86    H   10  pz     Ryd( 2p)     0.00056       2.96323

    87    H   11  S      Val( 1S)     0.47176       0.33645
    88    H   11  S      Ryd( 2S)     0.00092       0.74114
    89    H   11  px     Ryd( 2p)     0.00105       2.80873
    90    H   11  py     Ryd( 2p)     0.00138       3.14382
    91    H   11  pz     Ryd( 2p)     0.00058       2.61151

    92    H   12  S      Val( 1S)     0.51195       0.27199
    93    H   12  S      Ryd( 2S)     0.00105       0.67060
    94    H   12  px     Ryd( 2p)     0.00083       2.57538
    95    H   12  py     Ryd( 2p)     0.00088       2.76004
    96    H   12  pz     Ryd( 2p)     0.00137       3.14334


 Summary of Natural Population Analysis:                  
                                                          
                                       Natural Population 
                Natural  -----------------------------------------------
    Atom  No    Charge         Core      Valence    Rydberg      Total
 -----------------------------------------------------------------------
      O    1   -1.05185      1.99986     7.04230    0.00969     9.05185
      O    2   -1.03622      1.99985     7.02695    0.00942     9.03622
      O    3   -1.05754      1.99985     7.04909    0.00860     9.05754
      O    4   -1.00831      1.99986     6.99767    0.01078     9.00831
      H    5    0.52919      0.00000     0.46736    0.00345     0.47081
      H    6    0.53333      0.00000     0.46292    0.00376     0.46667
      H    7    0.52876      0.00000     0.46775    0.00348     0.47124
      H    8    0.51277      0.00000     0.48332    0.00392     0.48723
      H    9    0.52476      0.00000     0.47178    0.00346     0.47524
      H   10    0.51688      0.00000     0.47795    0.00517     0.48312
      H   11    0.52432      0.00000     0.47176    0.00393     0.47568
      H   12    0.48393      0.00000     0.51195    0.00412     0.51607
 =======================================================================
   * Total *   -0.00000      7.99943    31.93079    0.06978    40.00000

                                 Natural Population      
 --------------------------------------------------------
   Core                       7.99943 ( 99.9929% of   8)
   Valence                   31.93079 ( 99.7837% of  32)
   Natural Minimal Basis     39.93022 ( 99.8256% of  40)
   Natural Rydberg Basis      0.06978 (  0.1744% of  40)
 --------------------------------------------------------

    Atom  No          Natural Electron Configuration
 ----------------------------------------------------------------------------
      O    1      [core]2S( 1.76)2p( 5.28)3d( 0.01)
      O    2      [core]2S( 1.75)2p( 5.27)3d( 0.01)
      O    3      [core]2S( 1.75)2p( 5.30)
      O    4      [core]2S( 1.76)2p( 5.24)3d( 0.01)
      H    5            1S( 0.47)
      H    6            1S( 0.46)
      H    7            1S( 0.47)
      H    8            1S( 0.48)
      H    9            1S( 0.47)
      H   10            1S( 0.48)
      H   11            1S( 0.47)
      H   12            1S( 0.51)


 NBO analysis skipped by request.
 Leave Link  607 at Fri May 15 22:35:40 2020, MaxMem=   134217728 cpu:               0.6 elap:               0.2
 (Enter /home/soft/g16/l9999.exe)

 Test job not archived.
 1\1\GINC-MASTER\SP\RHF\6-31G(d,p)\H8O4\LIWEI01\15-May-2020\0\\#p hf/6-
 31g** 5d 7f pop=npa charge nosymm\\Atom number=12\\0,1\O,0,8.392325,-1
 1.812941,-11.200483\O,0,7.250284,-9.859627,-13.103456\O,0,10.084912,-9
 .602997,-13.69441\O,0,9.473772,-7.997188,-10.918041\H,0,8.175276,-12.5
 37815,-10.614239\H,0,9.252154,-11.5141,-10.904475\H,0,7.12066,-10.2214
 73,-13.980096\H,0,7.341484,-10.626744,-12.538261\H,0,9.837963,-9.87791
 4,-14.577398\H,0,9.267108,-9.62837,-13.197635\H,0,9.99752,-8.795627,-1
 0.851588\H,0,9.62339,-7.542356,-10.089201\\Version=ES64L-G16RevA.03\HF
 =-317.6881702\RMSD=6.032e-09\Dipole=0.0841139,-1.9633946,0.8147052\Qua
 drupole=-16.9257376,58.5101786,-41.584441,-32.3413422,17.7187311,30.30
 37412\PG=C01 [X(H8O4)]\\@


 HE THAT FOLLOWS NATURE IS NEVER LOST.

                             -- BACON
 Job cpu time:       0 days  0 hours  0 minutes  6.2 seconds.
 Elapsed time:       0 days  0 hours  0 minutes  1.9 seconds.
 File lengths (MBytes):  RWF=     72 Int=      0 D2E=      0 Chk=      8 Scr=      8
 Normal termination of Gaussian 16 at Fri May 15 22:35:40 2020.
