 Entering Gaussian System, Link 0=g16
 Input=w32_59.gjf
 Output=w32_59.log
 Initial command:
 /home/soft/g16/l1.exe "/tmp/liwei01/gaussian/wsr/Gau-7865.inp" -scrdir="/tmp/liwei01/gaussian/wsr/"
 Entering Link 1 = /home/soft/g16/l1.exe PID=      7866.
  
 Copyright (c) 1988,1990,1992,1993,1995,1998,2003,2009,2016,
            Gaussian, Inc.  All Rights Reserved.
  
 This is part of the Gaussian(R) 16 program.  It is based on
 the Gaussian(R) 09 system (copyright 2009, Gaussian, Inc.),
 the Gaussian(R) 03 system (copyright 2003, Gaussian, Inc.),
 the Gaussian(R) 98 system (copyright 1998, Gaussian, Inc.),
 the Gaussian(R) 94 system (copyright 1995, Gaussian, Inc.),
 the Gaussian 92(TM) system (copyright 1992, Gaussian, Inc.),
 the Gaussian 90(TM) system (copyright 1990, Gaussian, Inc.),
 the Gaussian 88(TM) system (copyright 1988, Gaussian, Inc.),
 the Gaussian 86(TM) system (copyright 1986, Carnegie Mellon
 University), and the Gaussian 82(TM) system (copyright 1983,
 Carnegie Mellon University). Gaussian is a federally registered
 trademark of Gaussian, Inc.
  
 This software contains proprietary and confidential information,
 including trade secrets, belonging to Gaussian, Inc.
  
 This software is provided under written license and may be
 used, copied, transmitted, or stored only in accord with that
 written license.
  
 The following legend is applicable only to US Government
 contracts under FAR:
  
                    RESTRICTED RIGHTS LEGEND
  
 Use, reproduction and disclosure by the US Government is
 subject to restrictions as set forth in subparagraphs (a)
 and (c) of the Commercial Computer Software - Restricted
 Rights clause in FAR 52.227-19.
  
 Gaussian, Inc.
 340 Quinnipiac St., Bldg. 40, Wallingford CT 06492
  
  
 ---------------------------------------------------------------
 Warning -- This program may not be used in any manner that
 competes with the business of Gaussian, Inc. or will provide
 assistance to any competitor of Gaussian, Inc.  The licensee
 of this program is prohibited from giving any competitor of
 Gaussian, Inc. access to this program.  By using this program,
 the user acknowledges that Gaussian, Inc. is engaged in the
 business of creating and licensing software in the field of
 computational chemistry and represents and warrants to the
 licensee that it is not a competitor of Gaussian, Inc. and that
 it will not use this program in any manner prohibited above.
 ---------------------------------------------------------------
  

 Cite this work as:
 Gaussian 16, Revision A.03,
 M. J. Frisch, G. W. Trucks, H. B. Schlegel, G. E. Scuseria, 
 M. A. Robb, J. R. Cheeseman, G. Scalmani, V. Barone, 
 G. A. Petersson, H. Nakatsuji, X. Li, M. Caricato, A. V. Marenich, 
 J. Bloino, B. G. Janesko, R. Gomperts, B. Mennucci, H. P. Hratchian, 
 J. V. Ortiz, A. F. Izmaylov, J. L. Sonnenberg, D. Williams-Young, 
 F. Ding, F. Lipparini, F. Egidi, J. Goings, B. Peng, A. Petrone, 
 T. Henderson, D. Ranasinghe, V. G. Zakrzewski, J. Gao, N. Rega, 
 G. Zheng, W. Liang, M. Hada, M. Ehara, K. Toyota, R. Fukuda, 
 J. Hasegawa, M. Ishida, T. Nakajima, Y. Honda, O. Kitao, H. Nakai, 
 T. Vreven, K. Throssell, J. A. Montgomery, Jr., J. E. Peralta, 
 F. Ogliaro, M. J. Bearpark, J. J. Heyd, E. N. Brothers, K. N. Kudin, 
 V. N. Staroverov, T. A. Keith, R. Kobayashi, J. Normand, 
 K. Raghavachari, A. P. Rendell, J. C. Burant, S. S. Iyengar, 
 J. Tomasi, M. Cossi, J. M. Millam, M. Klene, C. Adamo, R. Cammi, 
 J. W. Ochterski, R. L. Martin, K. Morokuma, O. Farkas, 
 J. B. Foresman, and D. J. Fox, Gaussian, Inc., Wallingford CT, 2016.
 
 ******************************************
 Gaussian 16:  ES64L-G16RevA.03 25-Dec-2016
                15-May-2020 
 ******************************************
 %chk=w32_59.chk
 %nproc=4
 Will use up to    4 processors via shared memory.
 %mem=1gb
 -----------------------------------------
 #p hf/6-31g** 5d 7f pop=npa charge nosymm
 -----------------------------------------
 1/18=10,28=-2,38=1,125=101,172=1/1;
 2/12=2,15=1,17=6,18=5,40=1/2;
 3/5=1,6=6,7=101,8=11,11=9,25=1,30=1/1,2,3;
 4//1;
 5/5=2,38=5/2;
 6/7=2,8=2,9=2,10=2,28=1,40=-1/1,7;
 99/5=1,9=1/99;
 Leave Link    1 at Fri May 15 22:36:03 2020, MaxMem=   134217728 cpu:               0.3 elap:               0.1
 (Enter /home/soft/g16/l101.exe)
 -------------
 Atom number=9
 -------------
 Symbolic Z-matrix:
 Charge =  0 Multiplicity = 1
 o                     7.25028  -9.85963  -13.10346 
 o                     10.08491  -9.603    -13.69441 
 o                     8.45159  -10.63558  -15.68593 
 h                     7.12066  -10.22147  -13.9801 
 h                     7.34148  -10.62674  -12.53826 
 h                     9.83796  -9.87791  -14.5774 
 h                     9.26711  -9.62837  -13.19764 
 h                     8.12504  -10.40686  -16.55615 
 h                     9.26219  -11.11661  -15.85257 
 
 ITRead=  0  0  0  0  0  0  0  0  0
 MicOpt= -1 -1 -1 -1 -1 -1 -1 -1 -1
 NAtoms=      9 NQM=        9 NQMF=       0 NMMI=      0 NMMIF=      0
                NMic=       0 NMicF=      0.
                    Isotopes and Nuclear Properties:
 (Nuclear quadrupole moments (NQMom) in fm**2, nuclear magnetic moments (NMagM)
  in nuclear magnetons)

  Atom         1           2           3           4           5           6           7           8           9
 IAtWgt=          16          16          16           1           1           1           1           1           1
 AtmWgt=  15.9949146  15.9949146  15.9949146   1.0078250   1.0078250   1.0078250   1.0078250   1.0078250   1.0078250
 NucSpn=           0           0           0           1           1           1           1           1           1
 AtZEff=  -0.0000000  -0.0000000  -0.0000000  -0.0000000  -0.0000000  -0.0000000  -0.0000000  -0.0000000  -0.0000000
 NQMom=    0.0000000   0.0000000   0.0000000   0.0000000   0.0000000   0.0000000   0.0000000   0.0000000   0.0000000
 NMagM=    0.0000000   0.0000000   0.0000000   2.7928460   2.7928460   2.7928460   2.7928460   2.7928460   2.7928460
 AtZNuc=   8.0000000   8.0000000   8.0000000   1.0000000   1.0000000   1.0000000   1.0000000   1.0000000   1.0000000
 Background charge distribution read from input stream:
 Point Charges:
 XYZ=    8.3923  -11.8129  -11.2005 Q=   -1.0561 A=    0.0000 R=    0.0000 C=    0.0000
 XYZ=    8.1753  -12.5378  -10.6142 Q=    0.5233 A=    0.0000 R=    0.0000 C=    0.0000
 XYZ=    9.2522  -11.5141  -10.9045 Q=    0.5177 A=    0.0000 R=    0.0000 C=    0.0000
 XYZ=   10.7060  -10.8489  -10.0915 Q=   -1.0357 A=    0.0000 R=    0.0000 C=    0.0000
 XYZ=   11.5214  -11.3203   -9.9208 Q=    0.5206 A=    0.0000 R=    0.0000 C=    0.0000
 XYZ=   10.5678  -10.3169   -9.3078 Q=    0.5156 A=    0.0000 R=    0.0000 C=    0.0000
 XYZ=    8.6932  -14.0693   -9.5471 Q=   -1.0099 A=    0.0000 R=    0.0000 C=    0.0000
 XYZ=    8.2201  -13.7327   -8.7861 Q=    0.4999 A=    0.0000 R=    0.0000 C=    0.0000
 XYZ=    8.5528  -15.0157   -9.5178 Q=    0.5079 A=    0.0000 R=    0.0000 C=    0.0000
 XYZ=    5.5704  -12.7600  -10.7338 Q=   -1.0500 A=    0.0000 R=    0.0000 C=    0.0000
 XYZ=    4.6427  -12.8278  -10.5079 Q=    0.5214 A=    0.0000 R=    0.0000 C=    0.0000
 XYZ=    5.9838  -12.4052   -9.9468 Q=    0.5064 A=    0.0000 R=    0.0000 C=    0.0000
 XYZ=    6.9662   -9.2478  -10.2743 Q=   -1.0324 A=    0.0000 R=    0.0000 C=    0.0000
 XYZ=    6.9752   -9.8450  -11.0223 Q=    0.5142 A=    0.0000 R=    0.0000 C=    0.0000
 XYZ=    7.6844   -8.6385  -10.4451 Q=    0.5185 A=    0.0000 R=    0.0000 C=    0.0000
 XYZ=    6.9426  -11.8294   -8.3710 Q=   -1.0528 A=    0.0000 R=    0.0000 C=    0.0000
 XYZ=    7.4956  -12.0911   -7.6348 Q=    0.5210 A=    0.0000 R=    0.0000 C=    0.0000
 XYZ=    7.3075  -10.9928   -8.6597 Q=    0.5255 A=    0.0000 R=    0.0000 C=    0.0000
 XYZ=    9.7397  -14.5602  -13.0841 Q=   -1.0029 A=    0.0000 R=    0.0000 C=    0.0000
 XYZ=    9.4367  -13.9209  -12.4394 Q=    0.5215 A=    0.0000 R=    0.0000 C=    0.0000
 XYZ=   10.6527  -14.3230  -13.2466 Q=    0.4988 A=    0.0000 R=    0.0000 C=    0.0000
 XYZ=    9.4738   -7.9972  -10.9180 Q=   -0.9971 A=    0.0000 R=    0.0000 C=    0.0000
 XYZ=    9.9975   -8.7956  -10.8516 Q=    0.5301 A=    0.0000 R=    0.0000 C=    0.0000
 XYZ=    9.6234   -7.5424  -10.0892 Q=    0.4920 A=    0.0000 R=    0.0000 C=    0.0000
 XYZ=    4.0391  -11.2243  -12.8044 Q=   -0.9921 A=    0.0000 R=    0.0000 C=    0.0000
 XYZ=    4.5248  -12.0476  -12.7552 Q=    0.4802 A=    0.0000 R=    0.0000 C=    0.0000
 XYZ=    4.4321  -10.7575  -13.5420 Q=    0.5046 A=    0.0000 R=    0.0000 C=    0.0000
 XYZ=    5.5848  -15.5922  -11.4699 Q=   -1.0129 A=    0.0000 R=    0.0000 C=    0.0000
 XYZ=    4.6785  -15.3483  -11.6582 Q=    0.5050 A=    0.0000 R=    0.0000 C=    0.0000
 XYZ=    6.0031  -14.7735  -11.2032 Q=    0.5257 A=    0.0000 R=    0.0000 C=    0.0000
 XYZ=    8.8013  -12.4259   -6.4973 Q=   -0.9852 A=    0.0000 R=    0.0000 C=    0.0000
 XYZ=    9.0556  -11.7490   -5.8701 Q=    0.5006 A=    0.0000 R=    0.0000 C=    0.0000
 XYZ=    8.9395  -13.2499   -6.0303 Q=    0.5083 A=    0.0000 R=    0.0000 C=    0.0000
 XYZ=   10.5523   -9.0602   -7.7657 Q=   -0.9799 A=    0.0000 R=    0.0000 C=    0.0000
 XYZ=   10.0296   -9.4526   -7.0665 Q=    0.5003 A=    0.0000 R=    0.0000 C=    0.0000
 XYZ=   10.0576   -8.2839   -8.0284 Q=    0.4937 A=    0.0000 R=    0.0000 C=    0.0000
 XYZ=    8.4919  -14.1596  -15.7110 Q=   -0.9823 A=    0.0000 R=    0.0000 C=    0.0000
 XYZ=    8.8439  -15.0437  -15.8144 Q=    0.4799 A=    0.0000 R=    0.0000 C=    0.0000
 XYZ=    8.9183  -13.8221  -14.9233 Q=    0.4950 A=    0.0000 R=    0.0000 C=    0.0000
 XYZ=   10.6752  -11.9252  -15.8192 Q=   -0.9837 A=    0.0000 R=    0.0000 C=    0.0000
 XYZ=   11.1454  -12.2597  -15.0555 Q=    0.5055 A=    0.0000 R=    0.0000 C=    0.0000
 XYZ=   10.7694  -12.6123  -16.4789 Q=    0.5125 A=    0.0000 R=    0.0000 C=    0.0000
 XYZ=    7.7593  -16.5050  -13.2460 Q=   -1.0112 A=    0.0000 R=    0.0000 C=    0.0000
 XYZ=    7.3079  -16.2111  -12.4547 Q=    0.4926 A=    0.0000 R=    0.0000 C=    0.0000
 XYZ=    8.5373  -15.9498  -13.2987 Q=    0.4973 A=    0.0000 R=    0.0000 C=    0.0000
 XYZ=   13.4576  -11.7733   -9.7740 Q=   -0.9993 A=    0.0000 R=    0.0000 C=    0.0000
 XYZ=   13.9089  -10.9962  -10.1037 Q=    0.5128 A=    0.0000 R=    0.0000 C=    0.0000
 XYZ=   14.1508  -12.4236   -9.6612 Q=    0.5076 A=    0.0000 R=    0.0000 C=    0.0000
 XYZ=    5.5914  -15.5335   -8.7002 Q=   -1.0162 A=    0.0000 R=    0.0000 C=    0.0000
 XYZ=    6.3093  -16.0707   -8.3652 Q=    0.4831 A=    0.0000 R=    0.0000 C=    0.0000
 XYZ=    5.4763  -15.8239   -9.6050 Q=    0.5237 A=    0.0000 R=    0.0000 C=    0.0000
 XYZ=    5.3398  -11.2122  -15.4745 Q=   -0.9760 A=    0.0000 R=    0.0000 C=    0.0000
 XYZ=    5.8801  -10.4587  -15.7120 Q=    0.4863 A=    0.0000 R=    0.0000 C=    0.0000
 XYZ=    5.4896  -11.8457  -16.1763 Q=    0.4965 A=    0.0000 R=    0.0000 C=    0.0000
 XYZ=   12.9960  -14.7139  -11.2100 Q=   -0.9778 A=    0.0000 R=    0.0000 C=    0.0000
 XYZ=   12.2864  -15.1619  -10.7497 Q=    0.5059 A=    0.0000 R=    0.0000 C=    0.0000
 XYZ=   13.6357  -14.5124  -10.5270 Q=    0.4638 A=    0.0000 R=    0.0000 C=    0.0000
 XYZ=    4.6413   -8.1383  -12.6711 Q=   -0.9897 A=    0.0000 R=    0.0000 C=    0.0000
 XYZ=    4.5978   -7.2720  -12.2662 Q=    0.4876 A=    0.0000 R=    0.0000 C=    0.0000
 XYZ=    5.5765   -8.3384  -12.7100 Q=    0.4969 A=    0.0000 R=    0.0000 C=    0.0000
 XYZ=    8.9611  -17.0167   -9.2755 Q=   -0.9921 A=    0.0000 R=    0.0000 C=    0.0000
 XYZ=    8.6736  -17.2191   -8.3852 Q=    0.5092 A=    0.0000 R=    0.0000 C=    0.0000
 XYZ=    8.3026  -17.4234   -9.8386 Q=    0.5103 A=    0.0000 R=    0.0000 C=    0.0000
 XYZ=   12.8900   -9.6906  -13.7511 Q=   -0.9984 A=    0.0000 R=    0.0000 C=    0.0000
 XYZ=   13.4884   -9.8459  -13.0204 Q=    0.4670 A=    0.0000 R=    0.0000 C=    0.0000
 XYZ=   12.0171   -9.7427  -13.3618 Q=    0.5160 A=    0.0000 R=    0.0000 C=    0.0000
 XYZ=    4.9070   -7.9100   -9.1300 Q=   -1.0105 A=    0.0000 R=    0.0000 C=    0.0000
 XYZ=    4.0635   -8.0265   -9.5674 Q=    0.4764 A=    0.0000 R=    0.0000 C=    0.0000
 XYZ=    5.4227   -8.6710   -9.3968 Q=    0.5176 A=    0.0000 R=    0.0000 C=    0.0000
 XYZ=    2.9547  -12.7024   -9.8757 Q=   -0.9915 A=    0.0000 R=    0.0000 C=    0.0000
 XYZ=    3.0641  -13.5048   -9.3654 Q=    0.5019 A=    0.0000 R=    0.0000 C=    0.0000
 XYZ=    2.7384  -12.0329   -9.2268 Q=    0.5105 A=    0.0000 R=    0.0000 C=    0.0000
 XYZ=    4.2108  -13.3306   -7.5546 Q=   -1.0293 A=    0.0000 R=    0.0000 C=    0.0000
 XYZ=    4.9638  -12.7453   -7.4735 Q=    0.4979 A=    0.0000 R=    0.0000 C=    0.0000
 XYZ=    4.5835  -14.1618   -7.8486 Q=    0.5197 A=    0.0000 R=    0.0000 C=    0.0000
 XYZ=    8.5389   -6.2611  -12.9484 Q=   -1.0019 A=    0.0000 R=    0.0000 C=    0.0000
 XYZ=    8.8800   -6.8491  -12.2745 Q=    0.5098 A=    0.0000 R=    0.0000 C=    0.0000
 XYZ=    9.2767   -6.1230  -13.5423 Q=    0.4773 A=    0.0000 R=    0.0000 C=    0.0000
 XYZ=   11.4715  -15.3553   -7.5180 Q=   -1.0197 A=    0.0000 R=    0.0000 C=    0.0000
 XYZ=   10.8644  -15.3558   -8.2581 Q=    0.4753 A=    0.0000 R=    0.0000 C=    0.0000
 XYZ=   11.9075  -14.5045   -7.5658 Q=    0.5146 A=    0.0000 R=    0.0000 C=    0.0000
 XYZ=   12.8138  -13.0185   -7.3663 Q=   -0.9959 A=    0.0000 R=    0.0000 C=    0.0000
 XYZ=   12.4819  -12.4171   -6.6996 Q=    0.4994 A=    0.0000 R=    0.0000 C=    0.0000
 XYZ=   12.6552  -12.5682   -8.1960 Q=    0.5110 A=    0.0000 R=    0.0000 C=    0.0000
 XYZ=   11.3245  -17.0116  -10.7628 Q=   -1.0019 A=    0.0000 R=    0.0000 C=    0.0000
 XYZ=   11.7165  -17.8633  -10.5702 Q=    0.4876 A=    0.0000 R=    0.0000 C=    0.0000
 XYZ=   10.4428  -17.0644  -10.3939 Q=    0.5095 A=    0.0000 R=    0.0000 C=    0.0000
 Pt Chg Charge=              0.0262 electrons
 Pt Chg Dipole moment (Debye):
    X=             19.4044    Y=             -4.1390    Z=             18.3772  Tot=             27.0441
 Pt Chg Quadrupole moment (Debye-Ang):
   XX=            301.7051   YY=            100.9726   ZZ=           -379.7389
   XY=           -207.9140   XZ=            -41.9801   YZ=           -192.2668
 Pt Chg Traceless Quadrupole moment (Debye-Ang):
   XX=            294.0589   YY=             93.3263   ZZ=           -387.3851
   XY=           -207.9140   XZ=            -41.9801   YZ=           -192.2668
 Pt Chg Octapole moment (Debye-Ang**2):
  XXX=           4001.4639  YYY=          -2343.2237  ZZZ=           5905.8602  XYY=           2422.6231
  XXY=          -3023.9764  XXZ=          -1761.3628  XZZ=          -1057.0905  YZZ=           4271.8824
  YYZ=           1957.7107  XYZ=            373.6913
 Pt Chg Hexadecapole moment (Debye-Ang**3):
 XXXX=          53149.3651 YYYY=          52487.7431 ZZZZ=         -81641.6038 XXXY=         -39341.6082
 XXXZ=         -29266.9414 YYYX=         -32783.4649 YYYZ=         -16913.2652 ZZZX=          26509.6240
 ZZZY=         -67841.1911 XXYY=          31552.2265 XXZZ=           5033.1660 YYZZ=         -50030.0073
 XXYZ=          17575.6509 YYXZ=          -3841.3877 ZZXY=          12716.9173
 Leave Link  101 at Fri May 15 22:36:04 2020, MaxMem=   134217728 cpu:               0.5 elap:               0.1
 (Enter /home/soft/g16/l202.exe)
                          Input orientation:                          
 ---------------------------------------------------------------------
 Center     Atomic      Atomic             Coordinates (Angstroms)
 Number     Number       Type             X           Y           Z
 ---------------------------------------------------------------------
      1          8           0        7.250284   -9.859627  -13.103456
      2          8           0       10.084912   -9.602997  -13.694410
      3          8           0        8.451586  -10.635579  -15.685931
      4          1           0        7.120660  -10.221473  -13.980096
      5          1           0        7.341484  -10.626744  -12.538261
      6          1           0        9.837963   -9.877914  -14.577398
      7          1           0        9.267108   -9.628370  -13.197635
      8          1           0        8.125035  -10.406856  -16.556152
      9          1           0        9.262189  -11.116608  -15.852568
 ---------------------------------------------------------------------
                    Distance matrix (angstroms):
                    1          2          3          4          5
     1  O    0.000000
     2  O    2.906923   0.000000
     3  O    2.952017   2.774912   0.000000
     4  H    0.957200   3.041532   2.202889   0.000000
     5  H    0.957200   3.148196   3.337698   1.513901   0.000000
     6  H    2.978074   0.957200   1.930011   2.803308   3.309265
     7  H    2.032223   0.957200   2.805559   2.360351   2.267058
     8  H    3.603576   3.560460   0.957201   2.771137   4.099482
     9  H    3.631168   2.761438   0.957201   2.982208   3.861827
                    6          7          8          9
     6  H    0.000000
     7  H    1.513900   0.000000
     8  H    2.670088   3.631805   0.000000
     9  H    1.868673   3.043607   1.513901   0.000000
 Symmetry turned off by external request.
 Stoichiometry    H6O3
 Framework group  C1[X(H6O3)]
 Deg. of freedom    21
 Full point group                 C1      NOp   1
 Rotational constants (GHZ):           7.2270314           5.9632378           3.3275173
 Leave Link  202 at Fri May 15 22:36:04 2020, MaxMem=   134217728 cpu:               0.0 elap:               0.0
 (Enter /home/soft/g16/l301.exe)
 Standard basis: 6-31G(d,p) (5D, 7F)
 Ernie: Thresh=  0.10000D-02 Tol=  0.10000D-05 Strict=F.
    72 basis functions,   126 primitive gaussians,    75 cartesian basis functions
    15 alpha electrons       15 beta electrons
       nuclear repulsion energy        83.3511409343 Hartrees.
 IExCor=    0 DFT=F Ex=HF Corr=None ExCW=0 ScaHFX=  1.000000
 ScaDFX=  1.000000  1.000000  1.000000  1.000000 ScalE2=  1.000000  1.000000
 IRadAn=      5 IRanWt=     -1 IRanGd=            0 ICorTp=0 IEmpDi=  4
 NAtoms=    9 NActive=    9 NUniq=    9 SFac= 1.00D+00 NAtFMM=   60 NAOKFM=F Big=F
 Integral buffers will be    131072 words long.
 Raffenetti 1 integral format.
 Two-electron integral symmetry is turned off.
 Background charge distribution read from rwf.
 PtFMM for NChg=        96 BoxLen=    40.00 Levels= 1 LMax=20 SMax=    22.2 ICnFMM=     1:
 Self energy of the charges =       -14.0126467170 a.u.
 MM   energy of the charges =         0.0000000000 a.u.
 Nuclei-charges interaction =        -0.6709710777 a.u.
 Nuclear repulsion after external point charges =       68.6675231395 Hartrees.
 Leave Link  301 at Fri May 15 22:36:04 2020, MaxMem=   134217728 cpu:               0.2 elap:               0.1
 (Enter /home/soft/g16/l302.exe)
 NPDir=0 NMtPBC=     1 NCelOv=     1 NCel=       1 NClECP=     1 NCelD=      1
         NCelK=      1 NCelE2=     1 NClLst=     1 CellRange=     0.0.
 One-electron integrals computed using PRISM.
 NBasis=    72 RedAO= T EigKep=  2.98D-02  NBF=    72
 NBsUse=    72 1.00D-06 EigRej= -1.00D+00 NBFU=    72
 Leave Link  302 at Fri May 15 22:36:04 2020, MaxMem=   134217728 cpu:               0.5 elap:               0.1
 (Enter /home/soft/g16/l303.exe)
 DipDrv:  MaxL=1.
 Leave Link  303 at Fri May 15 22:36:04 2020, MaxMem=   134217728 cpu:               0.1 elap:               0.0
 (Enter /home/soft/g16/l401.exe)
 ExpMin= 1.61D-01 ExpMax= 5.48D+03 ExpMxC= 8.25D+02 IAcc=3 IRadAn=         5 AccDes= 0.00D+00
 Harris functional with IExCor=  205 and IRadAn=       5 diagonalized for initial guess.
 HarFok:  IExCor=  205 AccDes= 0.00D+00 IRadAn=         5 IDoV= 1 UseB2=F ITyADJ=14
 ICtDFT=  3500011 ScaDFX=  1.000000  1.000000  1.000000  1.000000
 FoFCou: FMM=F IPFlag=           0 FMFlag=      100000 FMFlg1=           0
         NFxFlg=           0 DoJE=T BraDBF=F KetDBF=T FulRan=T
         wScrn=  0.000000 ICntrl=       500 IOpCl=  0 I1Cent=   200000004 NGrid=           0
         NMat0=    1 NMatS0=      1 NMatT0=    0 NMatD0=    1 NMtDS0=    0 NMtDT0=    0
 Symmetry not used in FoFCou.
 Harris En= -242.436329077095    
 JPrj=0 DoOrth=F DoCkMO=F.
 Leave Link  401 at Fri May 15 22:36:04 2020, MaxMem=   134217728 cpu:               1.4 elap:               0.4
 (Enter /home/soft/g16/l502.exe)
 Keep R1 ints in memory in canonical form, NReq=4309107.
 FoFCou: FMM=F IPFlag=           0 FMFlag=           0 FMFlg1=           0
         NFxFlg=           0 DoJE=F BraDBF=F KetDBF=F FulRan=T
         wScrn=  0.000000 ICntrl=       600 IOpCl=  0 I1Cent=           0 NGrid=           0
         NMat0=    1 NMatS0=   2628 NMatT0=    0 NMatD0=    1 NMtDS0=    0 NMtDT0=    0
 Symmetry not used in FoFCou.
 Two-electron integral symmetry not used.
 Closed shell SCF:
 Using DIIS extrapolation, IDIIS=  1040.
 NGot=   134217728 LenX=   130750732 LenY=   130744666
 Requested convergence on RMS density matrix=1.00D-08 within 128 cycles.
 Requested convergence on MAX density matrix=1.00D-06.
 Requested convergence on             energy=1.00D-06.
 No special actions if energy rises.

 Cycle   1  Pass 1  IDiag  1:
 E= -241.924099684561    
 DIIS: error= 4.81D-02 at cycle   1 NSaved=   1.
 NSaved= 1 IEnMin= 1 EnMin= -241.924099684561     IErMin= 1 ErrMin= 4.81D-02
 ErrMax= 4.81D-02  0.00D+00 EMaxC= 1.00D-01 BMatC= 3.48D-01 BMatP= 3.48D-01
 IDIUse=3 WtCom= 5.19D-01 WtEn= 4.81D-01
 Coeff-Com:  0.100D+01
 Coeff-En:   0.100D+01
 Coeff:      0.100D+01
 Gap=     0.662 Goal=   None    Shift=    0.000
 GapD=    0.662 DampG=2.000 DampE=0.500 DampFc=1.0000 IDamp=-1.
 RMSDP=6.58D-03 MaxDP=1.27D-01              OVMax= 1.18D-01

 Cycle   2  Pass 1  IDiag  1:
 E= -242.086084216477     Delta-E=       -0.161984531917 Rises=F Damp=F
 DIIS: error= 2.11D-02 at cycle   2 NSaved=   2.
 NSaved= 2 IEnMin= 2 EnMin= -242.086084216477     IErMin= 2 ErrMin= 2.11D-02
 ErrMax= 2.11D-02  0.00D+00 EMaxC= 1.00D-01 BMatC= 1.00D-01 BMatP= 3.48D-01
 IDIUse=3 WtCom= 7.89D-01 WtEn= 2.11D-01
 Coeff-Com:  0.336D+00 0.664D+00
 Coeff-En:   0.544D-01 0.946D+00
 Coeff:      0.277D+00 0.723D+00
 Gap=     0.675 Goal=   None    Shift=    0.000
 RMSDP=2.87D-03 MaxDP=5.10D-02 DE=-1.62D-01 OVMax= 4.36D-02

 Cycle   3  Pass 1  IDiag  1:
 E= -242.153194360926     Delta-E=       -0.067110144449 Rises=F Damp=F
 DIIS: error= 4.13D-03 at cycle   3 NSaved=   3.
 NSaved= 3 IEnMin= 3 EnMin= -242.153194360926     IErMin= 3 ErrMin= 4.13D-03
 ErrMax= 4.13D-03  0.00D+00 EMaxC= 1.00D-01 BMatC= 1.93D-03 BMatP= 1.00D-01
 IDIUse=3 WtCom= 9.59D-01 WtEn= 4.13D-02
 Coeff-Com: -0.317D-01 0.732D-01 0.959D+00
 Coeff-En:   0.000D+00 0.000D+00 0.100D+01
 Coeff:     -0.304D-01 0.702D-01 0.960D+00
 Gap=     0.669 Goal=   None    Shift=    0.000
 RMSDP=3.80D-04 MaxDP=7.15D-03 DE=-6.71D-02 OVMax= 7.75D-03

 Cycle   4  Pass 1  IDiag  1:
 E= -242.154761514798     Delta-E=       -0.001567153872 Rises=F Damp=F
 DIIS: error= 3.39D-04 at cycle   4 NSaved=   4.
 NSaved= 4 IEnMin= 4 EnMin= -242.154761514798     IErMin= 4 ErrMin= 3.39D-04
 ErrMax= 3.39D-04  0.00D+00 EMaxC= 1.00D-01 BMatC= 2.34D-05 BMatP= 1.93D-03
 IDIUse=3 WtCom= 9.97D-01 WtEn= 3.39D-03
 Coeff-Com:  0.440D-02-0.308D-01-0.246D+00 0.127D+01
 Coeff-En:   0.000D+00 0.000D+00 0.000D+00 0.100D+01
 Coeff:      0.439D-02-0.307D-01-0.245D+00 0.127D+01
 Gap=     0.670 Goal=   None    Shift=    0.000
 RMSDP=1.16D-04 MaxDP=1.77D-03 DE=-1.57D-03 OVMax= 2.52D-03

 Cycle   5  Pass 1  IDiag  1:
 E= -242.154808291939     Delta-E=       -0.000046777142 Rises=F Damp=F
 DIIS: error= 1.67D-04 at cycle   5 NSaved=   5.
 NSaved= 5 IEnMin= 5 EnMin= -242.154808291939     IErMin= 5 ErrMin= 1.67D-04
 ErrMax= 1.67D-04  0.00D+00 EMaxC= 1.00D-01 BMatC= 2.82D-06 BMatP= 2.34D-05
 IDIUse=3 WtCom= 9.98D-01 WtEn= 1.67D-03
 Coeff-Com:  0.319D-02-0.131D-01-0.125D+00 0.310D+00 0.825D+00
 Coeff-En:   0.000D+00 0.000D+00 0.000D+00 0.000D+00 0.100D+01
 Coeff:      0.319D-02-0.130D-01-0.125D+00 0.309D+00 0.825D+00
 Gap=     0.671 Goal=   None    Shift=    0.000
 RMSDP=2.62D-05 MaxDP=4.64D-04 DE=-4.68D-05 OVMax= 4.85D-04

 Cycle   6  Pass 1  IDiag  1:
 E= -242.154811774362     Delta-E=       -0.000003482422 Rises=F Damp=F
 DIIS: error= 3.55D-05 at cycle   6 NSaved=   6.
 NSaved= 6 IEnMin= 6 EnMin= -242.154811774362     IErMin= 6 ErrMin= 3.55D-05
 ErrMax= 3.55D-05  0.00D+00 EMaxC= 1.00D-01 BMatC= 1.62D-07 BMatP= 2.82D-06
 IDIUse=1 WtCom= 1.00D+00 WtEn= 0.00D+00
 Coeff-Com: -0.332D-03 0.257D-02 0.222D-01-0.122D+00 0.142D-01 0.108D+01
 Coeff:     -0.332D-03 0.257D-02 0.222D-01-0.122D+00 0.142D-01 0.108D+01
 Gap=     0.671 Goal=   None    Shift=    0.000
 RMSDP=9.47D-06 MaxDP=1.89D-04 DE=-3.48D-06 OVMax= 2.15D-04

 Cycle   7  Pass 1  IDiag  1:
 E= -242.154812060060     Delta-E=       -0.000000285699 Rises=F Damp=F
 DIIS: error= 6.12D-06 at cycle   7 NSaved=   7.
 NSaved= 7 IEnMin= 7 EnMin= -242.154812060060     IErMin= 7 ErrMin= 6.12D-06
 ErrMax= 6.12D-06  0.00D+00 EMaxC= 1.00D-01 BMatC= 4.44D-09 BMatP= 1.62D-07
 IDIUse=1 WtCom= 1.00D+00 WtEn= 0.00D+00
 Coeff-Com: -0.112D-03 0.367D-03 0.387D-02-0.426D-02-0.401D-01-0.953D-01
 Coeff-Com:  0.114D+01
 Coeff:     -0.112D-03 0.367D-03 0.387D-02-0.426D-02-0.401D-01-0.953D-01
 Coeff:      0.114D+01
 Gap=     0.671 Goal=   None    Shift=    0.000
 RMSDP=1.77D-06 MaxDP=2.93D-05 DE=-2.86D-07 OVMax= 3.32D-05

 Cycle   8  Pass 1  IDiag  1:
 E= -242.154812069694     Delta-E=       -0.000000009634 Rises=F Damp=F
 DIIS: error= 1.23D-06 at cycle   8 NSaved=   8.
 NSaved= 8 IEnMin= 8 EnMin= -242.154812069694     IErMin= 8 ErrMin= 1.23D-06
 ErrMax= 1.23D-06  0.00D+00 EMaxC= 1.00D-01 BMatC= 2.18D-10 BMatP= 4.44D-09
 IDIUse=1 WtCom= 1.00D+00 WtEn= 0.00D+00
 Coeff-Com:  0.435D-04-0.199D-03-0.197D-02 0.579D-02 0.119D-01-0.666D-02
 Coeff-Com: -0.347D+00 0.134D+01
 Coeff:      0.435D-04-0.199D-03-0.197D-02 0.579D-02 0.119D-01-0.666D-02
 Coeff:     -0.347D+00 0.134D+01
 Gap=     0.671 Goal=   None    Shift=    0.000
 RMSDP=3.49D-07 MaxDP=5.64D-06 DE=-9.63D-09 OVMax= 7.93D-06

 Cycle   9  Pass 1  IDiag  1:
 E= -242.154812070186     Delta-E=       -0.000000000492 Rises=F Damp=F
 DIIS: error= 2.70D-07 at cycle   9 NSaved=   9.
 NSaved= 9 IEnMin= 9 EnMin= -242.154812070186     IErMin= 9 ErrMin= 2.70D-07
 ErrMax= 2.70D-07  0.00D+00 EMaxC= 1.00D-01 BMatC= 7.88D-12 BMatP= 2.18D-10
 IDIUse=1 WtCom= 1.00D+00 WtEn= 0.00D+00
 Coeff-Com:  0.291D-05-0.835D-05-0.851D-04-0.957D-04 0.139D-02 0.503D-02
 Coeff-Com: -0.377D-01-0.336D-01 0.107D+01
 Coeff:      0.291D-05-0.835D-05-0.851D-04-0.957D-04 0.139D-02 0.503D-02
 Coeff:     -0.377D-01-0.336D-01 0.107D+01
 Gap=     0.671 Goal=   None    Shift=    0.000
 RMSDP=5.77D-08 MaxDP=1.02D-06 DE=-4.92D-10 OVMax= 1.40D-06

 Cycle  10  Pass 1  IDiag  1:
 E= -242.154812070200     Delta-E=       -0.000000000014 Rises=F Damp=F
 DIIS: error= 9.55D-08 at cycle  10 NSaved=  10.
 NSaved=10 IEnMin=10 EnMin= -242.154812070200     IErMin=10 ErrMin= 9.55D-08
 ErrMax= 9.55D-08  0.00D+00 EMaxC= 1.00D-01 BMatC= 1.07D-12 BMatP= 7.88D-12
 IDIUse=1 WtCom= 1.00D+00 WtEn= 0.00D+00
 Coeff-Com: -0.260D-05 0.132D-04 0.130D-03-0.469D-03-0.568D-03 0.164D-02
 Coeff-Com:  0.164D-01-0.102D+00 0.210D+00 0.874D+00
 Coeff:     -0.260D-05 0.132D-04 0.130D-03-0.469D-03-0.568D-03 0.164D-02
 Coeff:      0.164D-01-0.102D+00 0.210D+00 0.874D+00
 Gap=     0.671 Goal=   None    Shift=    0.000
 RMSDP=1.63D-08 MaxDP=3.72D-07 DE=-1.43D-11 OVMax= 3.56D-07

 Cycle  11  Pass 1  IDiag  1:
 E= -242.154812070200     Delta-E=       -0.000000000000 Rises=F Damp=F
 DIIS: error= 2.56D-08 at cycle  11 NSaved=  11.
 NSaved=11 IEnMin=11 EnMin= -242.154812070200     IErMin=11 ErrMin= 2.56D-08
 ErrMax= 2.56D-08  0.00D+00 EMaxC= 1.00D-01 BMatC= 7.66D-14 BMatP= 1.07D-12
 IDIUse=1 WtCom= 1.00D+00 WtEn= 0.00D+00
 Coeff-Com: -0.466D-06 0.178D-05 0.179D-04-0.260D-04-0.176D-03-0.386D-03
 Coeff-Com:  0.482D-02-0.132D-02-0.109D+00 0.424D-01 0.106D+01
 Coeff:     -0.466D-06 0.178D-05 0.179D-04-0.260D-04-0.176D-03-0.386D-03
 Coeff:      0.482D-02-0.132D-02-0.109D+00 0.424D-01 0.106D+01
 Gap=     0.671 Goal=   None    Shift=    0.000
 RMSDP=6.75D-09 MaxDP=9.81D-08 DE=-3.98D-13 OVMax= 1.50D-07

 SCF Done:  E(RHF) =  -242.154812070     A.U. after   11 cycles
            NFock= 11  Conv=0.68D-08     -V/T= 2.0633
 KE= 2.277376247666D+02 PE=-7.079900481148D+02 EE= 1.694300881385D+02
 Leave Link  502 at Fri May 15 22:36:04 2020, MaxMem=   134217728 cpu:               0.8 elap:               0.2
 (Enter /home/soft/g16/l601.exe)
 Copying SCF densities to generalized density rwf, IOpCl= 0 IROHF=0.

 **********************************************************************

            Population analysis using the SCF density.

 **********************************************************************

 Alpha  occ. eigenvalues --  -20.55850 -20.53385 -20.50543  -1.34550  -1.31892
 Alpha  occ. eigenvalues --   -1.29124  -0.71088  -0.68528  -0.65638  -0.58456
 Alpha  occ. eigenvalues --   -0.55547  -0.53565  -0.49298  -0.46871  -0.45278
 Alpha virt. eigenvalues --    0.21838   0.28676   0.34603   0.37446   0.41050
 Alpha virt. eigenvalues --    0.47242   0.99115   1.03852   1.04184   1.09989
 Alpha virt. eigenvalues --    1.11463   1.14062   1.16287   1.19331   1.22799
 Alpha virt. eigenvalues --    1.23713   1.29949   1.34421   1.37198   1.40842
 Alpha virt. eigenvalues --    1.46747   1.63052   1.68267   1.73436   1.80534
 Alpha virt. eigenvalues --    1.81699   1.84916   1.87010   1.90530   1.92799
 Alpha virt. eigenvalues --    1.96800   1.99293   2.04843   2.57187   2.59049
 Alpha virt. eigenvalues --    2.61009   2.62219   2.68059   2.68390   2.81506
 Alpha virt. eigenvalues --    2.85385   2.89062   2.97453   3.01018   3.02971
 Alpha virt. eigenvalues --    3.04551   3.05630   3.09331   3.39310   3.41114
 Alpha virt. eigenvalues --    3.49157   3.77607   3.79031   3.84482   3.97738
 Alpha virt. eigenvalues --    3.99042   4.08419
          Condensed to atoms (all electrons):
               1          2          3          4          5          6
     1  O    8.113203  -0.010347  -0.004748   0.311570   0.312898   0.000333
     2  O   -0.010347   8.195754  -0.012330   0.000947   0.000719   0.319561
     3  O   -0.004748  -0.012330   8.103608   0.012435   0.000240   0.021993
     4  H    0.311570   0.000947   0.012435   0.316079  -0.019955   0.000016
     5  H    0.312898   0.000719   0.000240  -0.019955   0.318566   0.000062
     6  H    0.000333   0.319561   0.021993   0.000016   0.000062   0.307239
     7  H    0.030435   0.315219   0.000334  -0.002399  -0.001579  -0.031402
     8  H    0.000298   0.000544   0.304383  -0.000772  -0.000006  -0.000564
     9  H    0.000230   0.001233   0.309905  -0.000334  -0.000012  -0.001566
               7          8          9
     1  O    0.030435   0.000298   0.000230
     2  O    0.315219   0.000544   0.001233
     3  O    0.000334   0.304383   0.309905
     4  H   -0.002399  -0.000772  -0.000334
     5  H   -0.001579  -0.000006  -0.000012
     6  H   -0.031402  -0.000564  -0.001566
     7  H    0.313559   0.000010   0.000138
     8  H    0.000010   0.376634  -0.016902
     9  H    0.000138  -0.016902   0.274185
 Mulliken charges:
               1
     1  O   -0.753871
     2  O   -0.811299
     3  O   -0.735819
     4  H    0.382412
     5  H    0.389068
     6  H    0.384327
     7  H    0.375685
     8  H    0.336375
     9  H    0.433123
 Sum of Mulliken charges =  -0.00000
 Mulliken charges with hydrogens summed into heavy atoms:
               1
     1  O    0.017609
     2  O   -0.051287
     3  O    0.033679
 Electronic spatial extent (au):  <R**2>=          40671.2786
 Charge=             -0.0000 electrons
 Dipole moment (field-independent basis, Debye):
    X=             -1.5293    Y=             -3.8827    Z=             -3.8684  Tot=              5.6902
 Quadrupole moment (field-independent basis, Debye-Ang):
   XX=            -50.9493   YY=             58.9369   ZZ=            100.1742
   XY=            -18.7086   XZ=            -14.7212   YZ=             92.8172
 Traceless Quadrupole moment (field-independent basis, Debye-Ang):
   XX=            -87.0032   YY=             22.8829   ZZ=             64.1203
   XY=            -18.7086   XZ=            -14.7212   YZ=             92.8172
 Octapole moment (field-independent basis, Debye-Ang**2):
  XXX=           -983.8234  YYY=           -603.0666  ZZZ=          -1943.9240  XYY=            366.4337
  XXY=            204.3636  XXZ=            371.2749  XZZ=            642.8530  YZZ=          -1764.6930
  YYZ=          -1205.4339  XYZ=            627.6639
 Hexadecapole moment (field-independent basis, Debye-Ang**3):
 XXXX=         -15321.1447 YYYY=           4254.1229 ZZZZ=          33425.5841 XXXY=           7030.1641
 XXXZ=          10512.9510 YYYX=          -3862.3870 YYYZ=          12159.4069 ZZZX=         -14233.9719
 ZZZY=          30292.6291 XXYY=           -406.8030 XXZZ=          -1046.4034 YYZZ=          21523.2895
 XXYZ=            640.3375 YYXZ=          -8816.7723 ZZXY=         -13291.4994
 N-N= 6.866752313953D+01 E-N=-7.079900478947D+02  KE= 2.277376247666D+02
 No NMR shielding tensors so no spin-rotation constants.
 Leave Link  601 at Fri May 15 22:36:05 2020, MaxMem=   134217728 cpu:               0.4 elap:               0.1
 (Enter /home/soft/g16/l607.exe)
 ******************************Gaussian NBO Version 3.1******************************
             N A T U R A L   A T O M I C   O R B I T A L   A N D
          N A T U R A L   B O N D   O R B I T A L   A N A L Y S I S
 ******************************Gaussian NBO Version 3.1******************************
       /RESON  / : Allow strongly delocalized NBO set

 Analyzing the SCF density

 Job title: Atom number=9                                                   

 Storage needed:     15894 in NPA ( 134217269 available)
 GSVD:  LWork=        2304 too small for GESVD, short by        3132 words or        3132 for optimal perf.


 NATURAL POPULATIONS:  Natural atomic orbital occupancies 
                                                          
   NAO  Atom  No  lang   Type(AO)    Occupancy      Energy
 ----------------------------------------------------------
     1    O    1  S      Cor( 1S)     1.99986     -20.36668
     2    O    1  S      Val( 2S)     1.75465      -1.14187
     3    O    1  S      Ryd( 3S)     0.00087       1.80018
     4    O    1  px     Val( 2p)     1.97243      -0.46391
     5    O    1  px     Ryd( 3p)     0.00080       1.31189
     6    O    1  py     Val( 2p)     1.74557      -0.40148
     7    O    1  py     Ryd( 3p)     0.00034       1.24246
     8    O    1  pz     Val( 2p)     1.55241      -0.33186
     9    O    1  pz     Ryd( 3p)     0.00163       1.32101
    10    O    1  dxy    Ryd( 3d)     0.00145       2.27029
    11    O    1  dxz    Ryd( 3d)     0.00013       2.33565
    12    O    1  dyz    Ryd( 3d)     0.00171       3.04115
    13    O    1  dx2y2  Ryd( 3d)     0.00185       2.52347
    14    O    1  dz2    Ryd( 3d)     0.00051       2.75230

    15    O    2  S      Cor( 1S)     1.99984     -20.32772
    16    O    2  S      Val( 2S)     1.73966      -1.11520
    17    O    2  S      Ryd( 3S)     0.00055       1.91398
    18    O    2  px     Val( 2p)     1.76128      -0.39127
    19    O    2  px     Ryd( 3p)     0.00069       1.26418
    20    O    2  py     Val( 2p)     1.96918      -0.44080
    21    O    2  py     Ryd( 3p)     0.00052       1.21962
    22    O    2  pz     Val( 2p)     1.58241      -0.31610
    23    O    2  pz     Ryd( 3p)     0.00179       1.40731
    24    O    2  dxy    Ryd( 3d)     0.00128       2.30940
    25    O    2  dxz    Ryd( 3d)     0.00117       2.92174
    26    O    2  dyz    Ryd( 3d)     0.00042       2.46709
    27    O    2  dx2y2  Ryd( 3d)     0.00147       2.59198
    28    O    2  dz2    Ryd( 3d)     0.00059       2.79725

    29    O    3  S      Cor( 1S)     1.99986     -20.39524
    30    O    3  S      Val( 2S)     1.75716      -1.16544
    31    O    3  S      Ryd( 3S)     0.00108       1.70909
    32    O    3  px     Val( 2p)     1.70552      -0.40947
    33    O    3  px     Ryd( 3p)     0.00116       1.33291
    34    O    3  py     Val( 2p)     1.87916      -0.45760
    35    O    3  py     Ryd( 3p)     0.00095       1.24504
    36    O    3  pz     Val( 2p)     1.67713      -0.39883
    37    O    3  pz     Ryd( 3p)     0.00064       1.35993
    38    O    3  dxy    Ryd( 3d)     0.00075       2.64079
    39    O    3  dxz    Ryd( 3d)     0.00132       2.57562
    40    O    3  dyz    Ryd( 3d)     0.00130       2.39527
    41    O    3  dx2y2  Ryd( 3d)     0.00045       2.38873
    42    O    3  dz2    Ryd( 3d)     0.00187       2.84919

    43    H    4  S      Val( 1S)     0.47369       0.39747
    44    H    4  S      Ryd( 2S)     0.00059       0.85280
    45    H    4  px     Ryd( 2p)     0.00079       2.68845
    46    H    4  py     Ryd( 2p)     0.00075       2.79658
    47    H    4  pz     Ryd( 2p)     0.00141       3.33561

    48    H    5  S      Val( 1S)     0.47489       0.40282
    49    H    5  S      Ryd( 2S)     0.00060       0.80317
    50    H    5  px     Ryd( 2p)     0.00088       2.65010
    51    H    5  py     Ryd( 2p)     0.00147       3.16478
    52    H    5  pz     Ryd( 2p)     0.00082       2.96131

    53    H    6  S      Val( 1S)     0.47939       0.41397
    54    H    6  S      Ryd( 2S)     0.00114       0.88136
    55    H    6  px     Ryd( 2p)     0.00062       2.79767
    56    H    6  py     Ryd( 2p)     0.00089       2.72269
    57    H    6  pz     Ryd( 2p)     0.00135       3.38716

    58    H    7  S      Val( 1S)     0.47811       0.41282
    59    H    7  S      Ryd( 2S)     0.00188       0.87100
    60    H    7  px     Ryd( 2p)     0.00153       3.26640
    61    H    7  py     Ryd( 2p)     0.00079       2.65781
    62    H    7  pz     Ryd( 2p)     0.00060       2.94753

    63    H    8  S      Val( 1S)     0.51038       0.32238
    64    H    8  S      Ryd( 2S)     0.00097       0.71937
    65    H    8  px     Ryd( 2p)     0.00071       2.75725
    66    H    8  py     Ryd( 2p)     0.00092       2.66292
    67    H    8  pz     Ryd( 2p)     0.00148       3.26082

    68    H    9  S      Val( 1S)     0.43626       0.43688
    69    H    9  S      Ryd( 2S)     0.00052       0.83332
    70    H    9  px     Ryd( 2p)     0.00157       3.22900
    71    H    9  py     Ryd( 2p)     0.00107       2.84534
    72    H    9  pz     Ryd( 2p)     0.00053       2.72806


 Summary of Natural Population Analysis:                  
                                                          
                                       Natural Population 
                Natural  -----------------------------------------------
    Atom  No    Charge         Core      Valence    Rydberg      Total
 -----------------------------------------------------------------------
      O    1   -1.03421      1.99986     7.02506    0.00930     9.03421
      O    2   -1.06084      1.99984     7.05253    0.00848     9.06084
      O    3   -1.02835      1.99986     7.01896    0.00953     9.02835
      H    4    0.52278      0.00000     0.47369    0.00354     0.47722
      H    5    0.52135      0.00000     0.47489    0.00376     0.47865
      H    6    0.51661      0.00000     0.47939    0.00400     0.48339
      H    7    0.51708      0.00000     0.47811    0.00481     0.48292
      H    8    0.48553      0.00000     0.51038    0.00409     0.51447
      H    9    0.56005      0.00000     0.43626    0.00369     0.43995
 =======================================================================
   * Total *   -0.00000      5.99956    23.94925    0.05118    30.00000

                                 Natural Population      
 --------------------------------------------------------
   Core                       5.99956 ( 99.9927% of   6)
   Valence                   23.94925 ( 99.7886% of  24)
   Natural Minimal Basis     29.94882 ( 99.8294% of  30)
   Natural Rydberg Basis      0.05118 (  0.1706% of  30)
 --------------------------------------------------------

    Atom  No          Natural Electron Configuration
 ----------------------------------------------------------------------------
      O    1      [core]2S( 1.75)2p( 5.27)3d( 0.01)
      O    2      [core]2S( 1.74)2p( 5.31)
      O    3      [core]2S( 1.76)2p( 5.26)3d( 0.01)
      H    4            1S( 0.47)
      H    5            1S( 0.47)
      H    6            1S( 0.48)
      H    7            1S( 0.48)
      H    8            1S( 0.51)
      H    9            1S( 0.44)


 NBO analysis skipped by request.
 Leave Link  607 at Fri May 15 22:36:05 2020, MaxMem=   134217728 cpu:               0.6 elap:               0.2
 (Enter /home/soft/g16/l9999.exe)

 Test job not archived.
 1\1\GINC-MASTER\SP\RHF\6-31G(d,p)\H6O3\LIWEI01\15-May-2020\0\\#p hf/6-
 31g** 5d 7f pop=npa charge nosymm\\Atom number=9\\0,1\O,0,7.250284,-9.
 859627,-13.103456\O,0,10.084912,-9.602997,-13.69441\O,0,8.451586,-10.6
 35579,-15.685931\H,0,7.12066,-10.221473,-13.980096\H,0,7.341484,-10.62
 6744,-12.538261\H,0,9.837963,-9.877914,-14.577398\H,0,9.267108,-9.6283
 7,-13.197635\H,0,8.125035,-10.406856,-16.556152\H,0,9.262189,-11.11660
 8,-15.852568\\Version=ES64L-G16RevA.03\HF=-242.1548121\RMSD=6.752e-09\
 Dipole=-0.6016699,-1.5275572,-1.5219552\Quadrupole=-64.6847449,17.0129
 1,47.671835,-13.9094102,-10.9448847,69.0073181\PG=C01 [X(H6O3)]\\@


 THOSE WHO ASPIRE NOT TO GUESS AND DIVINE,
 BUT TO DISCOVER AND KNOW, WHO PROPOSE NOT TO DEVISE 
 MIMIC AND FABULOUS WORLDS OF THEIR OWN, BUT TO 
 EXAMINE AND DISSECT THE NATURE OF THIS VERY WORLD 
 ITSELF, MUST GO TO THE FACTS THEMSELVES FOR EVERYTHING.

                               -- FRANCIS BACON, 1620
 Job cpu time:       0 days  0 hours  0 minutes  4.9 seconds.
 Elapsed time:       0 days  0 hours  0 minutes  1.4 seconds.
 File lengths (MBytes):  RWF=     72 Int=      0 D2E=      0 Chk=      8 Scr=      8
 Normal termination of Gaussian 16 at Fri May 15 22:36:05 2020.
