#INFO: **** input file is /home/liwei01/wsr/dftpart/test_2body/w32/gfea_c8.py ****
from dftpart import gfea3
from pyscf import lib

par = 8
with lib.with_omp_threads(par):
    fr0 = gfea3.GFEA()
    fr0.inputstyle = 'frg'
    fr0.method = ['hf', '6-31gss','charge']
    fr0.gjfname = 'w32'
    fr0.output = 'w32'
    fr0.verbose = 9
    fr0.showinter = True
    #fr0.do_deriv = True
    fr0.kernel()

#INFO: ******************** input file end ********************


System: uname_result(system='Linux', node='master', release='3.10.0-693.el7.x86_64', version='#1 SMP Tue Aug 22 21:09:27 UTC 2017', machine='x86_64', processor='x86_64')  Threads 8
Python 3.7.6 (default, Jan  8 2020, 19:59:22) 
[GCC 7.3.0]
numpy 1.18.1  scipy 1.4.1
Date: Tue Jun 16 20:58:17 2020
PySCF version 1.6.1
PySCF path  /home/liwei01/zcheng/pyscf/pyscf
GIT HEAD      ref: refs/heads/master
GIT master branch  3adc7fd25839fe674469a52b764c3661e32d7318

[CONFIG] DEBUG = False
[CONFIG] MAX_MEMORY = 4000
[CONFIG] TMPDIR = .
[CONFIG] UNIT = angstrom
[CONFIG] VERBOSE = 3
[CONFIG] conf_file = None
[INPUT] verbose = 9
[INPUT] max_memory = 4000 
[INPUT] num. atoms = 12
[INPUT] num. electrons = 40
[INPUT] charge = 0
[INPUT] spin (= nelec alpha-beta = 2S) = 0
[INPUT] symmetry False subgroup None
[INPUT] Mole.unit = angstrom
[INPUT]  1 O     13.457564000000 -11.773284000000  -9.774029000000 AA   25.431110263806 -22.248282346724 -18.470237943557 Bohr
[INPUT]  2 O     12.996031000000 -14.713850000000 -11.210036000000 AA   24.558939296357 -27.805146737932 -21.183897886515 Bohr
[INPUT]  3 O     11.471495000000 -15.355316000000  -7.518016000000 AA   21.677983789317 -29.017341796152 -14.206991240098 Bohr
[INPUT]  4 O     11.324452000000 -17.011592000000 -10.762770000000 AA   21.400112790783 -32.147249822842 -20.338687641685 Bohr
[INPUT]  5 H     13.908886000000 -10.996207000000 -10.103715000000 AA   26.283985237797 -20.779819639025 -19.093254190660 Bohr
[INPUT]  6 H     14.150775000000 -12.423635000000  -9.661183000000 AA   26.741089200342 -23.477267621561 -18.256989909304 Bohr
[INPUT]  7 H     12.286420000000 -15.161884000000 -10.749655000000 AA   23.217968851379 -28.651808292425 -20.313903883561 Bohr
[INPUT]  8 H     13.635659000000 -14.512360000000 -10.527021000000 AA   25.767661037961 -27.424385821093 -19.893186597545 Bohr
[INPUT]  9 H     10.864403000000 -15.355750000000  -8.258065000000 AA   20.530746176903 -29.018161937290 -15.605481168856 Bohr
[INPUT] 10 H     11.907538000000 -14.504542000000  -7.565812000000 AA   22.501985637851 -27.409611942251 -14.297312589948 Bohr
[INPUT] 11 H     11.716545000000 -17.863306000000 -10.570212000000 AA   22.141061176142 -33.756756019300 -19.974805758591 Bohr
[INPUT] 12 H     10.442780000000 -17.064361000000 -10.393850000000 AA   19.733994179086 -32.246968780709 -19.641529879811 Bohr
[INPUT] ---------------- BASIS SET ---------------- 
[INPUT] l, kappa, [nprim/nctr], expnt,             c_1 c_2 ...
[INPUT] H
[INPUT] 0    0    [3    /1   ]  18.731137         0.0334946
                                2.8253937         0.23472695
                                0.6401217         0.81375733
[INPUT] 0    0    [1    /1   ]  0.1612778            1
[INPUT] 1    0    [1    /1   ]  1.1                  1
[INPUT] O
[INPUT] 0    0    [6    /1   ]  5484.6717         0.0018311
                                825.23495         0.0139501
                                188.04696         0.0684451
                                52.9645           0.2327143
                                16.89757          0.470193
                                5.7996353         0.3585209
[INPUT] 0    0    [3    /1   ]  15.539616         -0.1107775
                                3.5999336         -0.1480263
                                1.0137618         1.130767
[INPUT] 0    0    [1    /1   ]  0.2700058            1
[INPUT] 1    0    [3    /1   ]  15.539616         0.0708743
                                3.5999336         0.3397528
                                1.0137618         0.7271586
[INPUT] 1    0    [1    /1   ]  0.2700058            1
[INPUT] 2    0    [1    /1   ]  0.8                  1

nuclear repulsion = 119.518517407614
number of shells = 48
number of NR pGTOs = 164
number of NR cGTOs = 96
basis = 6-31gss
ecp = {}
bas 0, expnt(s) = [5484.6717     825.23495    188.04696     52.9645      16.89757
    5.7996353]
bas 1, expnt(s) = [15.539616   3.5999336  1.0137618]
bas 2, expnt(s) = [0.2700058]
bas 3, expnt(s) = [15.539616   3.5999336  1.0137618]
bas 4, expnt(s) = [0.2700058]
bas 5, expnt(s) = [0.8]
bas 6, expnt(s) = [5484.6717     825.23495    188.04696     52.9645      16.89757
    5.7996353]
bas 7, expnt(s) = [15.539616   3.5999336  1.0137618]
bas 8, expnt(s) = [0.2700058]
bas 9, expnt(s) = [15.539616   3.5999336  1.0137618]
bas 10, expnt(s) = [0.2700058]
bas 11, expnt(s) = [0.8]
bas 12, expnt(s) = [5484.6717     825.23495    188.04696     52.9645      16.89757
    5.7996353]
bas 13, expnt(s) = [15.539616   3.5999336  1.0137618]
bas 14, expnt(s) = [0.2700058]
bas 15, expnt(s) = [15.539616   3.5999336  1.0137618]
bas 16, expnt(s) = [0.2700058]
bas 17, expnt(s) = [0.8]
bas 18, expnt(s) = [5484.6717     825.23495    188.04696     52.9645      16.89757
    5.7996353]
bas 19, expnt(s) = [15.539616   3.5999336  1.0137618]
bas 20, expnt(s) = [0.2700058]
bas 21, expnt(s) = [15.539616   3.5999336  1.0137618]
bas 22, expnt(s) = [0.2700058]
bas 23, expnt(s) = [0.8]
bas 24, expnt(s) = [18.731137   2.8253937  0.6401217]
bas 25, expnt(s) = [0.1612778]
bas 26, expnt(s) = [1.1]
bas 27, expnt(s) = [18.731137   2.8253937  0.6401217]
bas 28, expnt(s) = [0.1612778]
bas 29, expnt(s) = [1.1]
bas 30, expnt(s) = [18.731137   2.8253937  0.6401217]
bas 31, expnt(s) = [0.1612778]
bas 32, expnt(s) = [1.1]
bas 33, expnt(s) = [18.731137   2.8253937  0.6401217]
bas 34, expnt(s) = [0.1612778]
bas 35, expnt(s) = [1.1]
bas 36, expnt(s) = [18.731137   2.8253937  0.6401217]
bas 37, expnt(s) = [0.1612778]
bas 38, expnt(s) = [1.1]
bas 39, expnt(s) = [18.731137   2.8253937  0.6401217]
bas 40, expnt(s) = [0.1612778]
bas 41, expnt(s) = [1.1]
bas 42, expnt(s) = [18.731137   2.8253937  0.6401217]
bas 43, expnt(s) = [0.1612778]
bas 44, expnt(s) = [1.1]
bas 45, expnt(s) = [18.731137   2.8253937  0.6401217]
bas 46, expnt(s) = [0.1612778]
bas 47, expnt(s) = [1.1]
CPU time:       795.28
arg.atm = [[ 8 20  1 23  0  0]
 [ 8 24  1 27  0  0]
 [ 8 28  1 31  0  0]
 [ 8 32  1 35  0  0]
 [ 1 36  1 39  0  0]
 [ 1 40  1 43  0  0]
 [ 1 44  1 47  0  0]
 [ 1 48  1 51  0  0]
 [ 1 52  1 55  0  0]
 [ 1 56  1 59  0  0]
 [ 1 60  1 63  0  0]
 [ 1 64  1 67  0  0]]
arg.bas = [[  0   0   6   1   0  78  84   0]
 [  0   0   3   1   0  90  93   0]
 [  0   0   1   1   0  96  97   0]
 [  0   1   3   1   0  98 101   0]
 [  0   1   1   1   0 104 105   0]
 [  0   2   1   1   0 106 107   0]
 [  1   0   6   1   0  78  84   0]
 [  1   0   3   1   0  90  93   0]
 [  1   0   1   1   0  96  97   0]
 [  1   1   3   1   0  98 101   0]
 [  1   1   1   1   0 104 105   0]
 [  1   2   1   1   0 106 107   0]
 [  2   0   6   1   0  78  84   0]
 [  2   0   3   1   0  90  93   0]
 [  2   0   1   1   0  96  97   0]
 [  2   1   3   1   0  98 101   0]
 [  2   1   1   1   0 104 105   0]
 [  2   2   1   1   0 106 107   0]
 [  3   0   6   1   0  78  84   0]
 [  3   0   3   1   0  90  93   0]
 [  3   0   1   1   0  96  97   0]
 [  3   1   3   1   0  98 101   0]
 [  3   1   1   1   0 104 105   0]
 [  3   2   1   1   0 106 107   0]
 [  4   0   3   1   0  68  71   0]
 [  4   0   1   1   0  74  75   0]
 [  4   1   1   1   0  76  77   0]
 [  5   0   3   1   0  68  71   0]
 [  5   0   1   1   0  74  75   0]
 [  5   1   1   1   0  76  77   0]
 [  6   0   3   1   0  68  71   0]
 [  6   0   1   1   0  74  75   0]
 [  6   1   1   1   0  76  77   0]
 [  7   0   3   1   0  68  71   0]
 [  7   0   1   1   0  74  75   0]
 [  7   1   1   1   0  76  77   0]
 [  8   0   3   1   0  68  71   0]
 [  8   0   1   1   0  74  75   0]
 [  8   1   1   1   0  76  77   0]
 [  9   0   3   1   0  68  71   0]
 [  9   0   1   1   0  74  75   0]
 [  9   1   1   1   0  76  77   0]
 [ 10   0   3   1   0  68  71   0]
 [ 10   0   1   1   0  74  75   0]
 [ 10   1   1   1   0  76  77   0]
 [ 11   0   3   1   0  68  71   0]
 [ 11   0   1   1   0  74  75   0]
 [ 11   1   1   1   0  76  77   0]]
arg.env = [ 1.37036000e+02  0.00000000e+00  0.00000000e+00  0.00000000e+00
  0.00000000e+00  0.00000000e+00  0.00000000e+00  0.00000000e+00
  0.00000000e+00  0.00000000e+00  0.00000000e+00  0.00000000e+00
  0.00000000e+00  0.00000000e+00  0.00000000e+00  0.00000000e+00
  0.00000000e+00  0.00000000e+00  0.00000000e+00  0.00000000e+00
  2.54311103e+01 -2.22482823e+01 -1.84702379e+01  0.00000000e+00
  2.45589393e+01 -2.78051467e+01 -2.11838979e+01  0.00000000e+00
  2.16779838e+01 -2.90173418e+01 -1.42069912e+01  0.00000000e+00
  2.14001128e+01 -3.21472498e+01 -2.03386876e+01  0.00000000e+00
  2.62839852e+01 -2.07798196e+01 -1.90932542e+01  0.00000000e+00
  2.67410892e+01 -2.34772676e+01 -1.82569899e+01  0.00000000e+00
  2.32179689e+01 -2.86518083e+01 -2.03139039e+01  0.00000000e+00
  2.57676610e+01 -2.74243858e+01 -1.98931866e+01  0.00000000e+00
  2.05307462e+01 -2.90181619e+01 -1.56054812e+01  0.00000000e+00
  2.25019856e+01 -2.74096119e+01 -1.42973126e+01  0.00000000e+00
  2.21410612e+01 -3.37567560e+01 -1.99748058e+01  0.00000000e+00
  1.97339942e+01 -3.22469688e+01 -1.96415299e+01  0.00000000e+00
  1.87311370e+01  2.82539370e+00  6.40121700e-01  7.61926220e-01
  1.29237100e+00  1.47131900e+00  1.61277800e-01  6.42977783e-01
  1.10000000e+00  3.28643653e+00  5.48467170e+03  8.25234950e+02
  1.88046960e+02  5.29645000e+01  1.68975700e+01  5.79963530e+00
  2.94842455e+00  5.42657124e+00  8.78126489e+00  1.15432129e+01
  9.90055015e+00  3.38516599e+00  1.55396160e+01  3.59993360e+00
  1.01376180e+00 -2.19051792e+00 -9.77405528e-01  2.88629094e+00
  2.70005800e-01  9.46334873e-01  1.55396160e+01  3.59993360e+00
  1.01376180e+00  6.37930734e+00  4.91490975e+00  2.15791055e+00
  2.70005800e-01  5.67807022e-01  8.00000000e-01  1.76578110e+00]
ecpbas  = []


******** <class 'pyscf.qmmm.itrf.mm_charge.<locals>.QMMM'> ********
method = QMMM-RHF
initial guess = minao
damping factor = 0
level shift factor = 0
DIIS = <class 'pyscf.scf.diis.CDIIS'>
DIIS start cycle = 1
DIIS space = 8
SCF tol = 1e-09
SCF gradient tol = None
max. SCF cycles = 50
direct_scf = True
direct_scf_tol = 1e-13
chkfile to save SCF result = /home/liwei01/wsr/dftpart/test_2body/w32/tmpjfbtpz84
max_memory 4000 MB (current use 332 MB)
** Add background charges for <class 'pyscf.scf.hf.RHF'> **
Charge      Location
-1.056075    [ 15.8591958  -22.32322322 -21.16584533]
0.523264    [ 15.44903263 -23.69303655 -20.05800473]
0.517699    [ 17.48403712 -21.75849557 -20.60647128]
-1.035697    [ 20.23144001 -20.50137794 -19.07019386]
0.520608    [ 21.7723038  -21.39222885 -18.74761761]
0.515624    [ 19.97024207 -19.49608333 -17.58928542]
-1.009926    [ 16.42785407 -26.58707085 -18.04142885]
0.499922    [ 15.53371882 -25.95112132 -16.60336995]
0.507893    [ 16.16245338 -28.37548309 -17.98600129]
-1.024266    [ 13.70105109 -18.63199472 -24.76194313]
0.515186    [ 13.45609723 -19.31578456 -26.41855264]
0.515422    [ 13.87339411 -20.08163576 -23.69387937]
-1.050024    [ 10.52651529 -24.11298283 -20.2839555 ]
0.521386    [  8.7734466  -24.2410798  -19.85703047]
0.506414    [ 11.30765248 -23.44237383 -18.79666545]
-1.032359    [ 13.1641969  -17.47579981 -19.41562257]
0.514165    [ 13.18112696 -18.60438393 -20.82910748]
0.518479    [ 14.52136419 -16.32434621 -19.73837456]
-1.052762    [ 13.11969196 -22.35429031 -15.81898054]
0.521035    [ 14.16458201 -22.84877684 -14.42771692]
0.525545    [ 13.80909996 -20.77345693 -16.36451423]
-1.002885    [ 18.40539199 -27.51482622 -24.72543362]
0.521542    [ 17.83274639 -26.30664305 -23.50711585]
0.49877    [ 20.13069872 -27.06649815 -25.03241585]
-1.054902    [ 19.05772167 -18.14703431 -25.87868434]
0.517977    [ 18.59105569 -18.66655214 -27.54728983]
0.522623    [ 17.51229609 -18.19498233 -24.93991564]
-0.997115    [ 17.90283445 -15.11249509 -20.63210731]
0.530073    [ 18.89257472 -16.62132612 -20.50652934]
0.49195    [ 18.18557149 -14.25298717 -19.06582671]
-1.032188    [ 15.97118286 -20.09833149 -29.6421136 ]
0.47982    [ 15.3540909  -19.66610766 -31.28659296]
0.534069    [ 17.50300052 -21.00734455 -29.95701189]
-0.992133    [  7.63287216 -21.21078113 -24.19682809]
0.480184    [  8.55071592 -22.76668147 -24.10379498]
0.504586    [  8.37549106 -20.32880248 -25.59058803]
-1.012936    [ 10.55365553 -29.46492154 -21.67488842]
0.504954    [  8.84108934 -29.00412127 -22.03084479]
0.525721    [ 11.34418277 -27.91794449 -21.17105153]
-0.985176    [ 16.63195772 -23.48150439 -12.27810621]
0.500614    [ 17.11266814 -22.20236011 -11.09293235]
0.508291    [ 16.89319913 -25.03868407 -11.39557387]
-0.979947    [ 19.94097588 -17.12125506 -14.67509908]
0.500341    [ 18.95312155 -17.86288753 -13.35371942]
0.493696    [ 19.00620207 -15.6543646  -15.17143564]
-0.982261    [ 16.04742575 -26.75780005 -29.6895325 ]
0.479882    [ 16.71262824 -28.42851069 -29.88488293]
0.495008    [ 16.8532352  -26.12000803 -28.20097066]
-0.983713    [ 20.17321188 -22.53529584 -29.89394228]
0.505479    [ 21.06170253 -23.16751127 -28.4507471 ]
0.512532    [ 20.35114661 -23.83370776 -31.14069287]
-1.011239    [ 14.66303696 -31.18986921 -25.03135193]
0.492592    [ 13.80996545 -30.6346091  -23.53606456]
0.497341    [ 16.13314373 -30.14067248 -25.13086491]
-1.016163    [ 10.56617686 -29.35403808 -16.44102735]
0.483053    [ 11.92280935 -30.36927076 -15.8079521 ]
0.523726    [ 10.34862781 -29.90290525 -18.15080431]
-0.976012    [ 10.09067452 -21.18806662 -29.24260093]
0.486289    [ 11.11173701 -19.76402949 -29.69146191]
0.496485    [ 10.37375928 -22.38512875 -30.56881072]
-0.989717    [  8.77070649 -15.37911655 -23.94499373]
0.487556    [  8.68859978 -13.74216775 -23.17975481]
0.496916    [ 10.53805395 -15.75730555 -24.01835668]
-0.992057    [ 16.93410036 -32.15697813 -17.52810554]
0.50918    [ 16.39069828 -32.53931319 -15.84570882]
0.510293    [ 15.6895513  -32.92540692 -18.59231236]
-0.998393    [ 24.35861321 -18.31258187 -25.98586582]
0.466984    [ 25.48944989 -18.60606579 -24.60492389]
0.51604    [ 22.70911474 -18.4111103  -25.25008395]
-1.010464    [  9.27281806 -14.9477601  -17.25327322]
0.476424    [  7.6789399  -15.16789619 -18.07972415]
0.517552    [ 10.24747455 -16.38576609 -17.75736144]
-0.991473    [  5.5836248  -24.00414405 -18.66237963]
0.501887    [  5.79022289 -25.52045085 -17.69798247]
0.510487    [  5.17491673 -22.73885336 -17.43603619]
-1.029267    [  7.95719829 -25.19119252 -14.2761212 ]
0.497876    [  9.38018663 -24.0850659  -14.1227926 ]
0.519667    [  8.66153702 -26.76190075 -14.83174226]
-1.001943    [ 16.13613705 -11.83176802 -24.46883904]
0.509813    [ 16.78082846 -12.94299123 -23.1954641 ]
0.477312    [ 17.5304658  -11.57071369 -25.59117007]
-0.9959    [ 24.21450458 -24.60133719 -13.9203349 ]
0.499354    [ 23.58737251 -23.46499007 -12.66043371]
0.511038    [ 23.91476757 -23.75039163 -15.48812918]
Set gradient conv threshold to 3.16228e-05
Nelec from initial guess = 39.9498949962241
cond(S) = 112.39421880204247
E1 = -652.8142632661699  E_coul = 228.74744960763064
init E= -303.415147105627
    CPU time for initialize scf      0.95 sec, wall time      0.13 sec
  HOMO = -0.473784523176243  LUMO = 0.0349627803190664
  mo_energy =
[-20.90239604 -20.84136719 -20.81470487 -20.79736647  -1.71218615
  -1.66221828  -1.62948533  -1.61358595  -0.84301577  -0.79314477
  -0.75834925  -0.74561663  -0.69689245  -0.63307151  -0.60016881
  -0.58507762  -0.57363005  -0.51297794  -0.49109342  -0.47378452
   0.03496278   0.0869816    0.13534572   0.15891129   0.20909966
   0.24420123   0.27585603   0.29246547   0.85877346   0.88058896
   0.91160848   0.91736737   0.94421043   0.95199005   0.97926897
   0.98780404   0.99763907   1.0048832    1.03223721   1.04923323
   1.05569548   1.07827422   1.1048888    1.14116418   1.17523059
   1.19664718   1.21356278   1.22605387   1.42368723   1.48070613
   1.50535806   1.59654909   1.63348572   1.64891898   1.68887966
   1.6986409    1.71562007   1.71950974   1.72381138   1.73290307
   1.7621259    1.78427976   1.80891678   1.89354213   2.40127861
   2.46298013   2.4864055    2.48994233   2.49921589   2.53315049
   2.56283901   2.58293046   2.64336061   2.70012636   2.72050665
   2.74284851   2.83231133   2.86475483   2.89104661   2.90711558
   2.91689296   2.92844118   2.94241462   2.95748653   3.23996849
   3.29114332   3.32195178   3.34627602   3.62070169   3.68766401
   3.69989086   3.71959398   3.75718653   3.82704288   3.85778117
   3.87414233]
E1 = -663.1236943144562  E_coul = 238.46779863005517
cycle= 1 E= -304.004229131489  delta_E= -0.589  |g|= 0.898  |ddm|= 2.35
    CPU time for cycle= 1      0.16 sec, wall time      0.02 sec
diis-norm(errvec)=1.64517
diis-c [-2.70659367  1.        ]
  HOMO = -0.406744568157815  LUMO = 0.132292908458855
  mo_energy =
[-20.40114204 -20.35646326 -20.3233598  -20.30421868  -1.36094675
  -1.29747405  -1.28075717  -1.26476216  -0.74385355  -0.67637355
  -0.6599411   -0.65166128  -0.593284    -0.51963064  -0.50477165
  -0.50086861  -0.48373325  -0.44144533  -0.42634805  -0.40674457
   0.13229291   0.18499674   0.21963687   0.24667726   0.30657019
   0.32133326   0.3609515    0.41265755   0.93370557   0.98988415
   1.01614468   1.02457878   1.03705369   1.0676698    1.10827418
   1.1292203    1.1420692    1.1636175    1.19955549   1.22605595
   1.24051255   1.25368857   1.27376969   1.27419032   1.33517122
   1.36152517   1.37917163   1.41496432   1.56311414   1.62707905
   1.64910464   1.75107981   1.76407309   1.78038674   1.81792549
   1.82804814   1.83242334   1.86468796   1.87292972   1.88165011
   1.90175177   1.95693093   1.96497737   2.04349056   2.47751636
   2.5415361    2.54394842   2.56089103   2.5832199    2.61616926
   2.62995311   2.66644112   2.75741398   2.82329945   2.84278695
   2.85996054   2.91080279   2.91260912   2.97721934   2.98467569
   2.98773598   2.99221275   3.00244275   3.05383109   3.30110195
   3.38565402   3.3892923    3.40631104   3.68697661   3.75839595
   3.77747447   3.80819826   3.87801919   3.95149781   3.9706402
   4.02559762]
E1 = -656.6445510161851  E_coul = 231.8706605131852
cycle= 2 E= -304.122223950088  delta_E= -0.118  |g|= 0.448  |ddm|= 0.718
    CPU time for cycle= 2      0.16 sec, wall time      0.02 sec
diis-norm(errvec)=0.744005
diis-c [-0.11017972  0.29240167  0.70759833]
  HOMO = -0.503826319962679  LUMO = 0.127928122936578
  mo_energy =
[-20.67765276 -20.60190963 -20.59467834 -20.5895237   -1.43908677
  -1.3672298   -1.35791428  -1.35166108  -0.80192398  -0.7282317
  -0.71919898  -0.71758558  -0.67794017  -0.59857773  -0.59301203
  -0.58537019  -0.57582599  -0.52060001  -0.51210968  -0.50382632
   0.12792812   0.1779675    0.21255662   0.24011454   0.29872647
   0.31267696   0.35199167   0.39023033   0.91654158   0.97235477
   0.98941257   1.00224963   1.01395291   1.0417848    1.06766523
   1.08498742   1.09080231   1.10971839   1.13054546   1.15699918
   1.17602585   1.18008362   1.20567575   1.22116185   1.27773859
   1.30081908   1.31684435   1.34711082   1.5148682    1.57637525
   1.59986456   1.70196725   1.7211245    1.73460968   1.78463839
   1.78863567   1.79123734   1.81736876   1.82083586   1.828674
   1.85272054   1.90531601   1.91136891   1.98935158   2.48802986
   2.49627596   2.54640806   2.56897771   2.5722325    2.5776162
   2.58245255   2.62088141   2.71888375   2.78787549   2.80353008
   2.81331766   2.88839309   2.90142717   2.95860703   2.9660763
   2.97140269   2.97721166   2.98510661   3.01969309   3.28301709
   3.3666775    3.369552     3.38037599   3.66154756   3.73579217
   3.75076387   3.77442116   3.83067657   3.90670522   3.92276021
   3.96992163]
E1 = -659.5350869535571  E_coul = 234.72661484876667
cycle= 3 E= -304.156805551878  delta_E= -0.0346  |g|= 0.0624  |ddm|= 0.289
    CPU time for cycle= 3      0.15 sec, wall time      0.02 sec
diis-norm(errvec)=0.117848
diis-c [-0.00621862 -0.01783753  0.07717152  0.94066601]
  HOMO = -0.494049991293528  LUMO = 0.134268669104201
  mo_energy =
[-20.64245905 -20.5685161  -20.56001619 -20.55543482  -1.42440999
  -1.35280489  -1.34358754  -1.33866638  -0.78860867  -0.71491476
  -0.70771744  -0.70475848  -0.66737468  -0.588493    -0.58169708
  -0.57507951  -0.56646723  -0.50925042  -0.50084366  -0.49404999
   0.13426867   0.1840082    0.21937421   0.24654356   0.30567334
   0.31925767   0.35917372   0.39707682   0.9253398    0.98173516
   1.00029315   1.01043237   1.02407887   1.05106177   1.07640841
   1.09403857   1.10228491   1.11985396   1.13968954   1.16613535
   1.18342935   1.18859031   1.21523037   1.2302885    1.28779988
   1.31073143   1.32685513   1.3564469    1.52648584   1.58710061
   1.61093699   1.71206571   1.73290126   1.74600097   1.79646129
   1.80006524   1.80312904   1.8281331    1.83099235   1.8392313
   1.86317935   1.91546439   1.92180803   1.99938969   2.49991206
   2.50799327   2.55786698   2.58018628   2.58331113   2.5881731
   2.59375099   2.63112718   2.73186097   2.80082047   2.81567918
   2.82485708   2.89911421   2.91278975   2.96957843   2.97673235
   2.98163964   2.98869233   2.99571741   3.0272585    3.29409496
   3.37693057   3.3801066    3.3901992    3.67679685   3.75085637
   3.76513139   3.7877924    3.84398953   3.91968578   3.93557754
   3.98111337]
E1 = -659.2182345132902  E_coul = 234.40889104741015
cycle= 4 E= -304.157676912968  delta_E= -0.000871  |g|= 0.0103  |ddm|= 0.0365
    CPU time for cycle= 4      0.17 sec, wall time      0.02 sec
diis-norm(errvec)=0.0213542
diis-c [-1.04148382e-04 -1.03476174e-02 -4.20065959e-02 -1.85985139e-01
  1.23833935e+00]
  HOMO = -0.495459418436988  LUMO = 0.134253098815
  mo_energy =
[-20.64316297 -20.5698565  -20.56122429 -20.55670839  -1.42484444
  -1.35321637  -1.3442544   -1.33942381  -0.78834565  -0.71451313
  -0.70772075  -0.70467675  -0.66747605  -0.5887248   -0.58274178
  -0.57544777  -0.56695437  -0.51027046  -0.5020511   -0.49545942
   0.1342531    0.18407295   0.21976447   0.24669225   0.30578047
   0.31958604   0.3595906    0.39746001   0.92545157   0.98201392
   1.00030881   1.01039871   1.02412266   1.05083514   1.07598454
   1.09391304   1.10233154   1.11957943   1.13922828   1.16561603
   1.18307201   1.18848305   1.2148799    1.23009173   1.28811163
   1.31089561   1.32651388   1.35644304   1.52625039   1.586876
   1.61055294   1.71185646   1.73293121   1.7460614    1.79659228
   1.80016172   1.80304908   1.8280559    1.8308487    1.83914482
   1.86324429   1.91527749   1.92159735   1.99930422   2.5003646
   2.5080915    2.55846557   2.58056102   2.58360729   2.58836158
   2.5936981    2.63120946   2.73223767   2.80128259   2.81591342
   2.82507307   2.89954201   2.91313298   2.97031073   2.97711392
   2.98184699   2.9892261    2.99593781   3.02737501   3.29460021
   3.37744514   3.38049595   3.39070957   3.67716811   3.75135417
   3.76543096   3.78797501   3.84453425   3.92025974   3.93605528
   3.98140547]
E1 = -659.2254846450589  E_coul = 234.41609418197228
cycle= 5 E= -304.157723910175  delta_E= -4.7e-05  |g|= 0.00163  |ddm|= 0.0121
    CPU time for cycle= 5      0.15 sec, wall time      0.02 sec
diis-norm(errvec)=0.00307953
diis-c [-3.99941514e-06  2.77965644e-03  8.99982743e-03  2.26309268e-02
 -2.75110100e-01  1.24069969e+00]
  HOMO = -0.495726954003904  LUMO = 0.134215291795562
  mo_energy =
[-20.6434801  -20.5693353  -20.5611914  -20.55679571  -1.42499279
  -1.35315297  -1.34432101  -1.33951763  -0.78831075  -0.71431045
  -0.70765796  -0.70457992  -0.6676656   -0.58876197  -0.58302482
  -0.57556024  -0.56708046  -0.5103591   -0.5022393   -0.49572695
   0.13421529   0.18401756   0.21977239   0.24666422   0.3057621
   0.31957984   0.35958149   0.39741025   0.92533084   0.98192927
   1.00016262   1.0102898    1.02400089   1.05065595   1.0757877
   1.0937655    1.10226907   1.11943711   1.13908501   1.16546623
   1.18291313   1.18837363   1.21478102   1.22998623   1.2881313
   1.31087762   1.32644113   1.35636798   1.52615946   1.58685794
   1.6104971    1.7117875    1.73278677   1.74591928   1.79653401
   1.80009937   1.80294435   1.82795238   1.83071488   1.83901418
   1.86317968   1.9151863    1.9214954    1.99923834   2.5002659
   2.50792131   2.55837576   2.58045204   2.5835286    2.58826934
   2.59357218   2.63108534   2.73207531   2.80121809   2.81579057
   2.82494685   2.89940406   2.91303991   2.97026603   2.97703335
   2.98184112   2.98916641   2.9958172    3.02713881   3.2944764
   3.37734967   3.38038383   3.39060918   3.67702764   3.75130463
   3.76533603   3.78788952   3.84437838   3.92020281   3.93597
   3.98124949]
E1 = -659.2233080335957  E_coul = 234.41391617245063
cycle= 6 E= -304.157725308233  delta_E= -1.4e-06  |g|= 0.000422  |ddm|= 0.00251
    CPU time for cycle= 6      0.16 sec, wall time      0.02 sec
diis-norm(errvec)=0.000761402
diis-c [-4.06420964e-07  4.18470285e-04  1.72738082e-03  4.94999492e-03
 -4.53378604e-02  2.38281067e-02  1.01441391e+00]
  HOMO = -0.495758826093126  LUMO = 0.134218231380599
  mo_energy =
[-20.64317734 -20.56967264 -20.56117739 -20.55670989  -1.42490463
  -1.35325847  -1.34432969  -1.33952334  -0.78821888  -0.71436507
  -0.70764356  -0.70456379  -0.6675991   -0.58884139  -0.58296427
  -0.57558643  -0.56711838  -0.51048607  -0.50229012  -0.49575883
   0.13421823   0.18401186   0.21979155   0.24665641   0.3057639
   0.31957591   0.35958024   0.39741673   0.9253572    0.98191206
   1.00018913   1.01028205   1.02401218   1.05066305   1.07581981
   1.09378214   1.1022227    1.11943113   1.13905668   1.16545327
   1.18290153   1.18838792   1.21475357   1.22999628   1.28808784
   1.3108655    1.32640875   1.35636092   1.52621015   1.58682573
   1.6104942    1.71176592   1.73283397   1.74596819   1.79648124
   1.80005386   1.80293266   1.82794016   1.83072613   1.839048
   1.86313179   1.91516709   1.92148762   1.99918804   2.5002832
   2.50797516   2.55836088   2.58045088   2.5834908    2.58823498
   2.59356248   2.63107193   2.73212822   2.80117382   2.81578037
   2.82493509   2.89944155   2.91306578   2.97022876   2.9770299
   2.98182196   2.98913581   2.99580518   3.02714087   3.29451143
   3.3773286    3.38038081   3.39058977   3.67707914   3.75126905
   3.7653244    3.78788454   3.84443894   3.92015772   3.93594549
   3.98125303]
E1 = -659.2229495972475  E_coul = 234.41355767143864
cycle= 7 E= -304.157725372897  delta_E= -6.47e-08  |g|= 0.00017  |ddm|= 0.000523
    CPU time for cycle= 7      0.16 sec, wall time      0.02 sec
diis-norm(errvec)=0.000298875
diis-c [-1.85847533e-08 -2.13203867e-04 -5.80822001e-04 -1.84444836e-03
  2.08046906e-02 -1.35143994e-01  2.28639227e-01  8.88338550e-01]
  HOMO = -0.495774437812058  LUMO = 0.134214402958707
  mo_energy =
[-20.6432629  -20.56951535 -20.56115875 -20.55672731  -1.42493332
  -1.35321274  -1.34432608  -1.33952761  -0.78823349  -0.71431977
  -0.70763818  -0.70455222  -0.66763182  -0.58881534  -0.58299928
  -0.57558629  -0.56711551  -0.51045202  -0.5022893   -0.49577444
   0.1342144    0.18401568   0.21979348   0.24666378   0.30576453
   0.31958432   0.35958927   0.39742262   0.92535151   0.98192575
   1.00018168   1.01028453   1.0240091    1.05065852   1.07580188
   1.09377481   1.10224298   1.1194294    1.13906243   1.1654536
   1.18289771   1.18838383   1.21476359   1.22999423   1.28812121
   1.31088222   1.32641986   1.35636959   1.52619802   1.58684258
   1.61049827   1.71177505   1.73281803   1.7459517    1.79650292
   1.80007283   1.80293618   1.82794354   1.83071859   1.83903458
   1.86314982   1.9151702    1.92148774   1.99920797   2.50028249
   2.50795748   2.55837182   2.5804547    2.58350723   2.5882488
   2.5935653    2.63107386   2.73211449   2.80119784   2.81578589
   2.82494      2.89943237   2.91305878   2.97025251   2.97703531
   2.98182056   2.98915136   2.99580855   3.02713996   3.29450405
   3.37733998   3.38038502   3.39060037   3.67706784   3.75129184
   3.7653339    3.78788501   3.84442354   3.9201831    3.93596116
   3.98125253]
E1 = -659.2227309873031  E_coul = 234.41333905374242
cycle= 8 E= -304.157725380649  delta_E= -7.75e-09  |g|= 2.31e-05  |ddm|= 0.000163
    CPU time for cycle= 8      0.15 sec, wall time      0.02 sec
diis-norm(errvec)=4.29162e-05
diis-c [-8.51617111e-10 -3.30363101e-05 -1.16660063e-04 -3.82489946e-04
  3.43652466e-03 -7.53719250e-03 -4.16954575e-02  2.89525031e-02
  1.01737581e+00]
  HOMO = -0.495772272610178  LUMO = 0.13421578999977
  mo_energy =
[-20.64325192 -20.56952391 -20.56115497 -20.55671868  -1.42492888
  -1.35321462  -1.34432441  -1.33952484  -0.78822872  -0.71431986
  -0.7076347   -0.70454965  -0.66762866  -0.58881652  -0.58299458
  -0.57558555  -0.56711492  -0.51045449  -0.50228853  -0.49577227
   0.13421579   0.1840155    0.21979479   0.24666376   0.3057659
   0.31958449   0.35958943   0.39742314   0.92535325   0.98192551
   1.00018314   1.01028563   1.02401007   1.05065899   1.07580393
   1.09377638   1.10224172   1.11943029   1.13906236   1.16545461
   1.182899     1.18838579   1.21476367   1.22999588   1.28812032
   1.31088309   1.32642069   1.35637083   1.5262004    1.58684258
   1.6104992    1.71177547   1.73282056   1.74595452   1.79650222
   1.80007249   1.80293693   1.82794444   1.83072049   1.83903712
   1.86314965   1.91517141   1.92148895   1.999207     2.50028372
   2.50796046   2.55837231   2.58045526   2.58350717   2.58824889
   2.59356636   2.63107535   2.73211727   2.80119744   2.81578703
   2.8249413    2.89943431   2.91306073   2.97025206   2.97703655
   2.98182494   2.98915092   2.99580845   3.02713839   3.29450626
   3.37734053   3.38038597   3.3906009    3.6770701    3.75129154
   3.76533452   3.78788768   3.84442677   3.92018271   3.93596159
   3.98125402]
E1 = -659.2227107206381  E_coul = 234.41331878683192
cycle= 9 E= -304.157725380894  delta_E= -2.46e-10  |g|= 6.62e-06  |ddm|= 3.36e-05
    CPU time for cycle= 9      0.16 sec, wall time      0.02 sec
  HOMO = -0.495772495879122  LUMO = 0.134215531505432
  mo_energy =
[-20.64325244 -20.56952388 -20.5611563  -20.55672096  -1.42492883
  -1.35321445  -1.3443246   -1.33952531  -0.78822884  -0.71431985
  -0.70763513  -0.70454992  -0.66762897  -0.58881665  -0.58299408
  -0.575586    -0.56711538  -0.51045408  -0.50228842  -0.4957725
   0.13421553   0.18401542   0.21979459   0.24666364   0.30576561
   0.31958431   0.35958928   0.39742306   0.92535306   0.98192534
   1.00018293   1.01028542   1.02400976   1.05065885   1.07580386
   1.09377624   1.10224147   1.11942997   1.13906221   1.16545466
   1.18289872   1.18838553   1.21476368   1.22999573   1.28812032
   1.31088286   1.3264205    1.35637051   1.52620036   1.58684251
   1.61049903   1.71177537   1.73282047   1.74595445   1.79650216
   1.80007242   1.80293674   1.82794427   1.83072028   1.83903701
   1.86314958   1.91517118   1.92148875   1.999207     2.50028346
   2.50796038   2.55837207   2.58045508   2.58350704   2.58824876
   2.59356615   2.63107504   2.73211709   2.80119731   2.81578674
   2.82494098   2.89943419   2.9130605    2.970252     2.97703643
   2.98182436   2.98915072   2.99580819   3.02713846   3.29450606
   3.37734033   3.38038575   3.3906007    3.67706984   3.75129132
   3.76533422   3.78788717   3.84442656   3.92018256   3.93596136
   3.98125366]
E1 = -659.22272316042  E_coul = 234.41333122658727
Extra cycle  E= -304.157725380921  delta_E= -2.65e-11  |g|= 3.13e-06  |ddm|= 1.08e-05
    CPU time for scf_cycle      2.52 sec, wall time      0.32 sec
    CPU time for SCF      2.60 sec, wall time      0.33 sec
converged SCF energy = -304.157725380921
