Atom number=9                                                           
SP        RHF                                                         6-31G(d,p)          
Number of atoms                            I                9
Info1-9                                    I   N=           9
         107         106           0           0           0         111
           1           1           2
Full Title                                 C   N=           2
Atom number=9           
Route                                      C   N=           4
#p hf/6-31g** 5d 7f pop=npa charge nosymm       
Charge                                     I                0
Multiplicity                               I                1
Number of electrons                        I               30
Number of alpha electrons                  I               15
Number of beta electrons                   I               15
Number of basis functions                  I               72
Number of independent functions            I               72
Number of point charges in /Mol/           I                0
Number of translation vectors              I                0
Atomic numbers                             I   N=           9
           8           8           8           1           1           1
           1           1           1
Nuclear charges                            R   N=           9
  8.00000000E+00  8.00000000E+00  8.00000000E+00  1.00000000E+00  1.00000000E+00
  1.00000000E+00  1.00000000E+00  1.00000000E+00  1.00000000E+00
Current cartesian coordinates              R   N=          27
  1.58591958E+01 -2.23232232E+01 -2.11658453E+01  1.64278541E+01 -2.65870709E+01
 -1.80414289E+01  1.84053920E+01 -2.75148262E+01 -2.47254336E+01  1.54490326E+01
 -2.36930366E+01 -2.00580047E+01  1.74840371E+01 -2.17584956E+01 -2.06064713E+01
  1.55337188E+01 -2.59511213E+01 -1.66033699E+01  1.61624534E+01 -2.83754831E+01
 -1.79860013E+01  1.78327464E+01 -2.63066431E+01 -2.35071158E+01  2.01306987E+01
 -2.70664981E+01 -2.50324158E+01
Number of symbols in /Mol/                 I                0
Force Field                                I                0
Atom Types                                 C   N=           9
                                                            
                                                
Int Atom Types                             I   N=           9
           0           0           0           0           0           0
           0           0           0
MM charges                                 R   N=           9
  0.00000000E+00  0.00000000E+00  0.00000000E+00  0.00000000E+00  0.00000000E+00
  0.00000000E+00  0.00000000E+00  0.00000000E+00  0.00000000E+00
Integer atomic weights                     I   N=           9
          16          16          16           1           1           1
           1           1           1
Real atomic weights                        R   N=           9
  1.59949146E+01  1.59949146E+01  1.59949146E+01  1.00782504E+00  1.00782504E+00
  1.00782504E+00  1.00782504E+00  1.00782504E+00  1.00782504E+00
Atom fragment info                         I   N=           9
           0           0           0           0           0           0
           0           0           0
Atom residue num                           I   N=           9
           0           0           0           0           0           0
           0           0           0
Nuclear spins                              I   N=           9
           0           0           0           1           1           1
           1           1           1
Nuclear ZEff                               R   N=           9
 -5.60000000E+00 -5.60000000E+00 -5.60000000E+00 -1.00000000E+00 -1.00000000E+00
 -1.00000000E+00 -1.00000000E+00 -1.00000000E+00 -1.00000000E+00
Nuclear ZNuc                               R   N=           9
  8.00000000E+00  8.00000000E+00  8.00000000E+00  1.00000000E+00  1.00000000E+00
  1.00000000E+00  1.00000000E+00  1.00000000E+00  1.00000000E+00
Nuclear QMom                               R   N=           9
  0.00000000E+00  0.00000000E+00  0.00000000E+00  0.00000000E+00  0.00000000E+00
  0.00000000E+00  0.00000000E+00  0.00000000E+00  0.00000000E+00
Nuclear GFac                               R   N=           9
  0.00000000E+00  0.00000000E+00  0.00000000E+00  2.79284600E+00  2.79284600E+00
  2.79284600E+00  2.79284600E+00  2.79284600E+00  2.79284600E+00
MicOpt                                     I   N=           9
          -1          -1          -1          -1          -1          -1
          -1          -1          -1
Number of residues                         I                0
Number of secondary structures             I                0
Number of contracted shells                I               30
Number of primitive shells                 I               63
Pure/Cartesian d shells                    I                0
Pure/Cartesian f shells                    I                0
Highest angular momentum                   I                2
Largest degree of contraction              I                6
Shell types                                I   N=          30
           0          -1          -1          -2           0          -1
          -1          -2           0          -1          -1          -2
           0           0           1           0           0           1
           0           0           1           0           0           1
           0           0           1           0           0           1
Number of primitives per shell             I   N=          30
           6           3           1           1           6           3
           1           1           6           3           1           1
           3           1           1           3           1           1
           3           1           1           3           1           1
           3           1           1           3           1           1
Shell to atom map                          I   N=          30
           1           1           1           1           2           2
           2           2           3           3           3           3
           4           4           4           5           5           5
           6           6           6           7           7           7
           8           8           8           9           9           9
Primitive exponents                        R   N=          63
  5.48467166E+03  8.25234946E+02  1.88046958E+02  5.29645000E+01  1.68975704E+01
  5.79963534E+00  1.55396162E+01  3.59993359E+00  1.01376175E+00  2.70005823E-01
  8.00000000E-01  5.48467166E+03  8.25234946E+02  1.88046958E+02  5.29645000E+01
  1.68975704E+01  5.79963534E+00  1.55396162E+01  3.59993359E+00  1.01376175E+00
  2.70005823E-01  8.00000000E-01  5.48467166E+03  8.25234946E+02  1.88046958E+02
  5.29645000E+01  1.68975704E+01  5.79963534E+00  1.55396162E+01  3.59993359E+00
  1.01376175E+00  2.70005823E-01  8.00000000E-01  1.87311370E+01  2.82539436E+00
  6.40121692E-01  1.61277759E-01  1.10000000E+00  1.87311370E+01  2.82539436E+00
  6.40121692E-01  1.61277759E-01  1.10000000E+00  1.87311370E+01  2.82539436E+00
  6.40121692E-01  1.61277759E-01  1.10000000E+00  1.87311370E+01  2.82539436E+00
  6.40121692E-01  1.61277759E-01  1.10000000E+00  1.87311370E+01  2.82539436E+00
  6.40121692E-01  1.61277759E-01  1.10000000E+00  1.87311370E+01  2.82539436E+00
  6.40121692E-01  1.61277759E-01  1.10000000E+00
Contraction coefficients                   R   N=          63
  1.83107443E-03  1.39501722E-02  6.84450781E-02  2.32714336E-01  4.70192898E-01
  3.58520853E-01 -1.10777550E-01 -1.48026263E-01  1.13076702E+00  1.00000000E+00
  1.00000000E+00  1.83107443E-03  1.39501722E-02  6.84450781E-02  2.32714336E-01
  4.70192898E-01  3.58520853E-01 -1.10777550E-01 -1.48026263E-01  1.13076702E+00
  1.00000000E+00  1.00000000E+00  1.83107443E-03  1.39501722E-02  6.84450781E-02
  2.32714336E-01  4.70192898E-01  3.58520853E-01 -1.10777550E-01 -1.48026263E-01
  1.13076702E+00  1.00000000E+00  1.00000000E+00  3.34946043E-02  2.34726953E-01
  8.13757326E-01  1.00000000E+00  1.00000000E+00  3.34946043E-02  2.34726953E-01
  8.13757326E-01  1.00000000E+00  1.00000000E+00  3.34946043E-02  2.34726953E-01
  8.13757326E-01  1.00000000E+00  1.00000000E+00  3.34946043E-02  2.34726953E-01
  8.13757326E-01  1.00000000E+00  1.00000000E+00  3.34946043E-02  2.34726953E-01
  8.13757326E-01  1.00000000E+00  1.00000000E+00  3.34946043E-02  2.34726953E-01
  8.13757326E-01  1.00000000E+00  1.00000000E+00
P(S=P) Contraction coefficients            R   N=          63
  0.00000000E+00  0.00000000E+00  0.00000000E+00  0.00000000E+00  0.00000000E+00
  0.00000000E+00  7.08742682E-02  3.39752839E-01  7.27158577E-01  1.00000000E+00
  0.00000000E+00  0.00000000E+00  0.00000000E+00  0.00000000E+00  0.00000000E+00
  0.00000000E+00  0.00000000E+00  7.08742682E-02  3.39752839E-01  7.27158577E-01
  1.00000000E+00  0.00000000E+00  0.00000000E+00  0.00000000E+00  0.00000000E+00
  0.00000000E+00  0.00000000E+00  0.00000000E+00  7.08742682E-02  3.39752839E-01
  7.27158577E-01  1.00000000E+00  0.00000000E+00  0.00000000E+00  0.00000000E+00
  0.00000000E+00  0.00000000E+00  0.00000000E+00  0.00000000E+00  0.00000000E+00
  0.00000000E+00  0.00000000E+00  0.00000000E+00  0.00000000E+00  0.00000000E+00
  0.00000000E+00  0.00000000E+00  0.00000000E+00  0.00000000E+00  0.00000000E+00
  0.00000000E+00  0.00000000E+00  0.00000000E+00  0.00000000E+00  0.00000000E+00
  0.00000000E+00  0.00000000E+00  0.00000000E+00  0.00000000E+00  0.00000000E+00
  0.00000000E+00  0.00000000E+00  0.00000000E+00
Coordinates of each shell                  R   N=          90
  1.58591958E+01 -2.23232232E+01 -2.11658453E+01  1.58591958E+01 -2.23232232E+01
 -2.11658453E+01  1.58591958E+01 -2.23232232E+01 -2.11658453E+01  1.58591958E+01
 -2.23232232E+01 -2.11658453E+01  1.64278541E+01 -2.65870709E+01 -1.80414289E+01
  1.64278541E+01 -2.65870709E+01 -1.80414289E+01  1.64278541E+01 -2.65870709E+01
 -1.80414289E+01  1.64278541E+01 -2.65870709E+01 -1.80414289E+01  1.84053920E+01
 -2.75148262E+01 -2.47254336E+01  1.84053920E+01 -2.75148262E+01 -2.47254336E+01
  1.84053920E+01 -2.75148262E+01 -2.47254336E+01  1.84053920E+01 -2.75148262E+01
 -2.47254336E+01  1.54490326E+01 -2.36930366E+01 -2.00580047E+01  1.54490326E+01
 -2.36930366E+01 -2.00580047E+01  1.54490326E+01 -2.36930366E+01 -2.00580047E+01
  1.74840371E+01 -2.17584956E+01 -2.06064713E+01  1.74840371E+01 -2.17584956E+01
 -2.06064713E+01  1.74840371E+01 -2.17584956E+01 -2.06064713E+01  1.55337188E+01
 -2.59511213E+01 -1.66033699E+01  1.55337188E+01 -2.59511213E+01 -1.66033699E+01
  1.55337188E+01 -2.59511213E+01 -1.66033699E+01  1.61624534E+01 -2.83754831E+01
 -1.79860013E+01  1.61624534E+01 -2.83754831E+01 -1.79860013E+01  1.61624534E+01
 -2.83754831E+01 -1.79860013E+01  1.78327464E+01 -2.63066431E+01 -2.35071158E+01
  1.78327464E+01 -2.63066431E+01 -2.35071158E+01  1.78327464E+01 -2.63066431E+01
 -2.35071158E+01  2.01306987E+01 -2.70664981E+01 -2.50324158E+01  2.01306987E+01
 -2.70664981E+01 -2.50324158E+01  2.01306987E+01 -2.70664981E+01 -2.50324158E+01
Num ILSW                                   I              100
ILSW                                       I   N=         100
           0           0           0           0           2           0
           0           0           0           0           0          -1
           5           0           0           0           0           0
           0           0           0           0           0           0
           1           1           0           0           0           0
           0           0      100000           0          -1           0
           0           0           0           0           0           0
           0           0           0           1           0           0
           0 -2000000000           1           0           0           0
           0           0           4          52           0           0
           0           1           0           0           0           0
           0           0           0           9           0           1
           0           0           0           0           0           0
           0           0           0           0           0           0
           0           0           0           0           0           0
           0           0           0           0           0           0
           0           0           0           0
Num RLSW                                   I               52
RLSW                                       R   N=          52
  1.00000000E+00  1.00000000E+00  1.00000000E+00  1.00000000E+00  1.00000000E+00
  0.00000000E+00  0.00000000E+00  1.00000000E+00  0.00000000E+00  0.00000000E+00
  0.00000000E+00  0.00000000E+00  1.00000000E+00  0.00000000E+00  0.00000000E+00
  0.00000000E+00  0.00000000E+00  1.00000000E+00  0.00000000E+00  0.00000000E+00
  0.00000000E+00  0.00000000E+00  1.00000000E+00  0.00000000E+00  0.00000000E+00
  0.00000000E+00  0.00000000E+00  1.00000000E+00  0.00000000E+00  0.00000000E+00
  0.00000000E+00  0.00000000E+00  1.00000000E+00  0.00000000E+00  0.00000000E+00
  0.00000000E+00  0.00000000E+00  0.00000000E+00  1.00000000E+00  1.00000000E+00
  0.00000000E+00  1.00000000E+00  0.00000000E+00  0.00000000E+00  0.00000000E+00
  0.00000000E+00  0.00000000E+00  0.00000000E+00  0.00000000E+00  0.00000000E+00
  0.00000000E+00  0.00000000E+00
MxBond                                     I                2
NBond                                      I   N=           9
           2           2           2           1           1           1
           1           1           1
IBond                                      I   N=          18
           4           5           6           7           8           9
           1           0           1           0           2           0
           2           0           3           0           3           0
RBond                                      R   N=          18
  1.00000000E+00  1.00000000E+00  1.00000000E+00  1.00000000E+00  1.00000000E+00
  1.00000000E+00  1.00000000E+00  0.00000000E+00  1.00000000E+00  0.00000000E+00
  1.00000000E+00  0.00000000E+00  1.00000000E+00  0.00000000E+00  1.00000000E+00
  0.00000000E+00  1.00000000E+00  0.00000000E+00
Virial Ratio                               R      2.063680016545955E+00
SCF Energy                                 R     -2.421971607439241E+02
Total Energy                               R     -2.421971607439241E+02
RMS Density                                R      3.557552743767255E-09
Job Status                                 I                1
Nuclear derivative order                   I                0
External E-field                           R   N=          35
  0.00000000E+00  0.00000000E+00  0.00000000E+00  0.00000000E+00  0.00000000E+00
  0.00000000E+00  0.00000000E+00  0.00000000E+00  0.00000000E+00  0.00000000E+00
  0.00000000E+00  0.00000000E+00  0.00000000E+00  0.00000000E+00  0.00000000E+00
  0.00000000E+00  0.00000000E+00  0.00000000E+00  0.00000000E+00  0.00000000E+00
  0.00000000E+00  0.00000000E+00  0.00000000E+00  0.00000000E+00  0.00000000E+00
  0.00000000E+00  0.00000000E+00  0.00000000E+00  0.00000000E+00  0.00000000E+00
  0.00000000E+00  0.00000000E+00  0.00000000E+00  0.00000000E+00  0.00000000E+00
IOpCl                                      I                0
IROHF                                      I                0
Alpha Orbital Energies                     R   N=          72
 -2.06068579E+01 -2.05839738E+01 -2.05451131E+01 -1.39115671E+00 -1.36605434E+00
 -1.32884185E+00 -7.52907821E-01 -7.27794704E-01 -6.94284546E-01 -6.25096689E-01
 -6.05636812E-01 -5.67257397E-01 -5.42481886E-01 -5.26406036E-01 -4.88991197E-01
  1.72513366E-01  2.18339644E-01  2.81254847E-01  2.90172926E-01  3.46111299E-01
  4.15652878E-01  9.45783046E-01  1.00327783E+00  1.00657918E+00  1.05349945E+00
  1.06698268E+00  1.10376693E+00  1.11932226E+00  1.13759977E+00  1.14387668E+00
  1.18922281E+00  1.19262484E+00  1.24636107E+00  1.33141773E+00  1.35753214E+00
  1.39573527E+00  1.56144225E+00  1.63340366E+00  1.68475990E+00  1.76539773E+00
  1.78055701E+00  1.79644384E+00  1.81198210E+00  1.82370827E+00  1.86660959E+00
  1.89471267E+00  1.92056851E+00  1.98659243E+00  2.52595003E+00  2.54506088E+00
  2.56111749E+00  2.57011441E+00  2.61960561E+00  2.64904044E+00  2.76966894E+00
  2.79198412E+00  2.84418897E+00  2.94498320E+00  2.95740588E+00  2.96458934E+00
  2.97095751E+00  3.01300910E+00  3.04008096E+00  3.34343910E+00  3.35621082E+00
  3.42569827E+00  3.71196533E+00  3.74803360E+00  3.79532711E+00  3.90469697E+00
  3.95115052E+00  3.99545422E+00
Alpha MO coefficients                      R   N=        5184
  6.66291460E-05  2.35045975E-04 -4.81413105E-05 -1.79953336E-05  2.11228671E-05
 -8.24371309E-04  2.34350764E-04  3.70786915E-04 -2.65696311E-04 -1.77497868E-05
  1.38218113E-05  7.65366958E-05  6.82573695E-05  5.73005646E-07  9.95703203E-01
  2.20808655E-02 -1.12679729E-03 -9.95554765E-04  1.31280912E-03 -6.00699011E-03
  5.79665975E-04  1.11662850E-04 -3.94153430E-04 -5.31504713E-05 -2.63750692E-04
  2.11875907E-04 -3.08897388E-04  1.14300794E-05  6.16893831E-06  1.03085051E-05
 -1.74927369E-06 -3.29713129E-06  2.28655226E-07 -3.81981024E-05  3.07159094E-05
 -2.02378752E-05 -3.50672777E-05 -5.66583226E-06  3.85207940E-06 -1.29086310E-05
  9.08749660E-06  6.79235887E-06  9.29830835E-05  1.15069601E-03  9.75158760E-05
 -2.58326855E-05 -1.48294373E-05 -1.74680152E-05 -1.67230694E-04  1.53700863E-05
  1.74674236E-06  2.34248848E-05 -4.31645963E-04  1.06949756E-03 -6.06859054E-04
  3.88050758E-04  9.25921661E-04 -6.28095314E-04  1.13882273E-03 -2.27539416E-04
 -1.17688783E-03  6.33190098E-05  7.27783148E-06  3.80933492E-05  1.29969718E-05
 -1.92034941E-05 -2.29522351E-05 -6.26895720E-06 -1.91587094E-05  5.14561881E-06
  4.01015882E-06  2.24478530E-06  2.85127611E-05  2.91743064E-05  3.55885554E-05
 -5.29538332E-05 -5.00715537E-05  1.08787671E-04 -1.13769651E-04  1.22736814E-04
  1.87632479E-04  2.22849915E-05  9.39568076E-06 -1.62481729E-05  9.41726828E-06
  2.41299050E-05 -7.33568683E-06 -6.04173854E-06  1.42197066E-05 -1.07677539E-05
 -2.20823358E-05  6.54999911E-05 -8.69799541E-05  1.30561053E-04  1.18207089E-04
  1.49273364E-05 -1.99715545E-05  3.85218319E-06  1.65585345E-05 -2.19340452E-05
  9.95707955E-01  2.20466175E-02  1.03353595E-03  1.52097460E-03  7.80346139E-04
 -6.20121896E-03 -3.99969675E-04 -8.26780861E-04 -5.03624373E-04 -1.10944119E-04
 -2.52465103E-04  2.20725893E-04  1.98579829E-04  9.04470927E-06  9.49389323E-05
 -3.33168495E-04  3.85869274E-06 -4.36618955E-05 -1.65619473E-07  5.61590477E-05
 -9.73481054E-05  3.06695017E-05 -2.41497079E-05 -1.61313026E-05 -1.02131633E-04
 -2.16977598E-05 -1.39962486E-05  8.18732518E-06  2.23011425E-05  5.75719756E-05
 -2.55703421E-07  1.45451894E-05  1.00662621E-05 -2.03315515E-05 -4.78814909E-04
  1.61110518E-03 -2.80456516E-04  7.41496554E-04  7.20254739E-04 -5.00786626E-04
  1.18101852E-03  1.10036283E-03  3.43774988E-04 -1.48236914E-04  9.95714719E-01
  2.22194084E-02  1.05319139E-03 -7.01366556E-04  1.47351995E-03 -6.79668833E-03
 -2.76963984E-04  7.85763588E-04 -9.55193048E-04 -1.48852978E-04  1.10827336E-04
 -1.37640868E-04  1.37801593E-04  3.12299234E-04 -4.69585340E-05  2.01077470E-04
 -4.51722517E-05  9.03077613E-05 -8.73982642E-05 -3.32921430E-04  1.69587128E-04
 -5.60256207E-04  3.79541275E-04 -1.95857361E-05 -1.18518068E-05  3.63552718E-05
 -1.31262516E-06  7.72916841E-05 -2.40414423E-05  6.62084961E-05 -6.02841430E-06
 -3.49188748E-06  3.27069731E-06 -2.68338589E-04  1.21521748E-04 -1.31436213E-04
 -1.60493973E-04 -1.32678160E-05  1.85722146E-05 -5.45762457E-05  3.00690841E-05
  2.62365281E-05 -3.89692013E-04  2.40915334E-03 -1.19028506E-04 -7.62432093E-04
  6.43689622E-04 -5.14006979E-04  1.04650082E-03  1.05098709E-03  3.00738057E-04
  4.22050056E-04  1.63030629E-04 -3.05608296E-04 -2.44458879E-05  4.31963044E-05
 -1.98948870E-05 -9.85073806E-05 -1.48080574E-04 -3.27046401E-05 -2.75058290E-05
 -3.57415202E-05  3.21380697E-05  3.47452181E-04  3.55560988E-05 -6.68512776E-05
 -8.01383973E-05  3.66108899E-06 -1.05816682E-04  1.51174343E-05  1.43781098E-05
  7.34834411E-06 -1.85523605E-02  3.98330611E-02  3.23437681E-03 -5.23010046E-03
  7.05377502E-03  3.94030464E-02  7.62492995E-04 -3.17469387E-03  3.61750337E-03
  1.45015220E-04  2.61351538E-04 -7.76084099E-04 -4.07952755E-04 -1.89174142E-04
 -2.11670212E-01  4.67888353E-01 -4.35073904E-02 -4.06395330E-02  5.39269383E-02
  4.44016311E-01 -1.81394638E-02 -1.26113863E-02  2.01570963E-02  4.31079391E-04
 -2.71438709E-03 -1.52130355E-03 -2.10440872E-03  5.55506055E-04 -3.57757788E-03
  8.16883875E-03  5.23520911E-04  1.17772705E-03  7.74312409E-04  6.00946784E-03
  3.45361247E-04 -1.74817938E-04  7.65077532E-05  4.44089043E-06  1.99387961E-05
  1.60417216E-05 -2.31468427E-05  4.46609481E-05  1.83893315E-02 -5.14681568E-04
  6.40133955E-04  1.65609525E-03 -1.12318787E-03  1.14605254E-02  1.49093893E-03
 -2.14955039E-03 -9.94340546E-04 -5.60785222E-04  1.41903091E-01  7.98766485E-03
  1.25337402E-02 -1.17442765E-02 -1.99212846E-02  1.41851906E-01  8.78574123E-03
  1.99985679E-03  2.62387987E-02  1.21413827E-03  2.74744865E-03  2.85573543E-03
  1.70792623E-04 -3.92509152E-04 -2.24299134E-04  2.44700500E-03 -1.19379411E-04
 -4.55613288E-04 -6.69178044E-05  7.41145162E-05 -4.43452767E-03  9.57000601E-03
  1.00129466E-03 -8.40908824E-04  9.89902405E-04  8.53867319E-03  1.08451412E-03
 -1.31699676E-03 -1.13888907E-03 -1.07627183E-04 -2.77981487E-05  5.16055683E-05
 -7.54987256E-05 -1.57786347E-04  4.28470065E-03 -9.35408464E-03  9.15073260E-04
  1.00328963E-03 -1.42419388E-03 -9.94042769E-03  1.14935702E-03 -1.53207244E-04
 -1.91499049E-03 -1.05312018E-04  2.13316032E-04 -6.64469473E-06 -2.47771414E-05
  7.12157725E-05 -2.12887496E-01  4.70154789E-01  4.10060052E-02  6.09155074E-02
  3.11981784E-02  4.48023566E-01  1.09334210E-02  2.32342013E-02  8.45292784E-03
 -1.17625826E-03 -8.13519856E-04  2.53443090E-03 -3.80409556E-05  2.88036053E-03
  2.34974681E-03  2.16971327E-03  1.33798181E-04  6.24769922E-04 -3.08968988E-04
  2.57308746E-03  9.66382434E-04 -6.45382887E-04 -1.15715492E-04 -7.46254668E-05
 -2.40168989E-03  1.62525398E-04 -1.60518332E-04  1.69352377E-04  2.57726731E-04
 -3.29587616E-03  6.74908707E-04 -1.00378497E-04 -5.13991466E-04  8.52671438E-05
  1.41630513E-01  4.71028346E-03  1.05341337E-02 -1.66376011E-02 -1.74698276E-02
  1.43686921E-01  1.04594929E-02 -2.53163441E-02 -4.50083419E-03  5.47463540E-03
 -2.12253743E-01  4.66457501E-01  4.38566033E-02 -2.84352866E-02  6.07287951E-02
  4.53800803E-01  1.55282538E-02 -8.54905475E-03  2.28572071E-02  4.59274277E-04
  2.31816459E-03 -2.94844978E-03 -1.10616069E-04  9.36071291E-05  2.03987846E-02
 -4.62379245E-02  3.80538980E-03  9.43604253E-03 -9.53635130E-03 -4.20966829E-02
  1.21612400E-03  7.37597016E-03 -6.69192497E-03 -1.04711635E-04  5.73206753E-04
 -4.79686770E-04 -1.44668895E-04 -5.00240267E-04  5.40470061E-03 -1.10771588E-02
 -1.49068027E-03 -9.77335229E-04 -1.90818220E-04 -1.54021385E-02  5.14226879E-04
 -1.50754844E-03 -1.59449982E-03  4.42596378E-06  9.41809777E-05 -1.98409914E-04
  2.62040518E-05 -5.58802217E-06  1.40890363E-01  1.38624163E-03  7.53493789E-03
  1.99933389E-02 -1.44915200E-02  1.39483304E-01  5.86855055E-03 -2.41269865E-02
 -9.99109352E-03 -6.81368751E-03 -1.51725906E-02  1.99431524E-03 -1.17327095E-03
  1.16615345E-03  1.74283319E-03 -1.59249708E-02 -8.04053170E-04 -2.14137274E-04
 -2.89479513E-03 -1.31669760E-04 -2.10094401E-03  6.84087114E-03 -3.07355992E-04
  4.67575398E-04  3.00659429E-04 -3.68332000E-03 -1.26930443E-03  6.59221034E-04
  1.41311124E-04 -9.57033115E-05  6.76178633E-03 -1.57377312E-02 -3.62510547E-02
 -5.07567725E-02  3.00479899E-02 -2.27266115E-02 -1.97655027E-02 -2.96241315E-02
  2.03279081E-02  1.92067301E-03 -9.62740949E-04 -3.18789722E-03 -2.49179332E-03
 -8.57297052E-04 -6.80521487E-04  8.04277885E-04 -1.07056946E-01  4.34771090E-01
  2.22471434E-01  5.18559309E-03 -6.08167369E-02  2.52787719E-01  1.23395539E-01
  1.74402245E-02 -1.24669905E-02  1.04887879E-02  1.74865225E-02 -1.20904585E-02
 -5.21120371E-04  1.41668031E-03  1.71189796E-02 -5.36187781E-03 -1.40435005E-02
  1.71950199E-03  1.01175578E-02 -2.44461483E-03 -9.62039695E-03 -6.98506531E-04
  6.57095473E-05 -9.09336505E-04  9.44076737E-04  7.56659481E-04  4.07229773E-02
  1.61312310E-02 -2.19279049E-04  2.78239332E-03 -1.66673753E-03 -2.67382816E-02
 -9.30438676E-03  2.49461624E-03 -3.53148865E-04  2.09611967E-03  2.27111709E-01
  1.11237817E-01  1.22602778E-02  2.26445042E-04 -1.72489334E-02 -2.38671154E-01
 -1.12963123E-01 -6.52584551E-03 -2.04213627E-02  6.39100973E-03 -1.05687368E-02
 -6.50336855E-03  8.51119977E-05  7.52935686E-04  1.86504186E-04  1.05390713E-02
  4.49469687E-03 -8.04587245E-04 -4.24388382E-04 -1.15116936E-04 -2.77512908E-03
  6.16598822E-03  1.43226787E-02  3.22903775E-02  1.48843491E-03  9.85640315E-03
  6.78126241E-03  2.03741139E-02  2.52772877E-03 -6.40511960E-05  8.56166210E-04
  1.13155388E-03  1.38072051E-03  8.26230556E-04  1.30283767E-03 -3.10764755E-03
 -6.11956158E-04 -2.80986846E-02  9.63603296E-03 -5.88366695E-03 -1.01147542E-03
 -1.75281751E-02  9.25116022E-03 -4.28203576E-04 -2.73197202E-04 -8.19638615E-04
 -8.06633686E-04  8.12615400E-04  1.42714750E-03 -2.74653324E-03  4.06275428E-01
 -1.28686273E-01 -2.70612772E-01 -8.80781494E-03  2.33165508E-01 -6.99749482E-02
 -1.58250556E-01 -1.09685523E-02  9.88895111E-04 -1.61831751E-02  1.92203183E-02
  1.52879288E-02 -1.48773811E-02 -9.46172359E-03 -1.43043921E-04 -5.44978751E-04
  1.25653134E-03  1.48580635E-02  5.92076307E-03 -1.58418863E-03  2.16710771E-04
 -6.18709125E-04 -3.31267263E-03 -1.72568319E-03 -2.23084711E-04 -6.13639811E-04
  5.41930607E-04  1.53796192E-02  4.54559273E-03  2.28995524E-04  1.26606738E-03
  2.29500462E-04 -2.31649290E-01 -1.10600222E-01  4.93305870E-04  1.74626119E-02
  1.40649169E-02  2.37481854E-01  1.18856301E-01 -1.94936577E-02 -1.04348197E-02
 -3.02718904E-03 -5.53644057E-03  1.02819347E-02  3.21695733E-01  3.38107373E-01
 -1.09692625E-01  2.80799612E-02  1.84366054E-01  2.00536113E-01 -6.60341374E-02
 -8.11127461E-03  1.19773734E-02  1.79962593E-02  1.85087239E-02  4.51696068E-03
  1.04597236E-02 -2.39804217E-02 -3.45904585E-02 -8.30379241E-03  1.67119256E-01
 -4.91678305E-02 -1.78278297E-02 -1.48157731E-02  1.12526189E-01  5.86324826E-03
 -7.04890754E-03 -2.67945602E-04  2.26949684E-03  1.22882100E-03 -1.46001838E-03
  2.88163272E-03 -3.34291996E-02  7.27660824E-03  1.70630275E-02  8.13264656E-03
 -2.00801321E-02  5.22373304E-03  9.92986395E-03  7.54155600E-04 -1.55003699E-04
  1.03766691E-03 -1.38919108E-03 -1.18141253E-03 -2.29971862E-01 -1.09587612E-01
  1.37751375E-03 -1.41875885E-02  1.53013833E-02  2.10380658E-01  9.27182174E-02
 -1.82059491E-02 -5.08172438E-04 -1.19522124E-02  7.76645326E-02  3.87242136E-02
  4.37946966E-03 -4.39276209E-03 -3.44642823E-03 -1.90131205E-03 -5.15160583E-03
 -8.70554468E-04  4.83833146E-04  4.78041973E-03  1.51610449E-02  1.04776125E-03
  1.82881662E-04 -1.13023861E-03 -1.45862294E-03 -1.91128324E-02 -8.50080893E-03
  1.52180396E-03  7.42364830E-04  1.90193190E-04 -2.62291886E-02  6.03987754E-02
 -1.98757035E-01 -3.28808493E-02 -6.59016944E-02  1.11172445E-01 -1.36280631E-01
 -1.10696502E-02 -4.95770415E-02  1.47333081E-03 -9.48311900E-03 -7.58550177E-04
 -6.45073630E-03  1.05814109E-03  6.10465669E-02 -1.43826038E-01 -2.62200813E-01
 -2.56550171E-01  3.44807144E-01 -2.66076561E-01 -1.87096863E-01 -1.86743830E-01
  2.44364647E-01  4.41073003E-03 -1.76919564E-02 -1.09556579E-02 -1.16439610E-03
  1.08624333E-02 -7.16352230E-03  1.48604197E-02 -3.98696030E-02 -2.89815771E-02
 -1.79697566E-02  3.82769013E-02 -3.02769261E-02 -1.77341463E-02 -1.30607325E-02
  8.59008320E-04 -7.79568521E-04 -7.55270971E-04 -3.93642503E-04 -1.83948059E-03
  2.06381970E-02 -1.49911855E-02 -5.57783558E-03  3.96020786E-03 -5.10252559E-03
 -9.97306130E-02 -5.20718992E-02  7.68333040E-03  4.10993581E-03  2.40335869E-03
  1.34600995E-01  7.76517065E-02  2.07493424E-03 -1.47347443E-02 -4.85250871E-03
  1.26490458E-01  6.56615687E-02 -5.57872148E-03  1.11133487E-02  1.01801275E-02
 -6.96143821E-03 -2.04079664E-02 -1.61339085E-03  4.91656363E-04 -3.30643307E-04
 -1.96256748E-02 -8.51656063E-03  1.52607574E-03 -3.55963973E-04 -7.66867205E-04
 -1.83237943E-03  3.92119209E-03 -7.39249385E-03 -1.31138746E-02 -2.75334700E-02
  8.42550274E-03 -4.39128362E-03 -1.19771267E-02 -2.22525264E-02 -8.98136179E-04
 -1.20155067E-03  1.62829631E-04 -6.13279880E-04 -6.25359610E-04  6.39593888E-03
 -1.55346439E-02 -2.92515972E-02 -2.26867350E-02  3.46113178E-02 -2.62898730E-02
 -2.02636330E-02 -1.81050589E-02  2.33129427E-02  5.54575909E-04 -1.92080931E-03
 -1.04414476E-03 -2.60959184E-05  1.14266876E-03  6.48195086E-02 -1.50272828E-01
  2.81271605E-01  4.11291100E-01  2.35599672E-01 -2.79896258E-01  2.11824486E-01
  3.04892074E-01  1.73277351E-01 -7.45679258E-03  4.83658978E-03  1.58974394E-02
 -4.72833407E-03  1.44555285E-02 -3.20549186E-03 -3.34405029E-03 -4.34446124E-04
 -4.77810086E-04 -5.95105054E-04 -9.92036640E-03  4.22243844E-04  7.47400003E-04
  9.86111065E-05 -4.07538886E-04  1.52975194E-02  9.51539884E-03  2.24781086E-04
 -1.49468678E-03 -6.56672993E-04  1.08381367E-02  3.77191029E-03 -7.58757335E-04
  7.42991552E-04  1.06835232E-03  1.45031123E-01  6.38001765E-02  1.39838143E-02
 -2.16185410E-03 -7.04483881E-03  1.38875641E-01  6.67860582E-02 -1.06649628E-02
  7.66082322E-03  9.23035178E-03  5.38110832E-02 -1.27682788E-01  2.76734508E-01
 -1.59742071E-01  3.44766372E-01 -2.18649174E-01  2.02140170E-01 -1.28719731E-01
  2.59837397E-01  5.70894753E-03  1.53329631E-02 -1.06647646E-02  4.91064209E-03
 -1.94131453E-03  2.50855768E-02 -6.13930081E-02 -3.16268020E-01 -7.62654175E-02
 -5.50359072E-02 -1.06287358E-01 -2.41913142E-01 -4.11193134E-02 -5.19914942E-02