Atom number=9                                                           
SP        RHF                                                         6-31G(d,p)          
Number of atoms                            I                9
Info1-9                                    I   N=           9
         107         106           0           0           0         111
           1           1           2
Full Title                                 C   N=           2
Atom number=9           
Route                                      C   N=           4
#p hf/6-31g** 5d 7f pop=npa charge nosymm       
Charge                                     I                0
Multiplicity                               I                1
Number of electrons                        I               30
Number of alpha electrons                  I               15
Number of beta electrons                   I               15
Number of basis functions                  I               72
Number of independent functions            I               72
Number of point charges in /Mol/           I                0
Number of translation vectors              I                0
Atomic numbers                             I   N=           9
           8           8           8           1           1           1
           1           1           1
Nuclear charges                            R   N=           9
  8.00000000E+00  8.00000000E+00  8.00000000E+00  1.00000000E+00  1.00000000E+00
  1.00000000E+00  1.00000000E+00  1.00000000E+00  1.00000000E+00
Current cartesian coordinates              R   N=          27
  1.58591958E+01 -2.23232232E+01 -2.11658453E+01  1.90577217E+01 -1.81470343E+01
 -2.58786843E+01  1.79028344E+01 -1.51124951E+01 -2.06321073E+01  1.54490326E+01
 -2.36930366E+01 -2.00580047E+01  1.74840371E+01 -2.17584956E+01 -2.06064713E+01
  1.85910557E+01 -1.86665521E+01 -2.75472898E+01  1.75122961E+01 -1.81949823E+01
 -2.49399156E+01  1.88925747E+01 -1.66213261E+01 -2.05065293E+01  1.81855715E+01
 -1.42529872E+01 -1.90658267E+01
Number of symbols in /Mol/                 I                0
Force Field                                I                0
Atom Types                                 C   N=           9
                                                            
                                                
Int Atom Types                             I   N=           9
           0           0           0           0           0           0
           0           0           0
MM charges                                 R   N=           9
  0.00000000E+00  0.00000000E+00  0.00000000E+00  0.00000000E+00  0.00000000E+00
  0.00000000E+00  0.00000000E+00  0.00000000E+00  0.00000000E+00
Integer atomic weights                     I   N=           9
          16          16          16           1           1           1
           1           1           1
Real atomic weights                        R   N=           9
  1.59949146E+01  1.59949146E+01  1.59949146E+01  1.00782504E+00  1.00782504E+00
  1.00782504E+00  1.00782504E+00  1.00782504E+00  1.00782504E+00
Atom fragment info                         I   N=           9
           0           0           0           0           0           0
           0           0           0
Atom residue num                           I   N=           9
           0           0           0           0           0           0
           0           0           0
Nuclear spins                              I   N=           9
           0           0           0           1           1           1
           1           1           1
Nuclear ZEff                               R   N=           9
 -5.60000000E+00 -5.60000000E+00 -5.60000000E+00 -1.00000000E+00 -1.00000000E+00
 -1.00000000E+00 -1.00000000E+00 -1.00000000E+00 -1.00000000E+00
Nuclear ZNuc                               R   N=           9
  8.00000000E+00  8.00000000E+00  8.00000000E+00  1.00000000E+00  1.00000000E+00
  1.00000000E+00  1.00000000E+00  1.00000000E+00  1.00000000E+00
Nuclear QMom                               R   N=           9
  0.00000000E+00  0.00000000E+00  0.00000000E+00  0.00000000E+00  0.00000000E+00
  0.00000000E+00  0.00000000E+00  0.00000000E+00  0.00000000E+00
Nuclear GFac                               R   N=           9
  0.00000000E+00  0.00000000E+00  0.00000000E+00  2.79284600E+00  2.79284600E+00
  2.79284600E+00  2.79284600E+00  2.79284600E+00  2.79284600E+00
MicOpt                                     I   N=           9
          -1          -1          -1          -1          -1          -1
          -1          -1          -1
Number of residues                         I                0
Number of secondary structures             I                0
Number of contracted shells                I               30
Number of primitive shells                 I               63
Pure/Cartesian d shells                    I                0
Pure/Cartesian f shells                    I                0
Highest angular momentum                   I                2
Largest degree of contraction              I                6
Shell types                                I   N=          30
           0          -1          -1          -2           0          -1
          -1          -2           0          -1          -1          -2
           0           0           1           0           0           1
           0           0           1           0           0           1
           0           0           1           0           0           1
Number of primitives per shell             I   N=          30
           6           3           1           1           6           3
           1           1           6           3           1           1
           3           1           1           3           1           1
           3           1           1           3           1           1
           3           1           1           3           1           1
Shell to atom map                          I   N=          30
           1           1           1           1           2           2
           2           2           3           3           3           3
           4           4           4           5           5           5
           6           6           6           7           7           7
           8           8           8           9           9           9
Primitive exponents                        R   N=          63
  5.48467166E+03  8.25234946E+02  1.88046958E+02  5.29645000E+01  1.68975704E+01
  5.79963534E+00  1.55396162E+01  3.59993359E+00  1.01376175E+00  2.70005823E-01
  8.00000000E-01  5.48467166E+03  8.25234946E+02  1.88046958E+02  5.29645000E+01
  1.68975704E+01  5.79963534E+00  1.55396162E+01  3.59993359E+00  1.01376175E+00
  2.70005823E-01  8.00000000E-01  5.48467166E+03  8.25234946E+02  1.88046958E+02
  5.29645000E+01  1.68975704E+01  5.79963534E+00  1.55396162E+01  3.59993359E+00
  1.01376175E+00  2.70005823E-01  8.00000000E-01  1.87311370E+01  2.82539436E+00
  6.40121692E-01  1.61277759E-01  1.10000000E+00  1.87311370E+01  2.82539436E+00
  6.40121692E-01  1.61277759E-01  1.10000000E+00  1.87311370E+01  2.82539436E+00
  6.40121692E-01  1.61277759E-01  1.10000000E+00  1.87311370E+01  2.82539436E+00
  6.40121692E-01  1.61277759E-01  1.10000000E+00  1.87311370E+01  2.82539436E+00
  6.40121692E-01  1.61277759E-01  1.10000000E+00  1.87311370E+01  2.82539436E+00
  6.40121692E-01  1.61277759E-01  1.10000000E+00
Contraction coefficients                   R   N=          63
  1.83107443E-03  1.39501722E-02  6.84450781E-02  2.32714336E-01  4.70192898E-01
  3.58520853E-01 -1.10777550E-01 -1.48026263E-01  1.13076702E+00  1.00000000E+00
  1.00000000E+00  1.83107443E-03  1.39501722E-02  6.84450781E-02  2.32714336E-01
  4.70192898E-01  3.58520853E-01 -1.10777550E-01 -1.48026263E-01  1.13076702E+00
  1.00000000E+00  1.00000000E+00  1.83107443E-03  1.39501722E-02  6.84450781E-02
  2.32714336E-01  4.70192898E-01  3.58520853E-01 -1.10777550E-01 -1.48026263E-01
  1.13076702E+00  1.00000000E+00  1.00000000E+00  3.34946043E-02  2.34726953E-01
  8.13757326E-01  1.00000000E+00  1.00000000E+00  3.34946043E-02  2.34726953E-01
  8.13757326E-01  1.00000000E+00  1.00000000E+00  3.34946043E-02  2.34726953E-01
  8.13757326E-01  1.00000000E+00  1.00000000E+00  3.34946043E-02  2.34726953E-01
  8.13757326E-01  1.00000000E+00  1.00000000E+00  3.34946043E-02  2.34726953E-01
  8.13757326E-01  1.00000000E+00  1.00000000E+00  3.34946043E-02  2.34726953E-01
  8.13757326E-01  1.00000000E+00  1.00000000E+00
P(S=P) Contraction coefficients            R   N=          63
  0.00000000E+00  0.00000000E+00  0.00000000E+00  0.00000000E+00  0.00000000E+00
  0.00000000E+00  7.08742682E-02  3.39752839E-01  7.27158577E-01  1.00000000E+00
  0.00000000E+00  0.00000000E+00  0.00000000E+00  0.00000000E+00  0.00000000E+00
  0.00000000E+00  0.00000000E+00  7.08742682E-02  3.39752839E-01  7.27158577E-01
  1.00000000E+00  0.00000000E+00  0.00000000E+00  0.00000000E+00  0.00000000E+00
  0.00000000E+00  0.00000000E+00  0.00000000E+00  7.08742682E-02  3.39752839E-01
  7.27158577E-01  1.00000000E+00  0.00000000E+00  0.00000000E+00  0.00000000E+00
  0.00000000E+00  0.00000000E+00  0.00000000E+00  0.00000000E+00  0.00000000E+00
  0.00000000E+00  0.00000000E+00  0.00000000E+00  0.00000000E+00  0.00000000E+00
  0.00000000E+00  0.00000000E+00  0.00000000E+00  0.00000000E+00  0.00000000E+00
  0.00000000E+00  0.00000000E+00  0.00000000E+00  0.00000000E+00  0.00000000E+00
  0.00000000E+00  0.00000000E+00  0.00000000E+00  0.00000000E+00  0.00000000E+00
  0.00000000E+00  0.00000000E+00  0.00000000E+00
Coordinates of each shell                  R   N=          90
  1.58591958E+01 -2.23232232E+01 -2.11658453E+01  1.58591958E+01 -2.23232232E+01
 -2.11658453E+01  1.58591958E+01 -2.23232232E+01 -2.11658453E+01  1.58591958E+01
 -2.23232232E+01 -2.11658453E+01  1.90577217E+01 -1.81470343E+01 -2.58786843E+01
  1.90577217E+01 -1.81470343E+01 -2.58786843E+01  1.90577217E+01 -1.81470343E+01
 -2.58786843E+01  1.90577217E+01 -1.81470343E+01 -2.58786843E+01  1.79028344E+01
 -1.51124951E+01 -2.06321073E+01  1.79028344E+01 -1.51124951E+01 -2.06321073E+01
  1.79028344E+01 -1.51124951E+01 -2.06321073E+01  1.79028344E+01 -1.51124951E+01
 -2.06321073E+01  1.54490326E+01 -2.36930366E+01 -2.00580047E+01  1.54490326E+01
 -2.36930366E+01 -2.00580047E+01  1.54490326E+01 -2.36930366E+01 -2.00580047E+01
  1.74840371E+01 -2.17584956E+01 -2.06064713E+01  1.74840371E+01 -2.17584956E+01
 -2.06064713E+01  1.74840371E+01 -2.17584956E+01 -2.06064713E+01  1.85910557E+01
 -1.86665521E+01 -2.75472898E+01  1.85910557E+01 -1.86665521E+01 -2.75472898E+01
  1.85910557E+01 -1.86665521E+01 -2.75472898E+01  1.75122961E+01 -1.81949823E+01
 -2.49399156E+01  1.75122961E+01 -1.81949823E+01 -2.49399156E+01  1.75122961E+01
 -1.81949823E+01 -2.49399156E+01  1.88925747E+01 -1.66213261E+01 -2.05065293E+01
  1.88925747E+01 -1.66213261E+01 -2.05065293E+01  1.88925747E+01 -1.66213261E+01
 -2.05065293E+01  1.81855715E+01 -1.42529872E+01 -1.90658267E+01  1.81855715E+01
 -1.42529872E+01 -1.90658267E+01  1.81855715E+01 -1.42529872E+01 -1.90658267E+01
Num ILSW                                   I              100
ILSW                                       I   N=         100
           0           0           0           0           2           0
           0           0           0           0           0          -1
           5           0           0           0           0           0
           0           0           0           0           0           0
           1           1           0           0           0           0
           0           0      100000           0          -1           0
           0           0           0           0           0           0
           0           0           0           1           0           0
           0 -2000000000           1           0           0           0
           0           0           4          52           0           0
           0           1           0           0           0           0
           0           0           0           9           0           1
           0           0           0           0           0           0
           0           0           0           0           0           0
           0           0           0           0           0           0
           0           0           0           0           0           0
           0           0           0           0
Num RLSW                                   I               52
RLSW                                       R   N=          52
  1.00000000E+00  1.00000000E+00  1.00000000E+00  1.00000000E+00  1.00000000E+00
  0.00000000E+00  0.00000000E+00  1.00000000E+00  0.00000000E+00  0.00000000E+00
  0.00000000E+00  0.00000000E+00  1.00000000E+00  0.00000000E+00  0.00000000E+00
  0.00000000E+00  0.00000000E+00  1.00000000E+00  0.00000000E+00  0.00000000E+00
  0.00000000E+00  0.00000000E+00  1.00000000E+00  0.00000000E+00  0.00000000E+00
  0.00000000E+00  0.00000000E+00  1.00000000E+00  0.00000000E+00  0.00000000E+00
  0.00000000E+00  0.00000000E+00  1.00000000E+00  0.00000000E+00  0.00000000E+00
  0.00000000E+00  0.00000000E+00  0.00000000E+00  1.00000000E+00  1.00000000E+00
  0.00000000E+00  1.00000000E+00  0.00000000E+00  0.00000000E+00  0.00000000E+00
  0.00000000E+00  0.00000000E+00  0.00000000E+00  0.00000000E+00  0.00000000E+00
  0.00000000E+00  0.00000000E+00
MxBond                                     I                2
NBond                                      I   N=           9
           2           2           2           1           1           1
           1           1           1
IBond                                      I   N=          18
           4           5           6           7           8           9
           1           0           1           0           2           0
           2           0           3           0           3           0
RBond                                      R   N=          18
  1.00000000E+00  1.00000000E+00  1.00000000E+00  1.00000000E+00  1.00000000E+00
  1.00000000E+00  1.00000000E+00  0.00000000E+00  1.00000000E+00  0.00000000E+00
  1.00000000E+00  0.00000000E+00  1.00000000E+00  0.00000000E+00  1.00000000E+00
  0.00000000E+00  1.00000000E+00  0.00000000E+00
Virial Ratio                               R      2.063690521054771E+00
SCF Energy                                 R     -2.421651504837013E+02
Total Energy                               R     -2.421651504837013E+02
RMS Density                                R      8.611175196010758E-09
Job Status                                 I                1
Nuclear derivative order                   I                0
External E-field                           R   N=          35
  0.00000000E+00  0.00000000E+00  0.00000000E+00  0.00000000E+00  0.00000000E+00
  0.00000000E+00  0.00000000E+00  0.00000000E+00  0.00000000E+00  0.00000000E+00
  0.00000000E+00  0.00000000E+00  0.00000000E+00  0.00000000E+00  0.00000000E+00
  0.00000000E+00  0.00000000E+00  0.00000000E+00  0.00000000E+00  0.00000000E+00
  0.00000000E+00  0.00000000E+00  0.00000000E+00  0.00000000E+00  0.00000000E+00
  0.00000000E+00  0.00000000E+00  0.00000000E+00  0.00000000E+00  0.00000000E+00
  0.00000000E+00  0.00000000E+00  0.00000000E+00  0.00000000E+00  0.00000000E+00
IOpCl                                      I                0
IROHF                                      I                0
Alpha Orbital Energies                     R   N=          72
 -2.06115451E+01 -2.05432818E+01 -2.05201132E+01 -1.39304884E+00 -1.32584962E+00
 -1.30179937E+00 -7.52958012E-01 -6.85341033E-01 -6.64152149E-01 -6.27928851E-01
 -5.65108954E-01 -5.54230580E-01 -5.42479930E-01 -4.89302229E-01 -4.63542403E-01
  1.68523670E-01  2.41999193E-01  3.00349408E-01  3.07136948E-01  3.87954243E-01
  4.03432676E-01  9.38374103E-01  1.01573012E+00  1.04361873E+00  1.07443235E+00
  1.09795541E+00  1.11732657E+00  1.12885365E+00  1.16113822E+00  1.17020558E+00
  1.19383785E+00  1.22326924E+00  1.23733845E+00  1.30503132E+00  1.31675325E+00
  1.38985231E+00  1.55722733E+00  1.63908379E+00  1.67709232E+00  1.75639620E+00
  1.77516202E+00  1.82202196E+00  1.83847267E+00  1.84665521E+00  1.86408402E+00
  1.86876643E+00  1.93320460E+00  1.95772223E+00  2.53377902E+00  2.54148732E+00
  2.61033398E+00  2.61206030E+00  2.63064170E+00  2.63212570E+00  2.76583525E+00
  2.83834196E+00  2.87501374E+00  2.92875541E+00  2.94502556E+00  3.00182989E+00
  3.01342970E+00  3.02321361E+00  3.03552466E+00  3.33180397E+00  3.40455078E+00
  3.42323468E+00  3.71058179E+00  3.78768898E+00  3.80928721E+00  3.89936088E+00
  3.95059203E+00  3.99453494E+00
Alpha MO coefficients                      R   N=        5184
 -1.86086244E-05 -4.49287275E-05 -4.15043958E-06  7.84628834E-06 -2.15290631E-07
  2.18647045E-04  1.14183705E-04  7.31989357E-06  4.68280277E-05 -7.06956012E-06
  1.22206722E-05 -4.71929368E-06  1.35292606E-05  1.41562598E-05  8.33146981E-06
  3.92130325E-05  8.30341596E-06 -1.95156126E-06  1.42664503E-05 -1.23154750E-04
  4.64958628E-05 -6.57063268E-06 -1.19121404E-04 -6.46852668E-07  2.18849090E-05
 -3.56124692E-07 -1.61627787E-05 -1.58285179E-06  9.95708700E-01  2.19814983E-02
  1.13472517E-03 -5.78069696E-04  1.61338353E-03 -5.99899199E-03 -5.61774479E-04
  3.24359522E-04 -7.26445307E-04  4.46333190E-05  9.03246382E-05  2.59312341E-04
 -2.09246678E-04 -2.40836857E-04 -3.87880664E-05  4.61166376E-05 -6.31999251E-06
 -2.77123481E-06  2.69048035E-06  7.93458767E-06 -3.02430929E-04  4.77644640E-05
  9.92311417E-06  1.55522474E-05 -1.19568698E-05 -5.60208302E-05 -4.31964819E-06
 -5.30829018E-06 -5.11684026E-06  1.40293808E-05  1.38055698E-04  3.58017060E-05
 -2.32511365E-06 -2.34496363E-05 -5.01542459E-04  1.35227949E-03  6.32079952E-04
 -9.17584278E-04  1.36429750E-04 -5.21531150E-04  1.23836208E-03  2.25727719E-04
  5.07542704E-04  1.03683941E-03  9.95702305E-01  2.19933367E-02  1.08137021E-03
 -6.97091523E-04  1.48531578E-03 -5.98146017E-03 -5.44476953E-04  3.18607799E-04
 -7.05052507E-04 -1.26535737E-04  6.78947938E-05 -2.35522869E-04  5.47010396E-05
  3.19693783E-04  2.57319354E-05  2.72659091E-05  1.08315334E-08 -6.34117844E-06
  2.74837612E-06 -1.03180062E-04  6.07870142E-05  1.79795916E-05 -4.79037167E-05
  4.97671664E-06  1.64861129E-05  4.08245753E-06 -1.33899749E-05 -2.12282226E-06
  1.05054691E-05 -4.13064201E-05 -6.98719084E-06 -2.53755790E-06  1.05373601E-06
  1.94613459E-04  7.85055318E-05 -8.78833111E-05  7.50813997E-06 -1.01642046E-05
  4.32543600E-06 -1.11162391E-06 -9.26376976E-06 -2.16128349E-05 -5.03846609E-04
  1.23560170E-03 -2.00308504E-04 -8.53898391E-04  7.29169580E-04 -5.05559664E-04
  1.32812206E-03  1.00987300E-03  3.06361625E-04  3.93518770E-04  6.47290466E-06
 -2.56479932E-05 -5.34686583E-06 -4.23350374E-06 -4.38043343E-07  1.45161248E-05
  1.18674301E-04  2.80510274E-05  2.47654616E-06 -1.89346431E-05 -2.10054701E-07
 -2.77661067E-04  3.18031363E-05 -3.38387565E-05  3.48505174E-06 -2.28963990E-05
  4.73530987E-05 -4.74625748E-06  1.63373557E-06  3.72836191E-07 -2.53623171E-05
  8.78047338E-06 -1.15877478E-06  1.88098214E-05 -2.07920673E-05  5.38844743E-05
 -3.54313269E-05 -1.23283763E-04  1.04783781E-04  8.98430251E-06 -7.79665095E-06
 -2.35218264E-05 -2.05130872E-05 -4.99090406E-06  9.95701941E-01  2.20076405E-02
 -1.76639020E-03 -5.48356905E-04 -6.16267901E-04 -6.02314322E-03  8.86900383E-04
  2.55744139E-04  2.76337116E-04  2.76166171E-04 -1.51998283E-04  1.65711380E-04
  2.12470503E-04  5.09575680E-05 -4.51886610E-06  3.31680460E-05 -1.55742872E-05
 -1.22463386E-05 -1.78642349E-05 -5.91538082E-05  1.92595438E-05  1.06529922E-04
  1.00018938E-04  1.24237100E-05  6.01657436E-07  1.00901620E-06  1.04550065E-05
  1.50290866E-05 -7.40749992E-05 -6.42848819E-05 -8.97223370E-06 -2.26933842E-05
  1.70206498E-05  4.43768586E-05 -4.82376439E-05 -5.33592037E-06  9.91594009E-06
 -1.39666415E-05 -4.90663017E-04  1.23658758E-03 -3.56208735E-04 -3.31263303E-04
 -1.02477490E-03 -5.07509652E-04  1.36666371E-03 -9.86126405E-04 -4.99253772E-05
  5.26231660E-04  2.80882721E-05  3.82405738E-05 -1.76333266E-05  1.71424997E-05
 -2.06277936E-06 -3.62268066E-05 -5.63276809E-05 -1.04466819E-06  3.13661896E-06
  1.31723234E-05 -5.55602088E-04  1.56365436E-03  2.18474545E-04  1.44797962E-05
  1.57786469E-04 -4.05761004E-04 -8.25185271E-04  8.65319316E-05 -2.02751343E-04
  3.95257380E-05 -5.29309698E-05  3.05527297E-05 -7.04337972E-05 -6.57363401E-05
 -2.56352317E-03  5.40936025E-03 -1.01797693E-03 -7.24578167E-06  2.88021026E-04
  5.13334795E-03 -1.42823542E-04  6.84176653E-04  1.64182926E-03 -3.37933986E-05
 -2.19725388E-04  5.39605620E-05  9.51616465E-05 -2.58785512E-05 -2.12652017E-01
  4.70328442E-01  4.48258189E-02 -2.32896703E-02  6.39030332E-02  4.45776493E-01
  1.36816176E-02 -9.15020621E-03  2.64162247E-02  1.58058807E-03  2.53775689E-03
 -8.91777710E-04 -5.19264876E-04 -1.95107500E-03  5.50866570E-04 -3.66524452E-04
  6.10551611E-05  6.61156363E-05 -6.30676073E-05  3.13561550E-04  2.68720026E-03
 -3.28399607E-04 -1.14295381E-04 -1.10166524E-04  1.73578401E-03  5.04024993E-04
  9.74771025E-05  1.08409962E-04  3.66248049E-04  1.95795048E-03  9.77078485E-04
  1.96981246E-04  1.28435981E-04  4.48524883E-05  1.41150753E-01  5.12355363E-03
 -1.34956951E-02  2.27257653E-02  5.30703224E-04  1.45096643E-01  1.12145097E-02
 -2.56983159E-03 -1.46291637E-02 -2.17456765E-02 -2.13254871E-01  4.69384457E-01
  4.40544357E-02 -2.80690633E-02  5.99497636E-02  4.52915485E-01  1.69989276E-02
 -7.06183301E-03  2.02847091E-02  2.77201608E-04  2.32311127E-03 -2.43970046E-03
  1.31285074E-04 -5.34943068E-05 -3.35058327E-03  7.70253037E-03 -1.27872314E-03
 -3.69719035E-04 -1.47956928E-04  5.43650536E-03  3.52192420E-04 -6.91705492E-04
 -4.56602726E-04  1.97672988E-06  8.56509325E-05  6.91212769E-07 -4.24473553E-05
  3.09273251E-05  8.17822310E-04 -1.37769934E-03 -1.20241987E-04 -1.32891825E-04
 -3.33972185E-04 -3.61969102E-03 -9.28049779E-04  8.73101717E-04  1.41109974E-04
  8.59545332E-05 -3.39810366E-05  1.08557182E-05  5.65240077E-05  1.71542507E-04
  1.40944567E-01  7.75557574E-03  7.48071894E-03  2.05438017E-02 -1.50836398E-02
  1.40104069E-01  4.49044595E-03 -2.41426608E-02 -9.98506392E-03 -6.85230678E-03
  2.18612766E-03 -3.19093447E-04  6.67576739E-05  1.57122959E-04  3.70625582E-04
  2.41634735E-03  3.11870024E-03  5.65932706E-04 -8.71336034E-05 -2.88732432E-04
 -4.37919972E-04  3.35796882E-03 -1.78870977E-04  2.01004452E-04 -4.88719016E-05
 -5.35192996E-04 -7.31366319E-04  5.73494334E-05  6.25794082E-05  1.02428858E-04
  3.62772149E-03 -7.86617285E-03 -6.40210132E-04  6.33993895E-04 -1.13750389E-03
 -8.92624219E-03 -1.83018318E-04  1.16389200E-03 -1.74206449E-03 -5.25793702E-05
 -2.81153113E-05  2.18551011E-04  1.20986511E-04 -2.69371473E-06 -2.13288722E-01
  4.70493056E-01 -7.10967394E-02 -2.17554065E-02 -2.47462821E-02  4.50766705E-01
 -2.11246360E-02 -9.49780786E-03 -4.97247677E-03  6.30314907E-04  5.81934250E-04
  1.20514396E-03  3.04631622E-03  1.01891771E-03  3.04389483E-03 -6.89967492E-03
 -4.87890936E-04 -2.81745406E-04 -1.76949751E-03 -7.55328432E-03 -4.98916615E-04
 -9.47473865E-04 -3.28532053E-03 -1.57501786E-04 -1.93667375E-04 -6.70879265E-06
 -4.79168100E-05 -1.30557947E-04 -1.96878102E-03  3.28037153E-04 -6.91315513E-05
 -1.85088266E-04  1.56833797E-04 -2.67902299E-03  1.62744250E-03  3.27504062E-04
  8.20805969E-05  1.59658191E-04  1.41511725E-01  7.42335870E-03  5.36641463E-03
  7.40845123E-03  2.47624015E-02  1.42224725E-01  5.90177750E-03  2.18945125E-02
 -1.36575962E-04 -1.47623455E-02 -2.05994075E-03  2.43320475E-03  1.96248312E-04
 -3.02378728E-04 -9.80645495E-05 -1.97463384E-03  3.63317294E-04  1.75484279E-05
  1.30835702E-04  1.89526301E-04 -5.41154365E-04  1.30230893E-03 -7.51774291E-03
 -9.17250737E-03  1.88798809E-03  2.02634753E-03 -4.13579733E-03 -6.69845974E-03
  1.45344749E-03  2.44696563E-04 -3.51356835E-04 -5.95762488E-04 -4.78112820E-04
 -2.02712436E-04 -1.67323898E-03  4.70589632E-03  7.92418150E-03 -8.05780231E-03
 -3.06134490E-02  2.27576992E-03  4.57463256E-03 -5.56244797E-03 -1.96474420E-02
  5.52907159E-04  1.70818477E-03  2.99732153E-04 -6.85179095E-04  2.25124671E-04
  2.58627968E-03 -5.76235797E-03 -1.27962834E-01  4.20122326E-01  2.50394146E-01
 -1.57660487E-02 -7.48309107E-02  2.37551239E-01  1.37287824E-01  2.19946574E-02
  2.18148754E-03  1.65729874E-02  3.37915691E-03  1.69419878E-02  5.54408724E-03
  1.87756373E-03 -5.20866225E-05  3.31764986E-04 -3.55118353E-04 -5.02185105E-03
 -3.86808278E-03  3.97042653E-04 -9.96526855E-05  2.49483999E-04  1.66981556E-02
  5.58293943E-03  8.85010000E-04  4.84321712E-04  1.54064641E-03 -1.37352357E-02
 -5.62708197E-03 -9.68628112E-04 -6.28026092E-04 -9.48976361E-04 -2.35764315E-01
 -1.07406180E-01  1.41638324E-02 -1.58492450E-02  7.81519176E-03  2.39642616E-01
  1.29003764E-01 -8.34623842E-03 -4.29100138E-03 -1.91977378E-02 -5.30795198E-04
 -7.27851835E-04  3.56149955E-01  3.46716786E-01 -1.02747155E-01  7.39204353E-03
  2.09592064E-01  2.07109227E-01 -6.21491265E-02 -8.53940288E-03  1.34029176E-02
  1.83716175E-02  2.00119580E-02  4.35401361E-03  1.20127277E-03 -2.53467649E-03
 -1.95960861E-02  3.94879911E-03  4.49265343E-02 -6.31064328E-03 -1.03155747E-02
  1.64911535E-04  2.62790959E-02 -1.52602336E-03 -2.16530114E-03 -1.08467145E-03
  1.04704173E-03  1.10650266E-04  1.14860267E-03 -2.13136029E-03 -7.36613348E-03
  1.38706850E-02  1.16282006E-02 -7.43774873E-03 -6.82050987E-03  8.44925853E-03
  6.82752747E-03  9.83855397E-04 -2.23646628E-05  5.55556624E-04  2.20744758E-05
  8.39402069E-04 -2.34580622E-01 -1.02615946E-01  2.61785504E-03 -1.55002031E-02
  1.66810550E-02  2.26859182E-01  9.83320685E-02 -1.91558699E-02 -1.02815268E-03
 -1.25867034E-02 -2.22234178E-02 -1.03764789E-02 -1.39121023E-03 -6.45300937E-04
 -1.62740772E-03  2.29822900E-02  1.72187082E-02  2.33444142E-03 -2.37794170E-04
 -4.84369587E-05 -8.71389586E-03  3.83379798E-03  1.43316948E-04 -5.39816180E-04
  2.33480789E-04  9.26509999E-03  4.73514454E-03 -3.21105921E-04 -1.74561022E-04
 -6.67706212E-04 -1.69070078E-04  8.70967974E-04 -4.24587936E-02 -3.39160445E-02
  3.25350438E-03 -9.92690177E-04 -2.61778904E-02 -1.89124157E-02 -7.03840887E-04
  7.70043734E-04 -1.81316453E-03 -1.71904533E-03 -2.21217425E-03 -4.30215054E-04
  4.78107920E-04 -1.90199153E-03 -1.88397916E-01  8.38817167E-02  4.57444984E-01
 -4.82843099E-04 -1.10997419E-01  4.99915948E-02  2.71038641E-01 -1.49931431E-02
 -2.20869323E-02 -9.78583655E-03  1.20126859E-02 -1.13420434E-03 -4.00564314E-03
  9.18099496E-03 -3.68485638E-02  5.10389995E-02 -2.29348927E-02  1.69721067E-02
 -2.61727724E-02  3.22737617E-02 -2.40356226E-02  8.03611292E-04 -1.94940380E-03
  2.39863668E-03  7.73429846E-06  2.19731174E-03  2.29688063E-02  1.07315431E-02
 -4.31366240E-04  1.52866323E-03 -1.79392466E-03 -2.70760371E-02 -7.42844777E-03
  2.10230726E-03  2.60023165E-04  1.14683345E-03 -2.29627428E-01 -1.05248988E-01
 -1.41548356E-02 -6.65113124E-03 -1.64970216E-02  2.28951224E-01  1.06899009E-01
  2.24284428E-02  2.67249127E-03 -2.67143074E-03 -3.24754685E-02 -7.43269812E-03
  1.47007584E-03 -2.62261305E-03 -1.16474144E-03  5.24776391E-03  4.50870917E-03
 -1.11939464E-03  1.20305416E-03 -1.02504531E-03  4.00621971E-04 -8.69228993E-04
 -4.87898719E-03 -4.92513282E-03  2.83293640E-03 -1.96113844E-03 -2.88910580E-03
 -2.78456857E-03  1.37491936E-03  1.27249547E-04 -1.56857793E-04 -2.34823887E-04
 -2.77654327E-04 -2.59189643E-05 -1.50308174E-03  2.16793336E-03 -1.69587571E-02
  3.14016539E-03  5.04994509E-02  1.33974345E-02 -1.43515352E-02 -2.71804466E-03
  2.98677394E-02 -1.44339452E-03 -2.31759831E-03 -1.25216468E-03  1.53421355E-03
  2.71966165E-04  6.74984836E-02 -1.58034814E-01  3.19344820E-01 -1.58036575E-01
  4.19691153E-01 -2.94511036E-01  2.34641700E-01 -1.24780101E-01  2.99583287E-01
  1.14312330E-02  2.02518808E-02 -5.59860191E-03  2.45415318E-03 -1.00365478E-02
  3.70533837E-03  1.83907525E-03 -2.74731291E-05  2.82655700E-04 -2.31897537E-04
 -2.88738180E-03 -1.53328551E-04  2.42613022E-04  9.77328737E-05  2.40913557E-04
 -2.56819046E-02 -1.01996811E-02 -1.45641081E-03 -7.97454987E-04 -1.93561053E-03
  2.39573594E-02 -8.03347337E-03  1.63950525E-03 -5.00844263E-04 -3.40854397E-04
  1.35278001E-01  6.43845387E-02 -1.65055061E-03  1.21535029E-02  1.14282665E-02
  1.49307671E-01  9.06629693E-02  6.08886369E-03 -1.48671831E-02 -4.71293713E-03
  6.35798989E-02 -1.48259629E-01  3.15191365E-01 -2.00916079E-01  4.09878703E-01
 -2.69551737E-01  2.33203303E-01 -1.56682978E-01  3.06857517E-01  6.66363106E-03
  1.78718195E-02 -1.27912605E-02  5.41393859E-03 -3.16219773E-03 -4.85864205E-03
  7.95196540E-03  2.49198454E-02  1.41903557E-02  1.97909540E-02  3.40870671E-02
  1.11038426E-02  1.24344350E-02  1.95994747E-02 -1.70205435E-04 -1.92778364E-03
 -6.22014631E-04  3.00212369E-04 -8.25215961E-04 -3.37715674E-04  6.92096774E-04
  8.83748945E-03  8.46879198E-03 -7.27520202E-03  1.40102886E-03  7.68028850E-03
  5.73913587E-03 -7.82350550E-03 -4.87069642E-04  7.47994143E-05  2.55836692E-04
  2.20858231E-04 -9.73445191E-05  1.34603842E-01  5.56397914E-02  1.25721783E-02
  9.49669258E-03 -4.28767675E-04  1.44561954E-01  6.15188469E-02 -1.04928485E-02
 -1.17875477E-02  4.27931609E-03 -1.33398837E-02 -1.39024111E-03  3.53946891E-04
 -1.98528077E-04 -1.00131495E-03 -3.90635366E-03 -2.97776406E-02 -1.57711810E-03
  7.89600237E-04  1.55700271E-03 -1.10280198E-03 -7.45929495E-04  4.54338717E-04
 -1.33732292E-04 -1.16492407E-04  7.34032517E-05  8.21999418E-04  2.04736935E-04
  1.70275544E-04 -3.36708710E-04 -2.69227391E-03  5.12352536E-03 -2.62724161E-03
  6.40446611E-03 -1.87471278E-02  1.70469392E-02  1.33997453E-03  2.85367236E-03
 -1.27956261E-02 -6.40374374E-04 -2.28444211E-04  3.84802949E-04  3.18021440E-04
  2.17539375E-04 -9.16867999E-03  1.97416403E-02  7.73150198E-02  2.56941175E-02
  2.10568436E-02  4.26366586E-02  5.63483825E-02  2.17829579E-02  2.21798704E-02