 Entering Gaussian System, Link 0=g16
 Input=w32_26.gjf
 Output=w32_26.log
 Initial command:
 /home/soft/g16/l1.exe "/tmp/liwei01/gaussian/wsr/Gau-6271.inp" -scrdir="/tmp/liwei01/gaussian/wsr/"
 Entering Link 1 = /home/soft/g16/l1.exe PID=      6272.
  
 Copyright (c) 1988,1990,1992,1993,1995,1998,2003,2009,2016,
            Gaussian, Inc.  All Rights Reserved.
  
 This is part of the Gaussian(R) 16 program.  It is based on
 the Gaussian(R) 09 system (copyright 2009, Gaussian, Inc.),
 the Gaussian(R) 03 system (copyright 2003, Gaussian, Inc.),
 the Gaussian(R) 98 system (copyright 1998, Gaussian, Inc.),
 the Gaussian(R) 94 system (copyright 1995, Gaussian, Inc.),
 the Gaussian 92(TM) system (copyright 1992, Gaussian, Inc.),
 the Gaussian 90(TM) system (copyright 1990, Gaussian, Inc.),
 the Gaussian 88(TM) system (copyright 1988, Gaussian, Inc.),
 the Gaussian 86(TM) system (copyright 1986, Carnegie Mellon
 University), and the Gaussian 82(TM) system (copyright 1983,
 Carnegie Mellon University). Gaussian is a federally registered
 trademark of Gaussian, Inc.
  
 This software contains proprietary and confidential information,
 including trade secrets, belonging to Gaussian, Inc.
  
 This software is provided under written license and may be
 used, copied, transmitted, or stored only in accord with that
 written license.
  
 The following legend is applicable only to US Government
 contracts under FAR:
  
                    RESTRICTED RIGHTS LEGEND
  
 Use, reproduction and disclosure by the US Government is
 subject to restrictions as set forth in subparagraphs (a)
 and (c) of the Commercial Computer Software - Restricted
 Rights clause in FAR 52.227-19.
  
 Gaussian, Inc.
 340 Quinnipiac St., Bldg. 40, Wallingford CT 06492
  
  
 ---------------------------------------------------------------
 Warning -- This program may not be used in any manner that
 competes with the business of Gaussian, Inc. or will provide
 assistance to any competitor of Gaussian, Inc.  The licensee
 of this program is prohibited from giving any competitor of
 Gaussian, Inc. access to this program.  By using this program,
 the user acknowledges that Gaussian, Inc. is engaged in the
 business of creating and licensing software in the field of
 computational chemistry and represents and warrants to the
 licensee that it is not a competitor of Gaussian, Inc. and that
 it will not use this program in any manner prohibited above.
 ---------------------------------------------------------------
  

 Cite this work as:
 Gaussian 16, Revision A.03,
 M. J. Frisch, G. W. Trucks, H. B. Schlegel, G. E. Scuseria, 
 M. A. Robb, J. R. Cheeseman, G. Scalmani, V. Barone, 
 G. A. Petersson, H. Nakatsuji, X. Li, M. Caricato, A. V. Marenich, 
 J. Bloino, B. G. Janesko, R. Gomperts, B. Mennucci, H. P. Hratchian, 
 J. V. Ortiz, A. F. Izmaylov, J. L. Sonnenberg, D. Williams-Young, 
 F. Ding, F. Lipparini, F. Egidi, J. Goings, B. Peng, A. Petrone, 
 T. Henderson, D. Ranasinghe, V. G. Zakrzewski, J. Gao, N. Rega, 
 G. Zheng, W. Liang, M. Hada, M. Ehara, K. Toyota, R. Fukuda, 
 J. Hasegawa, M. Ishida, T. Nakajima, Y. Honda, O. Kitao, H. Nakai, 
 T. Vreven, K. Throssell, J. A. Montgomery, Jr., J. E. Peralta, 
 F. Ogliaro, M. J. Bearpark, J. J. Heyd, E. N. Brothers, K. N. Kudin, 
 V. N. Staroverov, T. A. Keith, R. Kobayashi, J. Normand, 
 K. Raghavachari, A. P. Rendell, J. C. Burant, S. S. Iyengar, 
 J. Tomasi, M. Cossi, J. M. Millam, M. Klene, C. Adamo, R. Cammi, 
 J. W. Ochterski, R. L. Martin, K. Morokuma, O. Farkas, 
 J. B. Foresman, and D. J. Fox, Gaussian, Inc., Wallingford CT, 2016.
 
 ******************************************
 Gaussian 16:  ES64L-G16RevA.03 25-Dec-2016
                15-May-2020 
 ******************************************
 %chk=w32_26.chk
 %nproc=4
 Will use up to    4 processors via shared memory.
 %mem=1gb
 -----------------------------------------
 #p hf/6-31g** 5d 7f pop=npa charge nosymm
 -----------------------------------------
 1/18=10,28=-2,38=1,125=101,172=1/1;
 2/12=2,15=1,17=6,18=5,40=1/2;
 3/5=1,6=6,7=101,8=11,11=9,25=1,30=1/1,2,3;
 4//1;
 5/5=2,38=5/2;
 6/7=2,8=2,9=2,10=2,28=1,40=-1/1,7;
 99/5=1,9=1/99;
 Leave Link    1 at Fri May 15 22:35:27 2020, MaxMem=   134217728 cpu:               0.3 elap:               0.1
 (Enter /home/soft/g16/l101.exe)
 --------------
 Atom number=18
 --------------
 Symbolic Z-matrix:
 Charge =  0 Multiplicity = 1
 o                     8.39232  -11.81294  -11.20048 
 o                     7.25028  -9.85963  -13.10346 
 o                     5.57039  -12.76004  -10.73381 
 o                     6.96619  -9.24779  -10.27431 
 o                     6.94264  -11.82938  -8.37104 
 o                     9.47377  -7.99719  -10.91804 
 h                     8.17528  -12.53782  -10.61424 
 h                     9.25215  -11.5141  -10.90447 
 h                     7.12066  -10.22147  -13.9801 
 h                     7.34148  -10.62674  -12.53826 
 h                     4.64271  -12.82783  -10.50789 
 h                     5.98375  -12.40517  -9.94677 
 h                     6.97515  -9.84502  -11.02229 
 h                     7.68438  -8.63847  -10.4451 
 h                     7.49557  -12.09105  -7.63482 
 h                     7.30746  -10.99284  -8.65973 
 h                     9.99752  -8.79563  -10.85159 
 h                     9.62339  -7.54236  -10.0892 
 
 ITRead=  0  0  0  0  0  0  0  0  0  0  0  0  0  0  0  0  0  0
 MicOpt= -1 -1 -1 -1 -1 -1 -1 -1 -1 -1 -1 -1 -1 -1 -1 -1 -1 -1
 NAtoms=     18 NQM=       18 NQMF=       0 NMMI=      0 NMMIF=      0
                NMic=       0 NMicF=      0.
                    Isotopes and Nuclear Properties:
 (Nuclear quadrupole moments (NQMom) in fm**2, nuclear magnetic moments (NMagM)
  in nuclear magnetons)

  Atom         1           2           3           4           5           6           7           8           9          10
 IAtWgt=          16          16          16          16          16          16           1           1           1           1
 AtmWgt=  15.9949146  15.9949146  15.9949146  15.9949146  15.9949146  15.9949146   1.0078250   1.0078250   1.0078250   1.0078250
 NucSpn=           0           0           0           0           0           0           1           1           1           1
 AtZEff=  -0.0000000  -0.0000000  -0.0000000  -0.0000000  -0.0000000  -0.0000000  -0.0000000  -0.0000000  -0.0000000  -0.0000000
 NQMom=    0.0000000   0.0000000   0.0000000   0.0000000   0.0000000   0.0000000   0.0000000   0.0000000   0.0000000   0.0000000
 NMagM=    0.0000000   0.0000000   0.0000000   0.0000000   0.0000000   0.0000000   2.7928460   2.7928460   2.7928460   2.7928460
 AtZNuc=   8.0000000   8.0000000   8.0000000   8.0000000   8.0000000   8.0000000   1.0000000   1.0000000   1.0000000   1.0000000

  Atom        11          12          13          14          15          16          17          18
 IAtWgt=           1           1           1           1           1           1           1           1
 AtmWgt=   1.0078250   1.0078250   1.0078250   1.0078250   1.0078250   1.0078250   1.0078250   1.0078250
 NucSpn=           1           1           1           1           1           1           1           1
 AtZEff=  -0.0000000  -0.0000000  -0.0000000  -0.0000000  -0.0000000  -0.0000000  -0.0000000  -0.0000000
 NQMom=    0.0000000   0.0000000   0.0000000   0.0000000   0.0000000   0.0000000   0.0000000   0.0000000
 NMagM=    2.7928460   2.7928460   2.7928460   2.7928460   2.7928460   2.7928460   2.7928460   2.7928460
 AtZNuc=   1.0000000   1.0000000   1.0000000   1.0000000   1.0000000   1.0000000   1.0000000   1.0000000
 Background charge distribution read from input stream:
 Point Charges:
 XYZ=   10.7060  -10.8489  -10.0915 Q=   -1.0357 A=    0.0000 R=    0.0000 C=    0.0000
 XYZ=   11.5214  -11.3203   -9.9208 Q=    0.5206 A=    0.0000 R=    0.0000 C=    0.0000
 XYZ=   10.5678  -10.3169   -9.3078 Q=    0.5156 A=    0.0000 R=    0.0000 C=    0.0000
 XYZ=    8.6932  -14.0693   -9.5471 Q=   -1.0099 A=    0.0000 R=    0.0000 C=    0.0000
 XYZ=    8.2201  -13.7327   -8.7861 Q=    0.4999 A=    0.0000 R=    0.0000 C=    0.0000
 XYZ=    8.5528  -15.0157   -9.5178 Q=    0.5079 A=    0.0000 R=    0.0000 C=    0.0000
 XYZ=    9.7397  -14.5602  -13.0841 Q=   -1.0029 A=    0.0000 R=    0.0000 C=    0.0000
 XYZ=    9.4367  -13.9209  -12.4394 Q=    0.5215 A=    0.0000 R=    0.0000 C=    0.0000
 XYZ=   10.6527  -14.3230  -13.2466 Q=    0.4988 A=    0.0000 R=    0.0000 C=    0.0000
 XYZ=   10.0849   -9.6030  -13.6944 Q=   -1.0549 A=    0.0000 R=    0.0000 C=    0.0000
 XYZ=    9.8380   -9.8779  -14.5774 Q=    0.5180 A=    0.0000 R=    0.0000 C=    0.0000
 XYZ=    9.2671   -9.6284  -13.1976 Q=    0.5226 A=    0.0000 R=    0.0000 C=    0.0000
 XYZ=    8.4516  -10.6356  -15.6859 Q=   -1.0322 A=    0.0000 R=    0.0000 C=    0.0000
 XYZ=    8.1250  -10.4069  -16.5562 Q=    0.4798 A=    0.0000 R=    0.0000 C=    0.0000
 XYZ=    9.2622  -11.1166  -15.8526 Q=    0.5341 A=    0.0000 R=    0.0000 C=    0.0000
 XYZ=    4.0391  -11.2243  -12.8044 Q=   -0.9921 A=    0.0000 R=    0.0000 C=    0.0000
 XYZ=    4.5248  -12.0476  -12.7552 Q=    0.4802 A=    0.0000 R=    0.0000 C=    0.0000
 XYZ=    4.4321  -10.7575  -13.5420 Q=    0.5046 A=    0.0000 R=    0.0000 C=    0.0000
 XYZ=    5.5848  -15.5922  -11.4699 Q=   -1.0129 A=    0.0000 R=    0.0000 C=    0.0000
 XYZ=    4.6785  -15.3483  -11.6582 Q=    0.5050 A=    0.0000 R=    0.0000 C=    0.0000
 XYZ=    6.0031  -14.7735  -11.2032 Q=    0.5257 A=    0.0000 R=    0.0000 C=    0.0000
 XYZ=    8.8013  -12.4259   -6.4973 Q=   -0.9852 A=    0.0000 R=    0.0000 C=    0.0000
 XYZ=    9.0556  -11.7490   -5.8701 Q=    0.5006 A=    0.0000 R=    0.0000 C=    0.0000
 XYZ=    8.9395  -13.2499   -6.0303 Q=    0.5083 A=    0.0000 R=    0.0000 C=    0.0000
 XYZ=   10.5523   -9.0602   -7.7657 Q=   -0.9799 A=    0.0000 R=    0.0000 C=    0.0000
 XYZ=   10.0296   -9.4526   -7.0665 Q=    0.5003 A=    0.0000 R=    0.0000 C=    0.0000
 XYZ=   10.0576   -8.2839   -8.0284 Q=    0.4937 A=    0.0000 R=    0.0000 C=    0.0000
 XYZ=    8.4919  -14.1596  -15.7110 Q=   -0.9823 A=    0.0000 R=    0.0000 C=    0.0000
 XYZ=    8.8439  -15.0437  -15.8144 Q=    0.4799 A=    0.0000 R=    0.0000 C=    0.0000
 XYZ=    8.9183  -13.8221  -14.9233 Q=    0.4950 A=    0.0000 R=    0.0000 C=    0.0000
 XYZ=   10.6752  -11.9252  -15.8192 Q=   -0.9837 A=    0.0000 R=    0.0000 C=    0.0000
 XYZ=   11.1454  -12.2597  -15.0555 Q=    0.5055 A=    0.0000 R=    0.0000 C=    0.0000
 XYZ=   10.7694  -12.6123  -16.4789 Q=    0.5125 A=    0.0000 R=    0.0000 C=    0.0000
 XYZ=    7.7593  -16.5050  -13.2460 Q=   -1.0112 A=    0.0000 R=    0.0000 C=    0.0000
 XYZ=    7.3079  -16.2111  -12.4547 Q=    0.4926 A=    0.0000 R=    0.0000 C=    0.0000
 XYZ=    8.5373  -15.9498  -13.2987 Q=    0.4973 A=    0.0000 R=    0.0000 C=    0.0000
 XYZ=   13.4576  -11.7733   -9.7740 Q=   -0.9993 A=    0.0000 R=    0.0000 C=    0.0000
 XYZ=   13.9089  -10.9962  -10.1037 Q=    0.5128 A=    0.0000 R=    0.0000 C=    0.0000
 XYZ=   14.1508  -12.4236   -9.6612 Q=    0.5076 A=    0.0000 R=    0.0000 C=    0.0000
 XYZ=    5.5914  -15.5335   -8.7002 Q=   -1.0162 A=    0.0000 R=    0.0000 C=    0.0000
 XYZ=    6.3093  -16.0707   -8.3652 Q=    0.4831 A=    0.0000 R=    0.0000 C=    0.0000
 XYZ=    5.4763  -15.8239   -9.6050 Q=    0.5237 A=    0.0000 R=    0.0000 C=    0.0000
 XYZ=    5.3398  -11.2122  -15.4745 Q=   -0.9760 A=    0.0000 R=    0.0000 C=    0.0000
 XYZ=    5.8801  -10.4587  -15.7120 Q=    0.4863 A=    0.0000 R=    0.0000 C=    0.0000
 XYZ=    5.4896  -11.8457  -16.1763 Q=    0.4965 A=    0.0000 R=    0.0000 C=    0.0000
 XYZ=   12.9960  -14.7139  -11.2100 Q=   -0.9778 A=    0.0000 R=    0.0000 C=    0.0000
 XYZ=   12.2864  -15.1619  -10.7497 Q=    0.5059 A=    0.0000 R=    0.0000 C=    0.0000
 XYZ=   13.6357  -14.5124  -10.5270 Q=    0.4638 A=    0.0000 R=    0.0000 C=    0.0000
 XYZ=    4.6413   -8.1383  -12.6711 Q=   -0.9897 A=    0.0000 R=    0.0000 C=    0.0000
 XYZ=    4.5978   -7.2720  -12.2662 Q=    0.4876 A=    0.0000 R=    0.0000 C=    0.0000
 XYZ=    5.5765   -8.3384  -12.7100 Q=    0.4969 A=    0.0000 R=    0.0000 C=    0.0000
 XYZ=    8.9611  -17.0167   -9.2755 Q=   -0.9921 A=    0.0000 R=    0.0000 C=    0.0000
 XYZ=    8.6736  -17.2191   -8.3852 Q=    0.5092 A=    0.0000 R=    0.0000 C=    0.0000
 XYZ=    8.3026  -17.4234   -9.8386 Q=    0.5103 A=    0.0000 R=    0.0000 C=    0.0000
 XYZ=   12.8900   -9.6906  -13.7511 Q=   -0.9984 A=    0.0000 R=    0.0000 C=    0.0000
 XYZ=   13.4884   -9.8459  -13.0204 Q=    0.4670 A=    0.0000 R=    0.0000 C=    0.0000
 XYZ=   12.0171   -9.7427  -13.3618 Q=    0.5160 A=    0.0000 R=    0.0000 C=    0.0000
 XYZ=    4.9070   -7.9100   -9.1300 Q=   -1.0105 A=    0.0000 R=    0.0000 C=    0.0000
 XYZ=    4.0635   -8.0265   -9.5674 Q=    0.4764 A=    0.0000 R=    0.0000 C=    0.0000
 XYZ=    5.4227   -8.6710   -9.3968 Q=    0.5176 A=    0.0000 R=    0.0000 C=    0.0000
 XYZ=    2.9547  -12.7024   -9.8757 Q=   -0.9915 A=    0.0000 R=    0.0000 C=    0.0000
 XYZ=    3.0641  -13.5048   -9.3654 Q=    0.5019 A=    0.0000 R=    0.0000 C=    0.0000
 XYZ=    2.7384  -12.0329   -9.2268 Q=    0.5105 A=    0.0000 R=    0.0000 C=    0.0000
 XYZ=    4.2108  -13.3306   -7.5546 Q=   -1.0293 A=    0.0000 R=    0.0000 C=    0.0000
 XYZ=    4.9638  -12.7453   -7.4735 Q=    0.4979 A=    0.0000 R=    0.0000 C=    0.0000
 XYZ=    4.5835  -14.1618   -7.8486 Q=    0.5197 A=    0.0000 R=    0.0000 C=    0.0000
 XYZ=    8.5389   -6.2611  -12.9484 Q=   -1.0019 A=    0.0000 R=    0.0000 C=    0.0000
 XYZ=    8.8800   -6.8491  -12.2745 Q=    0.5098 A=    0.0000 R=    0.0000 C=    0.0000
 XYZ=    9.2767   -6.1230  -13.5423 Q=    0.4773 A=    0.0000 R=    0.0000 C=    0.0000
 XYZ=   11.4715  -15.3553   -7.5180 Q=   -1.0197 A=    0.0000 R=    0.0000 C=    0.0000
 XYZ=   10.8644  -15.3558   -8.2581 Q=    0.4753 A=    0.0000 R=    0.0000 C=    0.0000
 XYZ=   11.9075  -14.5045   -7.5658 Q=    0.5146 A=    0.0000 R=    0.0000 C=    0.0000
 XYZ=   12.8138  -13.0185   -7.3663 Q=   -0.9959 A=    0.0000 R=    0.0000 C=    0.0000
 XYZ=   12.4819  -12.4171   -6.6996 Q=    0.4994 A=    0.0000 R=    0.0000 C=    0.0000
 XYZ=   12.6552  -12.5682   -8.1960 Q=    0.5110 A=    0.0000 R=    0.0000 C=    0.0000
 XYZ=   11.3245  -17.0116  -10.7628 Q=   -1.0019 A=    0.0000 R=    0.0000 C=    0.0000
 XYZ=   11.7165  -17.8633  -10.5702 Q=    0.4876 A=    0.0000 R=    0.0000 C=    0.0000
 XYZ=   10.4428  -17.0644  -10.3939 Q=    0.5095 A=    0.0000 R=    0.0000 C=    0.0000
 Pt Chg Charge=              0.0120 electrons
 Pt Chg Dipole moment (Debye):
    X=             10.8181    Y=             -5.7563    Z=             10.7682  Tot=             16.3132
 Pt Chg Quadrupole moment (Debye-Ang):
   XX=            150.9745   YY=            143.3122   ZZ=           -184.6747
   XY=           -143.1679   XZ=            -23.6958   YZ=            -78.5797
 Pt Chg Traceless Quadrupole moment (Debye-Ang):
   XX=            114.4372   YY=            106.7749   ZZ=           -221.2120
   XY=           -143.1679   XZ=            -23.6958   YZ=            -78.5797
 Pt Chg Octapole moment (Debye-Ang**2):
  XXX=           1991.8863  YYY=          -3069.2213  ZZZ=           2062.9480  XYY=           1998.0128
  XXY=          -1702.4601  XXZ=           -791.2062  XZZ=           -244.4751  YZZ=           1752.3375
  YYZ=            368.1251  XYZ=            528.1868
 Pt Chg Hexadecapole moment (Debye-Ang**3):
 XXXX=          29150.4657 YYYY=          63255.2464 ZZZZ=         -11387.1778 XXXY=         -20971.5086
 XXXZ=         -13274.4402 YYYX=         -30947.9574 YYYZ=           4423.0848 ZZZX=           2161.0157
 ZZZY=         -20973.4993 XXYY=          20126.7382 XXZZ=           3552.5086 YYZZ=         -17849.1679
 XXYZ=          10861.6188 YYXZ=          -9248.9798 ZZXY=           -511.7801
 Leave Link  101 at Fri May 15 22:35:27 2020, MaxMem=   134217728 cpu:               0.5 elap:               0.1
 (Enter /home/soft/g16/l202.exe)
                          Input orientation:                          
 ---------------------------------------------------------------------
 Center     Atomic      Atomic             Coordinates (Angstroms)
 Number     Number       Type             X           Y           Z
 ---------------------------------------------------------------------
      1          8           0        8.392325  -11.812941  -11.200483
      2          8           0        7.250284   -9.859627  -13.103456
      3          8           0        5.570392  -12.760041  -10.733807
      4          8           0        6.966193   -9.247795  -10.274305
      5          8           0        6.942642  -11.829381   -8.371044
      6          8           0        9.473772   -7.997188  -10.918041
      7          1           0        8.175276  -12.537815  -10.614239
      8          1           0        9.252154  -11.514100  -10.904475
      9          1           0        7.120660  -10.221473  -13.980096
     10          1           0        7.341484  -10.626744  -12.538261
     11          1           0        4.642708  -12.827827  -10.507888
     12          1           0        5.983752  -12.405170   -9.946767
     13          1           0        6.975152   -9.845016  -11.022289
     14          1           0        7.684375   -8.638472  -10.445098
     15          1           0        7.495574  -12.091052   -7.634819
     16          1           0        7.307461  -10.992840   -8.659728
     17          1           0        9.997520   -8.795627  -10.851588
     18          1           0        9.623390   -7.542356  -10.089201
 ---------------------------------------------------------------------
                    Distance matrix (angstroms):
                    1          2          3          4          5
     1  O    0.000000
     2  O    2.956518   0.000000
     3  O    3.012987   4.104836   0.000000
     4  O    3.077602   2.908460   3.807266   0.000000
     5  O    3.179241   5.135202   2.886494   3.207420   0.000000
     6  O    3.976088   3.631614   6.160770   2.875129   5.251620
     7  H    0.957201   3.771538   2.617079   3.521600   2.655784
     8  H    0.957200   3.402981   3.890613   3.280072   3.442604
     9  H    3.446179   0.957200   4.402959   3.834683   5.837681
    10  H    2.073880   0.957200   3.308138   2.677282   4.355584
    11  H    3.945796   4.727223   0.957200   4.274315   3.294343
    12  H    2.779166   4.248362   0.957200   3.322874   1.932332
    13  H    2.431638   2.099325   3.248683   0.957201   3.311776
    14  H    3.339020   2.957452   4.641078   0.957199   3.877340
    15  H    3.687203   5.911465   3.709124   3.915513   0.957200
    16  H    2.881828   4.586301   3.231441   2.401771   0.957200
    17  H    3.435486   3.708141   5.943897   3.118759   4.968807
    18  H    4.581306   4.481865   6.638264   3.162828   5.340136
                    6          7          8          9         10
     6  O    0.000000
     7  H    4.732408   0.000000
     8  H    3.523914   1.513901   0.000000
     9  H    4.456541   4.219792   3.958989   0.000000
    10  H    3.753176   2.837122   2.665955   1.513901   0.000000
    11  H    6.844156   3.546048   4.809382   4.998955   4.031200
    12  H    5.705604   2.294753   3.520463   4.725340   3.423752
    13  H    3.109411   2.976234   2.825679   2.985216   1.744554
    14  H    1.958791   3.933760   3.307294   3.914062   2.907255
    15  H    5.608256   3.088452   3.756208   6.625589   5.119735
    16  H    4.332068   2.638212   3.015366   5.379239   3.895921
    17  H    0.957201   4.169038   2.819302   4.482959   3.640382
    18  H    0.957201   5.227553   4.071515   5.346063   4.551751
                   11         12         13         14         15
    11  H    0.000000
    12  H    1.513901   0.000000
    13  H    3.821265   2.948561   0.000000
    14  H    5.177487   4.162747   1.513901   0.000000
    15  H    4.115362   2.780176   4.097618   4.455740   0.000000
    16  H    3.726095   2.324511   2.647569   2.978701   1.513900
    17  H    6.711988   5.473375   3.203914   2.353842   5.240912
    18  H    7.274524   6.075707   3.631262   2.255640   5.589475
                   16         17         18
    16  H    0.000000
    17  H    4.107117   0.000000
    18  H    4.394629   1.513901   0.000000
 Symmetry turned off by external request.
 Stoichiometry    H12O6
 Framework group  C1[X(H12O6)]
 Deg. of freedom    48
 Full point group                 C1      NOp   1
 Rotational constants (GHZ):           1.9012217           1.0181155           0.8249799
 Leave Link  202 at Fri May 15 22:35:27 2020, MaxMem=   134217728 cpu:               0.1 elap:               0.0
 (Enter /home/soft/g16/l301.exe)
 Standard basis: 6-31G(d,p) (5D, 7F)
 Ernie: Thresh=  0.10000D-02 Tol=  0.10000D-05 Strict=F.
   144 basis functions,   252 primitive gaussians,   150 cartesian basis functions
    30 alpha electrons       30 beta electrons
       nuclear repulsion energy       279.3833384650 Hartrees.
 IExCor=    0 DFT=F Ex=HF Corr=None ExCW=0 ScaHFX=  1.000000
 ScaDFX=  1.000000  1.000000  1.000000  1.000000 ScalE2=  1.000000  1.000000
 IRadAn=      5 IRanWt=     -1 IRanGd=            0 ICorTp=0 IEmpDi=  4
 NAtoms=   18 NActive=   18 NUniq=   18 SFac= 1.00D+00 NAtFMM=   60 NAOKFM=F Big=F
 Integral buffers will be    131072 words long.
 Raffenetti 1 integral format.
 Two-electron integral symmetry is turned off.
 Background charge distribution read from rwf.
 PtFMM for NChg=        96 BoxLen=    40.00 Levels= 1 LMax=20 SMax=    22.2 ICnFMM=     1:
 Self energy of the charges =       -12.4215216716 a.u.
 MM   energy of the charges =         0.0000000000 a.u.
 Nuclei-charges interaction =         0.6519336892 a.u.
 Nuclear repulsion after external point charges =      267.6137504827 Hartrees.
 Leave Link  301 at Fri May 15 22:35:27 2020, MaxMem=   134217728 cpu:               0.2 elap:               0.1
 (Enter /home/soft/g16/l302.exe)
 NPDir=0 NMtPBC=     1 NCelOv=     1 NCel=       1 NClECP=     1 NCelD=      1
         NCelK=      1 NCelE2=     1 NClLst=     1 CellRange=     0.0.
 One-electron integrals computed using PRISM.
 NBasis=   144 RedAO= T EigKep=  2.35D-02  NBF=   144
 NBsUse=   144 1.00D-06 EigRej= -1.00D+00 NBFU=   144
 Leave Link  302 at Fri May 15 22:35:27 2020, MaxMem=   134217728 cpu:               0.5 elap:               0.1
 (Enter /home/soft/g16/l303.exe)
 DipDrv:  MaxL=1.
 Leave Link  303 at Fri May 15 22:35:27 2020, MaxMem=   134217728 cpu:               0.1 elap:               0.0
 (Enter /home/soft/g16/l401.exe)
 ExpMin= 1.61D-01 ExpMax= 5.48D+03 ExpMxC= 8.25D+02 IAcc=3 IRadAn=         5 AccDes= 0.00D+00
 Harris functional with IExCor=  205 and IRadAn=       5 diagonalized for initial guess.
 HarFok:  IExCor=  205 AccDes= 0.00D+00 IRadAn=         5 IDoV= 1 UseB2=F ITyADJ=14
 ICtDFT=  3500011 ScaDFX=  1.000000  1.000000  1.000000  1.000000
 FoFCou: FMM=F IPFlag=           0 FMFlag=      100000 FMFlg1=           0
         NFxFlg=           0 DoJE=T BraDBF=F KetDBF=T FulRan=T
         wScrn=  0.000000 ICntrl=       500 IOpCl=  0 I1Cent=   200000004 NGrid=           0
         NMat0=    1 NMatS0=      1 NMatT0=    0 NMatD0=    1 NMtDS0=    0 NMtDT0=    0
 Symmetry not used in FoFCou.
 Harris En= -469.269315323321    
 JPrj=0 DoOrth=F DoCkMO=F.
 Leave Link  401 at Fri May 15 22:35:28 2020, MaxMem=   134217728 cpu:               3.3 elap:               0.8
 (Enter /home/soft/g16/l502.exe)
 Keep R1 ints in memory in canonical form, NReq=56224119.
 FoFCou: FMM=F IPFlag=           0 FMFlag=           0 FMFlg1=           0
         NFxFlg=           0 DoJE=F BraDBF=F KetDBF=F FulRan=T
         wScrn=  0.000000 ICntrl=       600 IOpCl=  0 I1Cent=           0 NGrid=           0
         NMat0=    1 NMatS0=  10440 NMatT0=    0 NMatD0=    1 NMtDS0=    0 NMtDT0=    0
 Symmetry not used in FoFCou.
 Two-electron integral symmetry not used.
 Closed shell SCF:
 Using DIIS extrapolation, IDIIS=  1040.
 NGot=   134217728 LenX=    79668400 LenY=    79645459
 Requested convergence on RMS density matrix=1.00D-08 within 128 cycles.
 Requested convergence on MAX density matrix=1.00D-06.
 Requested convergence on             energy=1.00D-06.
 No special actions if energy rises.

 Cycle   1  Pass 1  IDiag  1:
 E= -468.255397066132    
 DIIS: error= 4.69D-02 at cycle   1 NSaved=   1.
 NSaved= 1 IEnMin= 1 EnMin= -468.255397066132     IErMin= 1 ErrMin= 4.69D-02
 ErrMax= 4.69D-02  0.00D+00 EMaxC= 1.00D-01 BMatC= 6.95D-01 BMatP= 6.95D-01
 IDIUse=3 WtCom= 5.31D-01 WtEn= 4.69D-01
 Coeff-Com:  0.100D+01
 Coeff-En:   0.100D+01
 Coeff:      0.100D+01
 Gap=     0.599 Goal=   None    Shift=    0.000
 GapD=    0.599 DampG=2.000 DampE=0.500 DampFc=1.0000 IDamp=-1.
 RMSDP=4.69D-03 MaxDP=1.22D-01              OVMax= 1.19D-01

 Cycle   2  Pass 1  IDiag  1:
 E= -468.576985400946     Delta-E=       -0.321588334814 Rises=F Damp=F
 DIIS: error= 2.47D-02 at cycle   2 NSaved=   2.
 NSaved= 2 IEnMin= 2 EnMin= -468.576985400946     IErMin= 2 ErrMin= 2.47D-02
 ErrMax= 2.47D-02  0.00D+00 EMaxC= 1.00D-01 BMatC= 2.03D-01 BMatP= 6.95D-01
 IDIUse=3 WtCom= 7.53D-01 WtEn= 2.47D-01
 Coeff-Com:  0.338D+00 0.662D+00
 Coeff-En:   0.614D-01 0.939D+00
 Coeff:      0.269D+00 0.731D+00
 Gap=     0.645 Goal=   None    Shift=    0.000
 RMSDP=2.09D-03 MaxDP=5.07D-02 DE=-3.22D-01 OVMax= 4.47D-02

 Cycle   3  Pass 1  IDiag  1:
 E= -468.712273733400     Delta-E=       -0.135288332453 Rises=F Damp=F
 DIIS: error= 4.75D-03 at cycle   3 NSaved=   3.
 NSaved= 3 IEnMin= 3 EnMin= -468.712273733400     IErMin= 3 ErrMin= 4.75D-03
 ErrMax= 4.75D-03  0.00D+00 EMaxC= 1.00D-01 BMatC= 4.68D-03 BMatP= 2.03D-01
 IDIUse=3 WtCom= 9.52D-01 WtEn= 4.75D-02
 Coeff-Com: -0.315D-01 0.861D-01 0.945D+00
 Coeff-En:   0.000D+00 0.000D+00 0.100D+01
 Coeff:     -0.300D-01 0.820D-01 0.948D+00
 Gap=     0.635 Goal=   None    Shift=    0.000
 RMSDP=2.82D-04 MaxDP=7.73D-03 DE=-1.35D-01 OVMax= 9.32D-03

 Cycle   4  Pass 1  IDiag  1:
 E= -468.715921525981     Delta-E=       -0.003647792581 Rises=F Damp=F
 DIIS: error= 3.79D-04 at cycle   4 NSaved=   4.
 NSaved= 4 IEnMin= 4 EnMin= -468.715921525981     IErMin= 4 ErrMin= 3.79D-04
 ErrMax= 3.79D-04  0.00D+00 EMaxC= 1.00D-01 BMatC= 4.30D-05 BMatP= 4.68D-03
 IDIUse=3 WtCom= 9.96D-01 WtEn= 3.79D-03
 Coeff-Com:  0.414D-02-0.332D-01-0.228D+00 0.126D+01
 Coeff-En:   0.000D+00 0.000D+00 0.000D+00 0.100D+01
 Coeff:      0.412D-02-0.331D-01-0.227D+00 0.126D+01
 Gap=     0.636 Goal=   None    Shift=    0.000
 RMSDP=7.20D-05 MaxDP=1.65D-03 DE=-3.65D-03 OVMax= 2.29D-03

 Cycle   5  Pass 1  IDiag  1:
 E= -468.716002067045     Delta-E=       -0.000080541064 Rises=F Damp=F
 DIIS: error= 1.60D-04 at cycle   5 NSaved=   5.
 NSaved= 5 IEnMin= 5 EnMin= -468.716002067045     IErMin= 5 ErrMin= 1.60D-04
 ErrMax= 1.60D-04  0.00D+00 EMaxC= 1.00D-01 BMatC= 4.48D-06 BMatP= 4.30D-05
 IDIUse=3 WtCom= 9.98D-01 WtEn= 1.60D-03
 Coeff-Com:  0.276D-02-0.128D-01-0.106D+00 0.270D+00 0.845D+00
 Coeff-En:   0.000D+00 0.000D+00 0.000D+00 0.000D+00 0.100D+01
 Coeff:      0.276D-02-0.128D-01-0.106D+00 0.270D+00 0.846D+00
 Gap=     0.637 Goal=   None    Shift=    0.000
 RMSDP=1.71D-05 MaxDP=4.39D-04 DE=-8.05D-05 OVMax= 6.40D-04

 Cycle   6  Pass 1  IDiag  1:
 E= -468.716007853279     Delta-E=       -0.000005786234 Rises=F Damp=F
 DIIS: error= 3.99D-05 at cycle   6 NSaved=   6.
 NSaved= 6 IEnMin= 6 EnMin= -468.716007853279     IErMin= 6 ErrMin= 3.99D-05
 ErrMax= 3.99D-05  0.00D+00 EMaxC= 1.00D-01 BMatC= 3.55D-07 BMatP= 4.48D-06
 IDIUse=1 WtCom= 1.00D+00 WtEn= 0.00D+00
 Coeff-Com: -0.179D-03 0.227D-02 0.158D-01-0.115D+00 0.627D-01 0.103D+01
 Coeff:     -0.179D-03 0.227D-02 0.158D-01-0.115D+00 0.627D-01 0.103D+01
 Gap=     0.637 Goal=   None    Shift=    0.000
 RMSDP=6.66D-06 MaxDP=1.69D-04 DE=-5.79D-06 OVMax= 2.14D-04

 Cycle   7  Pass 1  IDiag  1:
 E= -468.716008453823     Delta-E=       -0.000000600544 Rises=F Damp=F
 DIIS: error= 7.50D-06 at cycle   7 NSaved=   7.
 NSaved= 7 IEnMin= 7 EnMin= -468.716008453823     IErMin= 7 ErrMin= 7.50D-06
 ErrMax= 7.50D-06  0.00D+00 EMaxC= 1.00D-01 BMatC= 1.20D-08 BMatP= 3.55D-07
 IDIUse=1 WtCom= 1.00D+00 WtEn= 0.00D+00
 Coeff-Com: -0.149D-03 0.613D-03 0.543D-02-0.904D-02-0.558D-01-0.717D-01
 Coeff-Com:  0.113D+01
 Coeff:     -0.149D-03 0.613D-03 0.543D-02-0.904D-02-0.558D-01-0.717D-01
 Coeff:      0.113D+01
 Gap=     0.637 Goal=   None    Shift=    0.000
 RMSDP=1.54D-06 MaxDP=2.78D-05 DE=-6.01D-07 OVMax= 4.96D-05

 Cycle   8  Pass 1  IDiag  1:
 E= -468.716008479819     Delta-E=       -0.000000025996 Rises=F Damp=F
 DIIS: error= 1.31D-06 at cycle   8 NSaved=   8.
 NSaved= 8 IEnMin= 8 EnMin= -468.716008479819     IErMin= 8 ErrMin= 1.31D-06
 ErrMax= 1.31D-06  0.00D+00 EMaxC= 1.00D-01 BMatC= 5.42D-10 BMatP= 1.20D-08
 IDIUse=1 WtCom= 1.00D+00 WtEn= 0.00D+00
 Coeff-Com:  0.323D-04-0.191D-03-0.159D-02 0.581D-02 0.883D-02-0.200D-01
 Coeff-Com: -0.213D+00 0.122D+01
 Coeff:      0.323D-04-0.191D-03-0.159D-02 0.581D-02 0.883D-02-0.200D-01
 Coeff:     -0.213D+00 0.122D+01
 Gap=     0.637 Goal=   None    Shift=    0.000
 RMSDP=2.58D-07 MaxDP=5.81D-06 DE=-2.60D-08 OVMax= 9.44D-06

 Cycle   9  Pass 1  IDiag  1:
 E= -468.716008480933     Delta-E=       -0.000000001113 Rises=F Damp=F
 DIIS: error= 4.54D-07 at cycle   9 NSaved=   9.
 NSaved= 9 IEnMin= 9 EnMin= -468.716008480933     IErMin= 9 ErrMin= 4.54D-07
 ErrMax= 4.54D-07  0.00D+00 EMaxC= 1.00D-01 BMatC= 6.20D-11 BMatP= 5.42D-10
 IDIUse=1 WtCom= 1.00D+00 WtEn= 0.00D+00
 Coeff-Com:  0.165D-04-0.803D-04-0.691D-03 0.176D-02 0.590D-02 0.179D-02
 Coeff-Com: -0.125D+00 0.244D+00 0.872D+00
 Coeff:      0.165D-04-0.803D-04-0.691D-03 0.176D-02 0.590D-02 0.179D-02
 Coeff:     -0.125D+00 0.244D+00 0.872D+00
 Gap=     0.637 Goal=   None    Shift=    0.000
 RMSDP=6.14D-08 MaxDP=1.68D-06 DE=-1.11D-09 OVMax= 1.77D-06

 Cycle  10  Pass 1  IDiag  1:
 E= -468.716008481013     Delta-E=       -0.000000000080 Rises=F Damp=F
 DIIS: error= 9.85D-08 at cycle  10 NSaved=  10.
 NSaved=10 IEnMin=10 EnMin= -468.716008481013     IErMin=10 ErrMin= 9.85D-08
 ErrMax= 9.85D-08  0.00D+00 EMaxC= 1.00D-01 BMatC= 4.20D-12 BMatP= 6.20D-11
 IDIUse=1 WtCom= 1.00D+00 WtEn= 0.00D+00
 Coeff-Com: -0.166D-05 0.115D-04 0.958D-04-0.452D-03-0.249D-03 0.238D-02
 Coeff-Com:  0.786D-02-0.924D-01 0.753D-01 0.101D+01
 Coeff:     -0.166D-05 0.115D-04 0.958D-04-0.452D-03-0.249D-03 0.238D-02
 Coeff:      0.786D-02-0.924D-01 0.753D-01 0.101D+01
 Gap=     0.637 Goal=   None    Shift=    0.000
 RMSDP=1.98D-08 MaxDP=6.99D-07 DE=-8.03D-11 OVMax= 8.27D-07

 Cycle  11  Pass 1  IDiag  1:
 E= -468.716008481022     Delta-E=       -0.000000000009 Rises=F Damp=F
 DIIS: error= 3.10D-08 at cycle  11 NSaved=  11.
 NSaved=11 IEnMin=11 EnMin= -468.716008481022     IErMin=11 ErrMin= 3.10D-08
 ErrMax= 3.10D-08  0.00D+00 EMaxC= 1.00D-01 BMatC= 2.03D-13 BMatP= 4.20D-12
 IDIUse=1 WtCom= 1.00D+00 WtEn= 0.00D+00
 Coeff-Com: -0.887D-06 0.409D-05 0.358D-04-0.774D-04-0.344D-03-0.327D-03
 Coeff-Com:  0.703D-02-0.492D-02-0.651D-01-0.126D+00 0.119D+01
 Coeff:     -0.887D-06 0.409D-05 0.358D-04-0.774D-04-0.344D-03-0.327D-03
 Coeff:      0.703D-02-0.492D-02-0.651D-01-0.126D+00 0.119D+01
 Gap=     0.637 Goal=   None    Shift=    0.000
 RMSDP=6.85D-09 MaxDP=2.93D-07 DE=-9.09D-12 OVMax= 2.66D-07

 SCF Done:  E(RHF) =  -468.716008481     A.U. after   11 cycles
            NFock= 11  Conv=0.69D-08     -V/T= 2.0292
 KE= 4.554301089816D+02 PE=-1.643905331562D+03 EE= 4.521454636167D+02
 Leave Link  502 at Fri May 15 22:35:30 2020, MaxMem=   134217728 cpu:               4.1 elap:               1.7
 (Enter /home/soft/g16/l601.exe)
 Copying SCF densities to generalized density rwf, IOpCl= 0 IROHF=0.

 **********************************************************************

            Population analysis using the SCF density.

 **********************************************************************

 Alpha  occ. eigenvalues --  -20.61252 -20.59039 -20.54665 -20.53724 -20.52993
 Alpha  occ. eigenvalues --  -20.52472  -1.39554  -1.37579  -1.33279  -1.32348
 Alpha  occ. eigenvalues --   -1.31236  -1.30983  -0.75428  -0.73827  -0.70524
 Alpha  occ. eigenvalues --   -0.69671  -0.67589  -0.67193  -0.62948  -0.60861
 Alpha  occ. eigenvalues --   -0.57821  -0.57193  -0.54499  -0.54075  -0.53546
 Alpha  occ. eigenvalues --   -0.53081  -0.49656  -0.47888  -0.47194  -0.47096
 Alpha virt. eigenvalues --    0.16596   0.20874   0.25378   0.28010   0.30624
 Alpha virt. eigenvalues --    0.32396   0.33428   0.37368   0.40203   0.41850
 Alpha virt. eigenvalues --    0.45158   0.48741   0.93786   0.95292   0.97937
 Alpha virt. eigenvalues --    1.02676   1.05388   1.06094   1.07262   1.08588
 Alpha virt. eigenvalues --    1.09339   1.09794   1.11742   1.12939   1.14505
 Alpha virt. eigenvalues --    1.15294   1.16491   1.19095   1.19689   1.21987
 Alpha virt. eigenvalues --    1.22501   1.25738   1.28042   1.29196   1.30475
 Alpha virt. eigenvalues --    1.33131   1.33188   1.36545   1.38737   1.40355
 Alpha virt. eigenvalues --    1.45458   1.50712   1.58265   1.61174   1.65842
 Alpha virt. eigenvalues --    1.71706   1.74358   1.76009   1.77222   1.78466
 Alpha virt. eigenvalues --    1.79889   1.81420   1.83366   1.83544   1.84289
 Alpha virt. eigenvalues --    1.84929   1.85424   1.87925   1.90919   1.92735
 Alpha virt. eigenvalues --    1.94977   1.95521   1.99896   2.01330   2.03300
 Alpha virt. eigenvalues --    2.09172   2.52487   2.52869   2.55156   2.56610
 Alpha virt. eigenvalues --    2.59611   2.60142   2.60863   2.61339   2.62952
 Alpha virt. eigenvalues --    2.66915   2.69576   2.73201   2.77396   2.79496
 Alpha virt. eigenvalues --    2.83645   2.84889   2.89414   2.90876   2.93490
 Alpha virt. eigenvalues --    2.95609   2.96553   2.97262   3.00762   3.01020
 Alpha virt. eigenvalues --    3.02100   3.02282   3.03566   3.04107   3.05484
 Alpha virt. eigenvalues --    3.07448   3.33235   3.37410   3.41362   3.42136
 Alpha virt. eigenvalues --    3.42412   3.43532   3.70973   3.76924   3.80367
 Alpha virt. eigenvalues --    3.82731   3.83250   3.85326   3.90041   3.93005
 Alpha virt. eigenvalues --    3.95999   4.01778   4.02905   4.07872
          Condensed to atoms (all electrons):
               1          2          3          4          5          6
     1  O    8.137834  -0.006363  -0.001135  -0.002520  -0.001915  -0.000067
     2  O   -0.006363   8.163816  -0.000076  -0.004780  -0.000000   0.000048
     3  O   -0.001135  -0.000076   8.196082  -0.000161  -0.008823  -0.000000
     4  O   -0.002520  -0.004780  -0.000161   8.165916  -0.003401  -0.011453
     5  O   -0.001915  -0.000000  -0.008823  -0.003401   8.144502  -0.000000
     6  O   -0.000067   0.000048  -0.000000  -0.011453  -0.000000   8.065542
     7  H    0.308232   0.000191   0.002321   0.000145   0.006235   0.000000
     8  H    0.310878   0.000374   0.000053   0.000578   0.000137   0.000195
     9  H    0.000165   0.314522  -0.000013   0.000235   0.000000   0.000005
    10  H    0.015365   0.297490   0.001117   0.000082  -0.000003   0.000054
    11  H    0.000060   0.000002   0.315624   0.000003   0.000307   0.000000
    12  H    0.001198   0.000003   0.306788   0.000335   0.016710   0.000000
    13  H    0.006944   0.010485   0.001446   0.312238   0.000181   0.000320
    14  H    0.000366   0.001019  -0.000003   0.313082   0.000064   0.026840
    15  H    0.000085   0.000000   0.000264  -0.000033   0.312014   0.000000
    16  H    0.003025   0.000000   0.000486   0.019628   0.300952   0.000003
    17  H    0.000418   0.000171  -0.000000   0.001062  -0.000001   0.315126
    18  H   -0.000002   0.000008   0.000000   0.000808  -0.000000   0.304957
               7          8          9         10         11         12
     1  O    0.308232   0.310878   0.000165   0.015365   0.000060   0.001198
     2  O    0.000191   0.000374   0.314522   0.297490   0.000002   0.000003
     3  O    0.002321   0.000053  -0.000013   0.001117   0.315624   0.306788
     4  O    0.000145   0.000578   0.000235   0.000082   0.000003   0.000335
     5  O    0.006235   0.000137   0.000000  -0.000003   0.000307   0.016710
     6  O    0.000000   0.000195   0.000005   0.000054   0.000000   0.000000
     7  H    0.313214  -0.017328  -0.000007  -0.000510  -0.000065  -0.000544
     8  H   -0.017328   0.300858  -0.000002  -0.000888  -0.000002  -0.000064
     9  H   -0.000007  -0.000002   0.315158  -0.017921   0.000000   0.000002
    10  H   -0.000510  -0.000888  -0.017921   0.327531  -0.000019  -0.000069
    11  H   -0.000065  -0.000002   0.000000  -0.000019   0.293644  -0.019263
    12  H   -0.000544  -0.000064   0.000002  -0.000069  -0.019263   0.308719
    13  H   -0.000305  -0.000198  -0.000367  -0.001136  -0.000019   0.000065
    14  H   -0.000005   0.000030  -0.000014   0.000015   0.000000  -0.000006
    15  H   -0.000004   0.000006  -0.000000  -0.000000  -0.000011  -0.000370
    16  H   -0.000528   0.000191  -0.000000  -0.000009   0.000010  -0.001999
    17  H   -0.000012   0.000190  -0.000002  -0.000015  -0.000000   0.000000
    18  H    0.000000  -0.000001  -0.000000  -0.000003  -0.000000  -0.000000
              13         14         15         16         17         18
     1  O    0.006944   0.000366   0.000085   0.003025   0.000418  -0.000002
     2  O    0.010485   0.001019   0.000000   0.000000   0.000171   0.000008
     3  O    0.001446  -0.000003   0.000264   0.000486  -0.000000   0.000000
     4  O    0.312238   0.313082  -0.000033   0.019628   0.001062   0.000808
     5  O    0.000181   0.000064   0.312014   0.300952  -0.000001  -0.000000
     6  O    0.000320   0.026840   0.000000   0.000003   0.315126   0.304957
     7  H   -0.000305  -0.000005  -0.000004  -0.000528  -0.000012   0.000000
     8  H   -0.000198   0.000030   0.000006   0.000191   0.000190  -0.000001
     9  H   -0.000367  -0.000014  -0.000000  -0.000000  -0.000002  -0.000000
    10  H   -0.001136   0.000015  -0.000000  -0.000009  -0.000015  -0.000003
    11  H   -0.000019   0.000000  -0.000011   0.000010  -0.000000  -0.000000
    12  H    0.000065  -0.000006  -0.000370  -0.001999   0.000000  -0.000000
    13  H    0.304894  -0.027456   0.000004  -0.000754   0.000056   0.000015
    14  H   -0.027456   0.315283  -0.000003  -0.000375  -0.001474  -0.002299
    15  H    0.000004  -0.000003   0.312487  -0.017178  -0.000000  -0.000000
    16  H   -0.000754  -0.000375  -0.017178   0.321846   0.000012   0.000003
    17  H    0.000056  -0.001474  -0.000000   0.000012   0.315183  -0.022021
    18  H    0.000015  -0.002299  -0.000000   0.000003  -0.022021   0.381391
 Mulliken charges:
               1
     1  O   -0.772569
     2  O   -0.776911
     3  O   -0.813971
     4  O   -0.791764
     5  O   -0.766959
     6  O   -0.701571
     7  H    0.388971
     8  H    0.404993
     9  H    0.388240
    10  H    0.378919
    11  H    0.409729
    12  H    0.388495
    13  H    0.393587
    14  H    0.374934
    15  H    0.392739
    16  H    0.374688
    17  H    0.391306
    18  H    0.337144
 Sum of Mulliken charges =  -0.00000
 Mulliken charges with hydrogens summed into heavy atoms:
               1
     1  O    0.021395
     2  O   -0.009752
     3  O   -0.015747
     4  O   -0.023243
     5  O    0.000468
     6  O    0.026879
 Electronic spatial extent (au):  <R**2>=          62155.2801
 Charge=             -0.0000 electrons
 Dipole moment (field-independent basis, Debye):
    X=              5.4227    Y=             -1.9869    Z=              3.9181  Tot=              6.9789
 Quadrupole moment (field-independent basis, Debye-Ang):
   XX=             56.5911   YY=             -2.0792   ZZ=           -111.9428
   XY=            -69.6608   XZ=            -20.5255   YZ=            -18.2800
 Traceless Quadrupole moment (field-independent basis, Debye-Ang):
   XX=             75.7347   YY=             17.0644   ZZ=            -92.7992
   XY=            -69.6608   XZ=            -20.5255   YZ=            -18.2800
 Octapole moment (field-independent basis, Debye-Ang**2):
  XXX=            366.2305  YYY=            741.4094  ZZZ=           2248.6502  XYY=            550.4983
  XXY=           -680.7167  XXZ=           -250.7693  XZZ=           -384.1926  YZZ=            901.1923
  YYZ=            454.4850  XYZ=            373.4422
 Hexadecapole moment (field-independent basis, Debye-Ang**3):
 XXXX=            815.3630 YYYY=         -21256.7177 ZZZZ=         -38803.0523 XXXY=          -4556.2099
 XXXZ=           -580.7889 YYYX=           -599.0044 YYYZ=         -12908.3668 ZZZX=          12828.9634
 ZZZY=         -20177.7606 XXYY=           5660.7592 XXZZ=          -2728.3049 YYZZ=         -12511.1942
 XXYZ=           3830.9145 YYXZ=          -1917.1336 ZZXY=           1957.1096
 N-N= 2.676137504827D+02 E-N=-1.643905331853D+03  KE= 4.554301089816D+02
 No NMR shielding tensors so no spin-rotation constants.
 Leave Link  601 at Fri May 15 22:35:30 2020, MaxMem=   134217728 cpu:               0.5 elap:               0.2
 (Enter /home/soft/g16/l607.exe)
 ******************************Gaussian NBO Version 3.1******************************
             N A T U R A L   A T O M I C   O R B I T A L   A N D
          N A T U R A L   B O N D   O R B I T A L   A N A L Y S I S
 ******************************Gaussian NBO Version 3.1******************************
       /RESON  / : Allow strongly delocalized NBO set

 Analyzing the SCF density

 Job title: Atom number=18                                                  

 Storage needed:     63342 in NPA ( 134216000 available)
 GSVD:  LWork=        9792 too small for GESVD, short by       11448 words or       11448 for optimal perf.


 NATURAL POPULATIONS:  Natural atomic orbital occupancies 
                                                          
   NAO  Atom  No  lang   Type(AO)    Occupancy      Energy
 ----------------------------------------------------------
     1    O    1  S      Cor( 1S)     1.99986     -20.38233
     2    O    1  S      Val( 2S)     1.75655      -1.15515
     3    O    1  S      Ryd( 3S)     0.00088       1.75483
     4    O    1  px     Val( 2p)     1.68794      -0.38711
     5    O    1  px     Ryd( 3p)     0.00151       1.33974
     6    O    1  py     Val( 2p)     1.74725      -0.40702
     7    O    1  py     Ryd( 3p)     0.00139       1.31436
     8    O    1  pz     Val( 2p)     1.85026      -0.44650
     9    O    1  pz     Ryd( 3p)     0.00049       1.29294
    10    O    1  dxy    Ryd( 3d)     0.00054       2.55797
    11    O    1  dxz    Ryd( 3d)     0.00126       2.53752
    12    O    1  dyz    Ryd( 3d)     0.00141       2.73249
    13    O    1  dx2y2  Ryd( 3d)     0.00085       2.68887
    14    O    1  dz2    Ryd( 3d)     0.00129       2.37682

    15    O    2  S      Cor( 1S)     1.99985     -20.35999
    16    O    2  S      Val( 2S)     1.75103      -1.13764
    17    O    2  S      Ryd( 3S)     0.00100       1.85306
    18    O    2  px     Val( 2p)     1.98448      -0.46874
    19    O    2  px     Ryd( 3p)     0.00076       1.19627
    20    O    2  py     Val( 2p)     1.75002      -0.40138
    21    O    2  py     Ryd( 3p)     0.00036       1.26672
    22    O    2  pz     Val( 2p)     1.54698      -0.32395
    23    O    2  pz     Ryd( 3p)     0.00162       1.42114
    24    O    2  dxy    Ryd( 3d)     0.00149       2.27385
    25    O    2  dxz    Ryd( 3d)     0.00012       2.34926
    26    O    2  dyz    Ryd( 3d)     0.00167       3.08514
    27    O    2  dx2y2  Ryd( 3d)     0.00189       2.51855
    28    O    2  dz2    Ryd( 3d)     0.00052       2.74598

    29    O    3  S      Cor( 1S)     1.99985     -20.35257
    30    O    3  S      Val( 2S)     1.75056      -1.13516
    31    O    3  S      Ryd( 3S)     0.00074       1.97555
    32    O    3  px     Val( 2p)     1.58961      -0.33308
    33    O    3  px     Ryd( 3p)     0.00171       1.38385
    34    O    3  py     Val( 2p)     1.94628      -0.45405
    35    O    3  py     Ryd( 3p)     0.00086       1.20723
    36    O    3  pz     Val( 2p)     1.76753      -0.40437
    37    O    3  pz     Ryd( 3p)     0.00046       1.25016
    38    O    3  dxy    Ryd( 3d)     0.00025       2.37693
    39    O    3  dxz    Ryd( 3d)     0.00136       2.76268
    40    O    3  dyz    Ryd( 3d)     0.00151       2.46855
    41    O    3  dx2y2  Ryd( 3d)     0.00070       2.73524
    42    O    3  dz2    Ryd( 3d)     0.00175       2.63789

    43    O    4  S      Cor( 1S)     1.99984     -20.35858
    44    O    4  S      Val( 2S)     1.73990      -1.14523
    45    O    4  S      Ryd( 3S)     0.00058       1.98738
    46    O    4  px     Val( 2p)     1.81307      -0.42902
    47    O    4  px     Ryd( 3p)     0.00087       1.24726
    48    O    4  py     Val( 2p)     1.69616      -0.37819
    49    O    4  py     Ryd( 3p)     0.00164       1.39018
    50    O    4  pz     Val( 2p)     1.79418      -0.42389
    51    O    4  pz     Ryd( 3p)     0.00071       1.26934
    52    O    4  dxy    Ryd( 3d)     0.00095       2.77840
    53    O    4  dxz    Ryd( 3d)     0.00118       2.38520
    54    O    4  dyz    Ryd( 3d)     0.00105       2.82755
    55    O    4  dx2y2  Ryd( 3d)     0.00052       2.41203
    56    O    4  dz2    Ryd( 3d)     0.00129       2.56967

    57    O    5  S      Cor( 1S)     1.99986     -20.42490
    58    O    5  S      Val( 2S)     1.75425      -1.19835
    59    O    5  S      Ryd( 3S)     0.00104       1.74932
    60    O    5  px     Val( 2p)     1.84761      -0.48929
    61    O    5  px     Ryd( 3p)     0.00036       1.24465
    62    O    5  py     Val( 2p)     1.69139      -0.43568
    63    O    5  py     Ryd( 3p)     0.00147       1.23716
    64    O    5  pz     Val( 2p)     1.74262      -0.44688
    65    O    5  pz     Ryd( 3p)     0.00124       1.34429
    66    O    5  dxy    Ryd( 3d)     0.00143       2.55227
    67    O    5  dxz    Ryd( 3d)     0.00152       2.66177
    68    O    5  dyz    Ryd( 3d)     0.00043       2.51803
    69    O    5  dx2y2  Ryd( 3d)     0.00118       2.47273
    70    O    5  dz2    Ryd( 3d)     0.00081       2.43841

    71    O    6  S      Cor( 1S)     1.99987     -20.44896
    72    O    6  S      Val( 2S)     1.75828      -1.21384
    73    O    6  S      Ryd( 3S)     0.00106       1.70178
    74    O    6  px     Val( 2p)     1.87497      -0.50902
    75    O    6  px     Ryd( 3p)     0.00072       1.27496
    76    O    6  py     Val( 2p)     1.64396      -0.43267
    77    O    6  py     Ryd( 3p)     0.00202       1.22034
    78    O    6  pz     Val( 2p)     1.70914      -0.46060
    79    O    6  pz     Ryd( 3p)     0.00099       1.17344
    80    O    6  dxy    Ryd( 3d)     0.00099       2.65498
    81    O    6  dxz    Ryd( 3d)     0.00158       2.30130
    82    O    6  dyz    Ryd( 3d)     0.00106       2.60861
    83    O    6  dx2y2  Ryd( 3d)     0.00054       2.33895
    84    O    6  dz2    Ryd( 3d)     0.00173       2.65352

    85    H    7  S      Val( 1S)     0.46795       0.39987
    86    H    7  S      Ryd( 2S)     0.00124       0.84441
    87    H    7  px     Ryd( 2p)     0.00056       2.74732
    88    H    7  py     Ryd( 2p)     0.00128       3.12085
    89    H    7  pz     Ryd( 2p)     0.00111       2.94313

    90    H    8  S      Val( 1S)     0.46004       0.41748
    91    H    8  S      Ryd( 2S)     0.00067       0.79608
    92    H    8  px     Ryd( 2p)     0.00158       3.30377
    93    H    8  py     Ryd( 2p)     0.00070       2.77036
    94    H    8  pz     Ryd( 2p)     0.00077       2.74878

    95    H    9  S      Val( 1S)     0.47074       0.41289
    96    H    9  S      Ryd( 2S)     0.00049       0.77981
    97    H    9  px     Ryd( 2p)     0.00074       2.64932
    98    H    9  py     Ryd( 2p)     0.00075       2.79971
    99    H    9  pz     Ryd( 2p)     0.00143       3.33278

   100    H   10  S      Val( 1S)     0.48568       0.38637
   101    H   10  S      Ryd( 2S)     0.00073       0.93899
   102    H   10  px     Ryd( 2p)     0.00086       2.65552
   103    H   10  py     Ryd( 2p)     0.00138       3.21807
   104    H   10  pz     Ryd( 2p)     0.00082       2.98250

   105    H   11  S      Val( 1S)     0.45806       0.44057
   106    H   11  S      Ryd( 2S)     0.00055       0.79258
   107    H   11  px     Ryd( 2p)     0.00176       3.42774
   108    H   11  py     Ryd( 2p)     0.00067       2.65498
   109    H   11  pz     Ryd( 2p)     0.00061       2.73827

   110    H   12  S      Val( 1S)     0.48372       0.39435
   111    H   12  S      Ryd( 2S)     0.00098       0.91266
   112    H   12  px     Ryd( 2p)     0.00068       2.85502
   113    H   12  py     Ryd( 2p)     0.00096       2.75060
   114    H   12  pz     Ryd( 2p)     0.00131       3.20856

   115    H   13  S      Val( 1S)     0.47441       0.40162
   116    H   13  S      Ryd( 2S)     0.00165       0.94433
   117    H   13  px     Ryd( 2p)     0.00059       2.66140
   118    H   13  py     Ryd( 2p)     0.00094       3.03202
   119    H   13  pz     Ryd( 2p)     0.00128       3.18015

   120    H   14  S      Val( 1S)     0.48189       0.38031
   121    H   14  S      Ryd( 2S)     0.00139       0.85453
   122    H   14  px     Ryd( 2p)     0.00132       3.09662
   123    H   14  py     Ryd( 2p)     0.00099       2.99548
   124    H   14  pz     Ryd( 2p)     0.00068       2.69673

   125    H   15  S      Val( 1S)     0.46944       0.35804
   126    H   15  S      Ryd( 2S)     0.00050       0.71148
   127    H   15  px     Ryd( 2p)     0.00116       2.86429
   128    H   15  py     Ryd( 2p)     0.00062       2.70048
   129    H   15  pz     Ryd( 2p)     0.00139       3.06324

   130    H   16  S      Val( 1S)     0.47002       0.34809
   131    H   16  S      Ryd( 2S)     0.00219       0.81506
   132    H   16  px     Ryd( 2p)     0.00075       2.74937
   133    H   16  py     Ryd( 2p)     0.00142       3.22655
   134    H   16  pz     Ryd( 2p)     0.00075       2.73488

   135    H   17  S      Val( 1S)     0.46834       0.33890
   136    H   17  S      Ryd( 2S)     0.00083       0.73207
   137    H   17  px     Ryd( 2p)     0.00105       2.82081
   138    H   17  py     Ryd( 2p)     0.00144       3.14763
   139    H   17  pz     Ryd( 2p)     0.00057       2.61297

   140    H   18  S      Val( 1S)     0.51095       0.26996
   141    H   18  S      Ryd( 2S)     0.00106       0.70681
   142    H   18  px     Ryd( 2p)     0.00087       2.59111
   143    H   18  py     Ryd( 2p)     0.00089       2.76049
   144    H   18  pz     Ryd( 2p)     0.00139       3.14277


 Summary of Natural Population Analysis:                  
                                                          
                                       Natural Population 
                Natural  -----------------------------------------------
    Atom  No    Charge         Core      Valence    Rydberg      Total
 -----------------------------------------------------------------------
      O    1   -1.05147      1.99986     7.04199    0.00962     9.05147
      O    2   -1.04178      1.99985     7.03251    0.00943     9.04178
      O    3   -1.06316      1.99985     7.05398    0.00934     9.06316
      O    4   -1.05192      1.99984     7.04331    0.00877     9.05192
      O    5   -1.04520      1.99986     7.03586    0.00949     9.04520
      O    6   -0.99689      1.99987     6.98635    0.01068     8.99689
      H    7    0.52786      0.00000     0.46795    0.00419     0.47214
      H    8    0.53623      0.00000     0.46004    0.00373     0.46377
      H    9    0.52584      0.00000     0.47074    0.00342     0.47416
      H   10    0.51052      0.00000     0.48568    0.00379     0.48948
      H   11    0.53836      0.00000     0.45806    0.00359     0.46164
      H   12    0.51235      0.00000     0.48372    0.00393     0.48765
      H   13    0.52114      0.00000     0.47441    0.00445     0.47886
      H   14    0.51374      0.00000     0.48189    0.00438     0.48626
      H   15    0.52690      0.00000     0.46944    0.00366     0.47310
      H   16    0.52487      0.00000     0.47002    0.00511     0.47513
      H   17    0.52777      0.00000     0.46834    0.00389     0.47223
      H   18    0.48484      0.00000     0.51095    0.00421     0.51516
 =======================================================================
   * Total *   -0.00000     11.99911    47.89522    0.10567    60.00000

                                 Natural Population      
 --------------------------------------------------------
   Core                      11.99911 ( 99.9926% of  12)
   Valence                   47.89522 ( 99.7817% of  48)
   Natural Minimal Basis     59.89433 ( 99.8239% of  60)
   Natural Rydberg Basis      0.10567 (  0.1761% of  60)
 --------------------------------------------------------

    Atom  No          Natural Electron Configuration
 ----------------------------------------------------------------------------
      O    1      [core]2S( 1.76)2p( 5.29)3d( 0.01)
      O    2      [core]2S( 1.75)2p( 5.28)3d( 0.01)
      O    3      [core]2S( 1.75)2p( 5.30)3d( 0.01)
      O    4      [core]2S( 1.74)2p( 5.30)
      O    5      [core]2S( 1.75)2p( 5.28)3d( 0.01)
      O    6      [core]2S( 1.76)2p( 5.23)3d( 0.01)
      H    7            1S( 0.47)
      H    8            1S( 0.46)
      H    9            1S( 0.47)
      H   10            1S( 0.49)
      H   11            1S( 0.46)
      H   12            1S( 0.48)
      H   13            1S( 0.47)
      H   14            1S( 0.48)
      H   15            1S( 0.47)
      H   16            1S( 0.47)
      H   17            1S( 0.47)
      H   18            1S( 0.51)


 NBO analysis skipped by request.
 Leave Link  607 at Fri May 15 22:35:30 2020, MaxMem=   134217728 cpu:               0.6 elap:               0.2
 (Enter /home/soft/g16/l9999.exe)

 Test job not archived.
 1\1\GINC-MASTER\SP\RHF\6-31G(d,p)\H12O6\LIWEI01\15-May-2020\0\\#p hf/6
 -31g** 5d 7f pop=npa charge nosymm\\Atom number=18\\0,1\O,0,8.392325,-
 11.812941,-11.200483\O,0,7.250284,-9.859627,-13.103456\O,0,5.570392,-1
 2.760041,-10.733807\O,0,6.966193,-9.247795,-10.274305\O,0,6.942642,-11
 .829381,-8.371044\O,0,9.473772,-7.997188,-10.918041\H,0,8.175276,-12.5
 37815,-10.614239\H,0,9.252154,-11.5141,-10.904475\H,0,7.12066,-10.2214
 73,-13.980096\H,0,7.341484,-10.626744,-12.538261\H,0,4.642708,-12.8278
 27,-10.507888\H,0,5.983752,-12.40517,-9.946767\H,0,6.975152,-9.845016,
 -11.022289\H,0,7.684375,-8.638472,-10.445098\H,0,7.495574,-12.091052,-
 7.634819\H,0,7.307461,-10.99284,-8.659728\H,0,9.99752,-8.795627,-10.85
 1588\H,0,9.62339,-7.542356,-10.089201\\Version=ES64L-G16RevA.03\HF=-46
 8.7160085\RMSD=6.851e-09\Dipole=2.1334387,-0.7817027,1.5414946\Quadrup
 ole=56.3069206,12.6869865,-68.9939071,-51.7911053,-15.2602335,-13.5907
 635\PG=C01 [X(H12O6)]\\@


 DEMOCRATS BUY MOST OF THE BOOKS THAT HAVE BEEN
 BANNED; REPUBLICANS FORM CENSORSHIP COMMITTEES AND
 READ THEM AS A GROUP.
 Job cpu time:       0 days  0 hours  0 minutes 10.5 seconds.
 Elapsed time:       0 days  0 hours  0 minutes  3.4 seconds.
 File lengths (MBytes):  RWF=     72 Int=      0 D2E=      0 Chk=      8 Scr=      8
 Normal termination of Gaussian 16 at Fri May 15 22:35:30 2020.
