Atom number=9                                                           
SP        RHF                                                         6-31G(d,p)          
Number of atoms                            I                9
Info1-9                                    I   N=           9
         107         106           0           0           0         111
           1           1           2
Full Title                                 C   N=           2
Atom number=9           
Route                                      C   N=           4
#p hf/6-31g** 5d 7f pop=npa charge nosymm       
Charge                                     I                0
Multiplicity                               I                1
Number of electrons                        I               30
Number of alpha electrons                  I               15
Number of beta electrons                   I               15
Number of basis functions                  I               72
Number of independent functions            I               72
Number of point charges in /Mol/           I                0
Number of translation vectors              I                0
Atomic numbers                             I   N=           9
           8           8           8           1           1           1
           1           1           1
Nuclear charges                            R   N=           9
  8.00000000E+00  8.00000000E+00  8.00000000E+00  1.00000000E+00  1.00000000E+00
  1.00000000E+00  1.00000000E+00  1.00000000E+00  1.00000000E+00
Current cartesian coordinates              R   N=          27
  1.64278541E+01 -2.65870709E+01 -1.80414289E+01  1.05536555E+01 -2.94649215E+01
 -2.16748884E+01  7.95719829E+00 -2.51911925E+01 -1.42761212E+01  1.55337188E+01
 -2.59511213E+01 -1.66033699E+01  1.61624534E+01 -2.83754831E+01 -1.79860013E+01
  8.84108934E+00 -2.90041213E+01 -2.20308448E+01  1.13441828E+01 -2.79179445E+01
 -2.11710515E+01  9.38018663E+00 -2.40850659E+01 -1.41227926E+01  8.66153702E+00
 -2.67619008E+01 -1.48317423E+01
Number of symbols in /Mol/                 I                0
Force Field                                I                0
Atom Types                                 C   N=           9
                                                            
                                                
Int Atom Types                             I   N=           9
           0           0           0           0           0           0
           0           0           0
MM charges                                 R   N=           9
  0.00000000E+00  0.00000000E+00  0.00000000E+00  0.00000000E+00  0.00000000E+00
  0.00000000E+00  0.00000000E+00  0.00000000E+00  0.00000000E+00
Integer atomic weights                     I   N=           9
          16          16          16           1           1           1
           1           1           1
Real atomic weights                        R   N=           9
  1.59949146E+01  1.59949146E+01  1.59949146E+01  1.00782504E+00  1.00782504E+00
  1.00782504E+00  1.00782504E+00  1.00782504E+00  1.00782504E+00
Atom fragment info                         I   N=           9
           0           0           0           0           0           0
           0           0           0
Atom residue num                           I   N=           9
           0           0           0           0           0           0
           0           0           0
Nuclear spins                              I   N=           9
           0           0           0           1           1           1
           1           1           1
Nuclear ZEff                               R   N=           9
 -5.60000000E+00 -5.60000000E+00 -5.60000000E+00 -1.00000000E+00 -1.00000000E+00
 -1.00000000E+00 -1.00000000E+00 -1.00000000E+00 -1.00000000E+00
Nuclear ZNuc                               R   N=           9
  8.00000000E+00  8.00000000E+00  8.00000000E+00  1.00000000E+00  1.00000000E+00
  1.00000000E+00  1.00000000E+00  1.00000000E+00  1.00000000E+00
Nuclear QMom                               R   N=           9
  0.00000000E+00  0.00000000E+00  0.00000000E+00  0.00000000E+00  0.00000000E+00
  0.00000000E+00  0.00000000E+00  0.00000000E+00  0.00000000E+00
Nuclear GFac                               R   N=           9
  0.00000000E+00  0.00000000E+00  0.00000000E+00  2.79284600E+00  2.79284600E+00
  2.79284600E+00  2.79284600E+00  2.79284600E+00  2.79284600E+00
MicOpt                                     I   N=           9
          -1          -1          -1          -1          -1          -1
          -1          -1          -1
Number of residues                         I                0
Number of secondary structures             I                0
Number of contracted shells                I               30
Number of primitive shells                 I               63
Pure/Cartesian d shells                    I                0
Pure/Cartesian f shells                    I                0
Highest angular momentum                   I                2
Largest degree of contraction              I                6
Shell types                                I   N=          30
           0          -1          -1          -2           0          -1
          -1          -2           0          -1          -1          -2
           0           0           1           0           0           1
           0           0           1           0           0           1
           0           0           1           0           0           1
Number of primitives per shell             I   N=          30
           6           3           1           1           6           3
           1           1           6           3           1           1
           3           1           1           3           1           1
           3           1           1           3           1           1
           3           1           1           3           1           1
Shell to atom map                          I   N=          30
           1           1           1           1           2           2
           2           2           3           3           3           3
           4           4           4           5           5           5
           6           6           6           7           7           7
           8           8           8           9           9           9
Primitive exponents                        R   N=          63
  5.48467166E+03  8.25234946E+02  1.88046958E+02  5.29645000E+01  1.68975704E+01
  5.79963534E+00  1.55396162E+01  3.59993359E+00  1.01376175E+00  2.70005823E-01
  8.00000000E-01  5.48467166E+03  8.25234946E+02  1.88046958E+02  5.29645000E+01
  1.68975704E+01  5.79963534E+00  1.55396162E+01  3.59993359E+00  1.01376175E+00
  2.70005823E-01  8.00000000E-01  5.48467166E+03  8.25234946E+02  1.88046958E+02
  5.29645000E+01  1.68975704E+01  5.79963534E+00  1.55396162E+01  3.59993359E+00
  1.01376175E+00  2.70005823E-01  8.00000000E-01  1.87311370E+01  2.82539436E+00
  6.40121692E-01  1.61277759E-01  1.10000000E+00  1.87311370E+01  2.82539436E+00
  6.40121692E-01  1.61277759E-01  1.10000000E+00  1.87311370E+01  2.82539436E+00
  6.40121692E-01  1.61277759E-01  1.10000000E+00  1.87311370E+01  2.82539436E+00
  6.40121692E-01  1.61277759E-01  1.10000000E+00  1.87311370E+01  2.82539436E+00
  6.40121692E-01  1.61277759E-01  1.10000000E+00  1.87311370E+01  2.82539436E+00
  6.40121692E-01  1.61277759E-01  1.10000000E+00
Contraction coefficients                   R   N=          63
  1.83107443E-03  1.39501722E-02  6.84450781E-02  2.32714336E-01  4.70192898E-01
  3.58520853E-01 -1.10777550E-01 -1.48026263E-01  1.13076702E+00  1.00000000E+00
  1.00000000E+00  1.83107443E-03  1.39501722E-02  6.84450781E-02  2.32714336E-01
  4.70192898E-01  3.58520853E-01 -1.10777550E-01 -1.48026263E-01  1.13076702E+00
  1.00000000E+00  1.00000000E+00  1.83107443E-03  1.39501722E-02  6.84450781E-02
  2.32714336E-01  4.70192898E-01  3.58520853E-01 -1.10777550E-01 -1.48026263E-01
  1.13076702E+00  1.00000000E+00  1.00000000E+00  3.34946043E-02  2.34726953E-01
  8.13757326E-01  1.00000000E+00  1.00000000E+00  3.34946043E-02  2.34726953E-01
  8.13757326E-01  1.00000000E+00  1.00000000E+00  3.34946043E-02  2.34726953E-01
  8.13757326E-01  1.00000000E+00  1.00000000E+00  3.34946043E-02  2.34726953E-01
  8.13757326E-01  1.00000000E+00  1.00000000E+00  3.34946043E-02  2.34726953E-01
  8.13757326E-01  1.00000000E+00  1.00000000E+00  3.34946043E-02  2.34726953E-01
  8.13757326E-01  1.00000000E+00  1.00000000E+00
P(S=P) Contraction coefficients            R   N=          63
  0.00000000E+00  0.00000000E+00  0.00000000E+00  0.00000000E+00  0.00000000E+00
  0.00000000E+00  7.08742682E-02  3.39752839E-01  7.27158577E-01  1.00000000E+00
  0.00000000E+00  0.00000000E+00  0.00000000E+00  0.00000000E+00  0.00000000E+00
  0.00000000E+00  0.00000000E+00  7.08742682E-02  3.39752839E-01  7.27158577E-01
  1.00000000E+00  0.00000000E+00  0.00000000E+00  0.00000000E+00  0.00000000E+00
  0.00000000E+00  0.00000000E+00  0.00000000E+00  7.08742682E-02  3.39752839E-01
  7.27158577E-01  1.00000000E+00  0.00000000E+00  0.00000000E+00  0.00000000E+00
  0.00000000E+00  0.00000000E+00  0.00000000E+00  0.00000000E+00  0.00000000E+00
  0.00000000E+00  0.00000000E+00  0.00000000E+00  0.00000000E+00  0.00000000E+00
  0.00000000E+00  0.00000000E+00  0.00000000E+00  0.00000000E+00  0.00000000E+00
  0.00000000E+00  0.00000000E+00  0.00000000E+00  0.00000000E+00  0.00000000E+00
  0.00000000E+00  0.00000000E+00  0.00000000E+00  0.00000000E+00  0.00000000E+00
  0.00000000E+00  0.00000000E+00  0.00000000E+00
Coordinates of each shell                  R   N=          90
  1.64278541E+01 -2.65870709E+01 -1.80414289E+01  1.64278541E+01 -2.65870709E+01
 -1.80414289E+01  1.64278541E+01 -2.65870709E+01 -1.80414289E+01  1.64278541E+01
 -2.65870709E+01 -1.80414289E+01  1.05536555E+01 -2.94649215E+01 -2.16748884E+01
  1.05536555E+01 -2.94649215E+01 -2.16748884E+01  1.05536555E+01 -2.94649215E+01
 -2.16748884E+01  1.05536555E+01 -2.94649215E+01 -2.16748884E+01  7.95719829E+00
 -2.51911925E+01 -1.42761212E+01  7.95719829E+00 -2.51911925E+01 -1.42761212E+01
  7.95719829E+00 -2.51911925E+01 -1.42761212E+01  7.95719829E+00 -2.51911925E+01
 -1.42761212E+01  1.55337188E+01 -2.59511213E+01 -1.66033699E+01  1.55337188E+01
 -2.59511213E+01 -1.66033699E+01  1.55337188E+01 -2.59511213E+01 -1.66033699E+01
  1.61624534E+01 -2.83754831E+01 -1.79860013E+01  1.61624534E+01 -2.83754831E+01
 -1.79860013E+01  1.61624534E+01 -2.83754831E+01 -1.79860013E+01  8.84108934E+00
 -2.90041213E+01 -2.20308448E+01  8.84108934E+00 -2.90041213E+01 -2.20308448E+01
  8.84108934E+00 -2.90041213E+01 -2.20308448E+01  1.13441828E+01 -2.79179445E+01
 -2.11710515E+01  1.13441828E+01 -2.79179445E+01 -2.11710515E+01  1.13441828E+01
 -2.79179445E+01 -2.11710515E+01  9.38018663E+00 -2.40850659E+01 -1.41227926E+01
  9.38018663E+00 -2.40850659E+01 -1.41227926E+01  9.38018663E+00 -2.40850659E+01
 -1.41227926E+01  8.66153702E+00 -2.67619008E+01 -1.48317423E+01  8.66153702E+00
 -2.67619008E+01 -1.48317423E+01  8.66153702E+00 -2.67619008E+01 -1.48317423E+01
Num ILSW                                   I              100
ILSW                                       I   N=         100
           0           0           0           0           2           0
           0           0           0           0           0          -1
           5           0           0           0           0           0
           0           0           0           0           0           0
           1           1           0           0           0           0
           0           0      100000           0          -1           0
           0           0           0           0           0           0
           0           0           0           1           0           0
           0 -2000000000           1           0           0           0
           0           0           4          52           0           0
           0           1           0           0           0           0
           0           0           0           9           0           1
           0           0           0           0           0           0
           0           0           0           0           0           0
           0           0           0           0           0           0
           0           0           0           0           0           0
           0           0           0           0
Num RLSW                                   I               52
RLSW                                       R   N=          52
  1.00000000E+00  1.00000000E+00  1.00000000E+00  1.00000000E+00  1.00000000E+00
  0.00000000E+00  0.00000000E+00  1.00000000E+00  0.00000000E+00  0.00000000E+00
  0.00000000E+00  0.00000000E+00  1.00000000E+00  0.00000000E+00  0.00000000E+00
  0.00000000E+00  0.00000000E+00  1.00000000E+00  0.00000000E+00  0.00000000E+00
  0.00000000E+00  0.00000000E+00  1.00000000E+00  0.00000000E+00  0.00000000E+00
  0.00000000E+00  0.00000000E+00  1.00000000E+00  0.00000000E+00  0.00000000E+00
  0.00000000E+00  0.00000000E+00  1.00000000E+00  0.00000000E+00  0.00000000E+00
  0.00000000E+00  0.00000000E+00  0.00000000E+00  1.00000000E+00  1.00000000E+00
  0.00000000E+00  1.00000000E+00  0.00000000E+00  0.00000000E+00  0.00000000E+00
  0.00000000E+00  0.00000000E+00  0.00000000E+00  0.00000000E+00  0.00000000E+00
  0.00000000E+00  0.00000000E+00
MxBond                                     I                2
NBond                                      I   N=           9
           2           2           2           1           1           1
           1           1           1
IBond                                      I   N=          18
           4           5           6           7           8           9
           1           0           1           0           2           0
           2           0           3           0           3           0
RBond                                      R   N=          18
  1.00000000E+00  1.00000000E+00  1.00000000E+00  1.00000000E+00  1.00000000E+00
  1.00000000E+00  1.00000000E+00  0.00000000E+00  1.00000000E+00  0.00000000E+00
  1.00000000E+00  0.00000000E+00  1.00000000E+00  0.00000000E+00  1.00000000E+00
  0.00000000E+00  1.00000000E+00  0.00000000E+00
Virial Ratio                               R      2.063849290797193E+00
SCF Energy                                 R     -2.422159549843429E+02
Total Energy                               R     -2.422159549843429E+02
RMS Density                                R      9.431207329111128E-09
Job Status                                 I                1
Nuclear derivative order                   I                0
External E-field                           R   N=          35
  0.00000000E+00  0.00000000E+00  0.00000000E+00  0.00000000E+00  0.00000000E+00
  0.00000000E+00  0.00000000E+00  0.00000000E+00  0.00000000E+00  0.00000000E+00
  0.00000000E+00  0.00000000E+00  0.00000000E+00  0.00000000E+00  0.00000000E+00
  0.00000000E+00  0.00000000E+00  0.00000000E+00  0.00000000E+00  0.00000000E+00
  0.00000000E+00  0.00000000E+00  0.00000000E+00  0.00000000E+00  0.00000000E+00
  0.00000000E+00  0.00000000E+00  0.00000000E+00  0.00000000E+00  0.00000000E+00
  0.00000000E+00  0.00000000E+00  0.00000000E+00  0.00000000E+00  0.00000000E+00
IOpCl                                      I                0
IROHF                                      I                0
Alpha Orbital Energies                     R   N=          72
 -2.06043918E+01 -2.05736501E+01 -2.05450199E+01 -1.38658307E+00 -1.35611922E+00
 -1.32827709E+00 -7.47683037E-01 -7.18015162E-01 -6.90153109E-01 -6.21852181E-01
 -5.90997157E-01 -5.61924979E-01 -5.45873609E-01 -5.20856160E-01 -4.89466540E-01
  1.73429771E-01  2.37991362E-01  2.48710485E-01  2.99049477E-01  3.40677188E-01
  3.63508617E-01  9.57336991E-01  9.87933422E-01  1.02151958E+00  1.05205380E+00
  1.08035815E+00  1.11375348E+00  1.12983757E+00  1.13856618E+00  1.15019741E+00
  1.16868484E+00  1.17071665E+00  1.19509962E+00  1.25256076E+00  1.29761252E+00
  1.31745996E+00  1.55349447E+00  1.59631355E+00  1.62556899E+00  1.76032855E+00
  1.78414228E+00  1.78854876E+00  1.81246213E+00  1.81592368E+00  1.84070710E+00
  1.87529523E+00  1.90505691E+00  1.93373529E+00  2.53797050E+00  2.54801280E+00
  2.57691260E+00  2.57811648E+00  2.59941695E+00  2.60650922E+00  2.76474449E+00
  2.80247511E+00  2.82663131E+00  2.93750343E+00  2.95315098E+00  2.96753435E+00
  2.98296438E+00  2.99496672E+00  3.00970892E+00  3.33607276E+00  3.37212190E+00
  3.39714964E+00  3.70541668E+00  3.74795890E+00  3.77430999E+00  3.88336350E+00
  3.92447958E+00  3.94809124E+00
Alpha MO coefficients                      R   N=        5184
  9.95705546E-01  2.19719344E-02 -1.09847164E-03 -1.05207257E-03  1.37566778E-03
 -5.93032546E-03  5.10811680E-04  4.90611543E-04 -6.41024717E-04 -2.89426093E-05
 -2.53472237E-04  1.93805160E-04 -2.87416799E-04 -3.83316205E-05  1.55485352E-05
  1.79117050E-05  6.26737183E-06 -2.64109020E-06  4.85346701E-06 -5.02096552E-05
 -7.14699135E-05 -3.75905142E-05 -3.49158204E-05  3.17032039E-06 -2.06980071E-06
 -1.01846908E-05  1.79180184E-05 -1.87512587E-05 -1.56320874E-05 -3.14106017E-05
  2.27942778E-06 -8.14164897E-07 -1.08514234E-06  1.28702949E-04  4.09056087E-05
  3.22121485E-06 -2.82197348E-06 -8.85718261E-06 -3.78877272E-07  4.52171794E-06
 -6.48689903E-07  4.86863237E-06 -5.16238451E-04  1.26652664E-03 -5.90107508E-04
  3.44751268E-04  9.36458517E-04 -5.12781759E-04  1.25246780E-03 -2.06649262E-04
 -1.13326861E-03  8.97376117E-05 -1.91957738E-05 -3.81137998E-05 -1.09357891E-05
  7.10313354E-06  1.69798711E-08  2.57931328E-05  6.79656317E-05 -1.21535613E-05
 -2.44390056E-05 -8.93289026E-06 -4.14552085E-06 -8.41162892E-05  1.52089913E-05
  1.41521711E-05  2.27294731E-06 -2.36317113E-06 -5.44845734E-05  3.43872093E-06
 -1.34995010E-05 -4.55982893E-06 -1.49915305E-05  9.17863219E-06 -2.12164477E-05
  5.78159839E-07 -1.55491067E-05  2.64936478E-05  5.25000116E-05  4.23106055E-06
  5.09703833E-05  8.95136941E-06 -4.60364710E-06 -1.65893866E-06 -1.50593547E-06
 -6.56561204E-06  9.95702389E-01  2.19873355E-02 -8.36037016E-04  1.79609395E-03
  2.37221556E-04 -5.95771833E-03  3.91039194E-04 -8.61727945E-04 -9.44634890E-05
 -3.11494882E-04  2.12010147E-04  1.28638167E-04  1.14348579E-04  1.15870781E-04
 -1.14264465E-05 -1.23667035E-05  7.86862934E-07  1.05369181E-06 -2.06964765E-06
  5.26904731E-05  9.10716334E-06 -2.94893252E-05 -4.59109551E-06 -2.95557147E-06
 -1.20435015E-06  3.59667489E-06 -3.70654490E-06 -4.84166760E-06  1.31601196E-05
 -4.42881464E-05 -1.62952873E-05  1.14057524E-06  1.21556189E-07  3.72401599E-05
 -6.78641067E-05 -8.09275714E-06 -2.72760104E-06 -5.00652201E-06 -5.02510308E-04
  1.25124369E-03 -1.06622788E-03  3.54005170E-04 -2.10652590E-04 -5.14719914E-04
  1.29309866E-03  4.41918410E-04  1.00592338E-03  3.07464858E-04 -5.23059152E-07
  6.22429783E-06 -6.00737162E-07  1.11283041E-06 -7.68123457E-07  4.67162490E-08
 -6.63744842E-05  5.50797223E-06 -1.22119041E-05 -4.23634784E-06  1.09106823E-05
 -3.02080685E-05 -2.73401994E-07 -2.81933698E-06 -2.78938118E-07  1.21642443E-04
 -3.79097841E-05  4.15823743E-05  6.28822809E-05  1.04497541E-05 -1.53941139E-05
  9.74399866E-06  3.74895338E-06 -6.33661398E-06  9.31566519E-06 -1.30230829E-05
 -2.09391779E-06  3.87613592E-07  4.47160686E-06  6.25265702E-05  1.16766521E-05
  2.43146245E-05 -4.52488458E-06 -3.50782519E-06  2.49239978E-06  1.25323531E-06
 -2.57374630E-06  3.79900590E-06  9.95703649E-01  2.19801514E-02  1.95622774E-03
 -4.09861284E-04 -3.99879120E-04 -5.93923782E-03 -9.16924352E-04  1.91788497E-04
  1.81144005E-04 -3.21541322E-04 -2.98316264E-05  2.18474360E-04 -1.52100317E-04
  1.07348831E-04 -1.00760945E-05 -1.53156364E-04 -1.63500665E-05  1.24020774E-05
  2.89133786E-05 -4.42989559E-06  3.04788087E-05  2.38915168E-06  2.10282180E-06
 -3.56458273E-06  2.44590307E-06 -1.34885260E-05 -4.32630854E-06  1.08186995E-07
  1.38226662E-06  4.14471531E-06 -6.54842353E-05  5.56847638E-06  1.16545893E-05
  5.45675099E-06 -5.15481061E-04  1.27005852E-03  9.48378767E-04  6.57008601E-04
  7.93800103E-05 -5.15861636E-04  1.26237009E-03  5.06853096E-04 -9.70005410E-04
 -3.51054604E-04 -2.12703132E-01  4.70171973E-01 -4.32344356E-02 -4.16357799E-02
  5.48552653E-02  4.46177490E-01 -1.70787599E-02 -1.34454960E-02  2.07062206E-02
  5.26744649E-04 -2.84698705E-03 -1.41287436E-03 -2.14604307E-03  7.00311801E-04
 -1.62018027E-03  3.93727083E-03 -1.04729257E-04  6.77998572E-04  1.53274580E-04
  1.73148182E-03 -2.11887230E-04 -6.45378313E-04  2.76189681E-05  6.70988855E-05
 -3.66499124E-05 -3.26058896E-05  1.55037414E-05 -5.14710834E-05 -4.27553183E-05
  2.56896698E-04  3.40828252E-05 -4.68268623E-06 -7.18217581E-06 -5.30314609E-04
 -2.00093954E-04  2.03795023E-06  1.88350823E-05  3.21399320E-05  2.14503476E-06
 -1.78019474E-05  5.76865010E-06 -1.46504803E-05  1.42814833E-01  7.79412780E-03
  1.26017087E-02 -1.17710594E-02 -1.99915323E-02  1.42963185E-01  8.88284262E-03
  2.02947384E-03  2.63882913E-02  1.22857304E-03  1.27178049E-03 -3.55667594E-04
  2.33082282E-04 -2.52665843E-05  4.52714667E-05  1.19092951E-03  2.90411807E-03
 -1.40281806E-04 -3.92293643E-04 -8.45336405E-05  5.63797702E-05  4.61772270E-04
 -5.60341616E-05 -5.34176812E-05 -8.62608543E-06  5.36459621E-05  3.43662259E-04
 -1.53314454E-05  5.82152108E-05  1.92742434E-05  1.84600455E-03 -3.82745431E-03
  3.34335728E-04  2.60871899E-04 -5.24966417E-04 -5.40598798E-03 -3.78657160E-04
  8.21849655E-04 -6.63954227E-04  4.28236495E-06  4.54730439E-05  2.99572258E-05
  1.29435592E-04 -2.37423577E-07 -2.13208599E-01  4.69793604E-01 -3.26076023E-02
  7.20880079E-02  1.00978905E-02  4.51581150E-01 -7.12942838E-03  2.49296750E-02
  1.31727693E-02 -1.68084927E-03  5.05000814E-04  1.10193562E-03  1.60671382E-04
 -8.35249261E-04 -1.49505453E-04  5.61324569E-04  6.55342842E-05 -5.50041974E-05
 -2.57940294E-05 -5.84113872E-04 -1.32814933E-04  6.10342158E-04  1.50584117E-04
  3.74014692E-05  2.43078576E-05 -5.13460718E-05  5.85816751E-05  7.72397550E-05
 -1.29621801E-03  5.77915185E-05 -3.30109729E-05  7.47993119E-05  1.82728528E-04
 -1.42373793E-03  2.47972720E-03  4.96632963E-05  1.88339685E-05  3.95334447E-06
  1.42801932E-01  9.84053407E-03  2.52510896E-02 -4.85553251E-03  5.66152968E-03
  1.39637900E-01  3.37055237E-03 -1.27487217E-02 -2.21721889E-02 -7.50404189E-03
  1.32513076E-04 -2.60104930E-04  9.63042355E-06 -2.35527633E-05 -3.33430325E-06
  1.40626632E-04  1.45341339E-03 -8.44853524E-05  1.85658414E-04  6.45224251E-05
  9.79298305E-05 -1.95473159E-05 -7.41167044E-06  4.17136191E-05  6.04847557E-06
 -9.49853600E-04  2.54360791E-04 -2.97476021E-04 -4.26782047E-04 -5.06932291E-05
  7.11631851E-05 -4.52736216E-05 -1.86965277E-05  3.02500357E-05  2.13489309E-04
 -3.11475942E-04  3.59712797E-05 -5.29836424E-05 -1.27327914E-07 -1.09569215E-03
 -6.48404991E-05 -2.79465739E-04 -9.72850733E-06  3.22625293E-05 -1.90665383E-05
 -1.72787938E-05  1.33868386E-05 -2.38898965E-05 -2.12834661E-01  4.69492006E-01
  7.76427100E-02 -1.69639388E-02 -1.60431385E-02  4.48435069E-01  2.74414722E-02
 -7.92472951E-03 -8.40446004E-03 -2.55835015E-03 -2.19784414E-05  1.61954752E-03
  1.21880601E-03 -3.34933028E-04 -8.62968116E-06  1.22204266E-03  7.23336630E-05
 -5.12900194E-05 -1.23968001E-04 -3.34747773E-05 -2.84285107E-04 -1.52019575E-05
 -2.49496504E-05  1.69378485E-05 -1.31417445E-04  1.83081654E-04  1.25185639E-05
  5.29200809E-06 -1.51792663E-06 -1.30825822E-04  6.88360784E-04 -3.00027747E-05
 -5.73509901E-05 -2.26662030E-05  1.43586227E-01  1.01100634E-02 -1.93901949E-02
 -1.78120760E-02 -2.41093315E-03  1.40551592E-01  5.54034815E-03 -8.68925924E-03
  2.39903214E-02  8.42284232E-03 -2.82351201E-04  6.19655690E-05 -1.08790777E-01
  4.33069706E-01  2.39060125E-01  2.20132302E-03 -6.13080681E-02  2.51149198E-01
  1.34581715E-01  1.80686399E-02 -1.30653119E-02  1.05917387E-02  1.76701208E-02
 -1.16753460E-02 -2.39812873E-04  5.22935215E-04 -1.44904014E-02 -5.16293532E-03
 -5.29299779E-03  1.29054368E-03 -9.08440307E-03 -2.17490929E-03 -3.29959406E-03
 -1.63074681E-04 -3.20174523E-05 -3.47323950E-04  6.88142417E-04 -7.19010572E-04
  1.57778795E-04 -3.32781236E-04  6.37727711E-04  3.47361161E-04 -1.92475843E-05
 -7.72746964E-04  4.39116473E-04  1.20743214E-04 -6.43396449E-05 -2.30116114E-05
 -1.56115600E-05 -3.86821738E-07  3.92672385E-05  9.58234093E-06  2.34479045E-01
  1.14960599E-01  1.28199432E-02 -1.37370426E-04 -1.75570177E-02 -2.38180051E-01
 -1.13990674E-01 -6.61382532E-03 -2.01906209E-02  6.93849643E-03  7.60930165E-03
  3.51702864E-03  5.49437269E-04 -4.11639379E-04  8.99947678E-05 -6.90474684E-03
 -5.34810903E-03 -5.23848332E-05  8.12567349E-04  8.39722539E-05  3.52172911E-04
  5.88647557E-04 -1.27361880E-06 -3.82262225E-05 -1.57339227E-05 -1.35217656E-04
  1.22870726E-04  4.14956354E-05 -1.28077703E-06 -7.96832384E-06  1.09350230E-03
 -1.91924815E-03 -1.09788950E-02  1.52770530E-02  5.64335817E-03 -7.35672551E-03
 -8.50546102E-03  1.13987572E-02  1.74273838E-03  5.57932365E-04 -4.60041440E-04
  4.98748305E-04  1.16292475E-03 -2.74611008E-04 -1.31301152E-03 -5.46315029E-04
  4.49868574E-01  1.79561041E-01  1.51839515E-01  1.55154048E-02  2.69150853E-01
  1.02330980E-01  9.02145410E-02  2.71705590E-03  5.78538431E-04  1.06912415E-02
 -2.20187561E-02  2.10606179E-02  8.00121905E-05 -1.15065831E-04  4.73671702E-05
 -7.55290931E-04 -3.50929449E-04 -6.03070148E-04  2.50862328E-05 -2.87973763E-04
 -2.22709028E-04  1.11239225E-05 -2.12051362E-05  4.13261527E-06  1.47950715E-06
 -3.10723034E-05  8.44833805E-03  4.24679076E-03  3.24365144E-04 -6.98943595E-05
 -6.74629236E-04 -8.61553481E-03  4.23189031E-03 -4.41916267E-04 -1.10755890E-04
  1.00308758E-04 -2.38461796E-01 -1.11810668E-01 -1.77704097E-02  1.33460478E-02
 -3.10673727E-03  2.24057249E-01  1.01819015E-01 -5.73457866E-04 -2.27069100E-02
 -3.51665147E-03 -3.37054869E-04 -2.92654258E-05  3.19064432E-05 -3.57662070E-06
 -8.48183775E-06  4.29266856E-04  6.86302734E-04 -2.78939777E-05  6.70511458E-05
  8.96677613E-06  1.14137970E-05 -1.49168738E-05  1.47489849E-04 -5.45021329E-04
 -2.46701117E-04 -7.38273146E-05  1.20330665E-04 -3.33407061E-04 -1.76860255E-04
 -1.82296243E-05  1.67657827E-05 -1.26455368E-05 -2.32911870E-05  9.89302222E-06
 -2.07185844E-04  4.12526080E-04  1.28237611E-03 -1.32109209E-04 -6.75821901E-04
  1.25840804E-03  6.88105929E-04 -4.29733180E-05 -9.00566352E-04 -3.56879777E-05
  4.80364595E-05 -4.68258417E-05 -1.53541646E-06  4.66565168E-05  1.57277923E-03
 -1.61034462E-03  1.32011063E-01  4.71965530E-01  1.27603768E-01 -1.36798741E-02
  7.80177735E-02  2.76507417E-01  7.78826602E-02 -3.26056646E-03  5.86889288E-03
 -8.31022033E-03  1.45200367E-02  2.75389211E-02 -2.28502480E-04 -1.76959942E-06
 -2.60394799E-05  1.16548248E-05  2.63051971E-05  3.11727834E-04  4.57896957E-05
  1.07065147E-05  2.12238180E-05 -7.66406947E-06 -4.67323951E-04 -1.14300297E-03
 -1.05821274E-04  3.33034678E-05 -3.97815028E-05  3.13127658E-04 -2.77997381E-04
  3.30393226E-05 -3.14494785E-05 -2.89148046E-05  2.38103820E-01  1.17394630E-01
 -2.11091046E-02 -6.70682651E-03  1.55592322E-03 -2.29263537E-01 -1.04313221E-01
  1.63083134E-02 -1.49836715E-02 -6.72973197E-03  6.70483927E-02 -1.57372937E-01
 -2.75825703E-01 -2.83779503E-01  3.88041538E-01 -2.89033496E-01 -1.95479924E-01
 -2.14234999E-01  2.83754300E-01  5.15968554E-03 -1.94264444E-02 -1.23652442E-02
 -2.33883247E-03  1.20037713E-02 -2.19827136E-04 -5.32719681E-04 -1.95229264E-03
 -3.72661075E-03  9.01508330E-04  4.65317793E-03  1.23323694E-03 -2.69774830E-04
  2.40949341E-03 -6.42043409E-05  9.57805152E-05  2.13241292E-04 -9.43732034E-05
  3.21765661E-04  4.31684050E-04 -5.22568052E-04  2.14906652E-03 -5.43484828E-04
 -4.89243241E-04 -3.69795510E-03  1.07427867E-03  1.43583316E-04 -1.50691886E-04
  1.17792155E-05 -2.58666255E-05 -4.81451600E-05  1.32842580E-04  1.59852299E-06
  1.48374055E-01  7.65436628E-02  2.37392735E-03 -1.55251161E-02 -5.03300368E-03
  1.37807853E-01  6.80533559E-02 -5.91637055E-03  1.14119450E-02  1.10151317E-02
  5.52501142E-04  2.45674247E-03  1.18385340E-04 -2.53114136E-04  1.44279117E-05
 -2.09629471E-03 -7.40862197E-03  4.31386661E-04  8.36016791E-04  3.93121229E-04
  5.47131291E-04  1.32908906E-03 -3.68125029E-05 -1.51088884E-04 -4.27726004E-05
  5.89425289E-04  2.51466817E-03 -4.01219491E-05  2.65886011E-04  8.20988956E-05
  4.03146955E-04 -1.96677407E-03 -1.05670756E-02 -1.10825867E-03 -4.39086412E-03
  2.23776255E-03 -8.24176845E-03 -3.88785413E-03 -4.08765123E-03 -5.50244148E-04
 -1.00220575E-04 -4.33359935E-06 -1.49271279E-04  3.94499518E-04  6.40991000E-02
 -1.48606963E-01 -2.09508026E-01  5.19411766E-01  1.98718732E-02 -2.74928279E-01
 -1.59153130E-01  3.76654914E-01  7.71904181E-03 -1.57398567E-02  4.87159255E-04
  7.21765142E-03 -1.40384257E-02 -1.32307216E-02  4.42039556E-04 -7.42093857E-04
  2.70955461E-03  5.04544822E-04 -9.32174445E-04 -3.10422474E-03  1.65719937E-03
  9.94409999E-04 -7.14222619E-04 -1.26307140E-05 -5.10007618E-05 -3.94241431E-05
  1.62999292E-04  8.24047808E-05  1.85642658E-04  2.63848262E-03 -2.27461958E-04
 -2.83700351E-05 -3.04523275E-04  1.06744373E-03 -7.34692042E-03 -4.30616122E-04
 -6.27351155E-04 -1.05394670E-04  1.35441891E-01  6.01618367E-02  1.20730000E-02
  9.67157883E-03  5.10670727E-03  1.53083377E-01  5.88987406E-02 -1.37972939E-02
 -5.52360556E-03 -4.47575905E-03  1.10064701E-03  5.55723984E-04 -3.91802460E-05
 -1.04309940E-04 -2.69038087E-05  2.09810910E-04  2.45482837E-03 -1.12428325E-05
  2.14048335E-04  2.57003770E-05 -6.77389124E-05  1.18824496E-03 -2.64696465E-03
  1.06146354E-03 -5.61297320E-03 -3.69690430E-03 -9.59900804E-04 -5.50235596E-04
 -6.70546966E-03 -4.40095865E-04  4.02525035E-04 -9.28829677E-05  7.03435954E-06
  1.75080989E-04 -1.74632645E-04  6.49881886E-04 -3.15512734E-04 -3.77819809E-03
  3.40916065E-03 -4.83312571E-04 -7.98344337E-04 -3.56661590E-03  2.89481094E-03