 Entering Gaussian System, Link 0=g16
 Input=w32_53.gjf
 Output=w32_53.log
 Initial command:
 /home/soft/g16/l1.exe "/tmp/liwei01/gaussian/wsr/Gau-7507.inp" -scrdir="/tmp/liwei01/gaussian/wsr/"
 Entering Link 1 = /home/soft/g16/l1.exe PID=      7508.
  
 Copyright (c) 1988,1990,1992,1993,1995,1998,2003,2009,2016,
            Gaussian, Inc.  All Rights Reserved.
  
 This is part of the Gaussian(R) 16 program.  It is based on
 the Gaussian(R) 09 system (copyright 2009, Gaussian, Inc.),
 the Gaussian(R) 03 system (copyright 2003, Gaussian, Inc.),
 the Gaussian(R) 98 system (copyright 1998, Gaussian, Inc.),
 the Gaussian(R) 94 system (copyright 1995, Gaussian, Inc.),
 the Gaussian 92(TM) system (copyright 1992, Gaussian, Inc.),
 the Gaussian 90(TM) system (copyright 1990, Gaussian, Inc.),
 the Gaussian 88(TM) system (copyright 1988, Gaussian, Inc.),
 the Gaussian 86(TM) system (copyright 1986, Carnegie Mellon
 University), and the Gaussian 82(TM) system (copyright 1983,
 Carnegie Mellon University). Gaussian is a federally registered
 trademark of Gaussian, Inc.
  
 This software contains proprietary and confidential information,
 including trade secrets, belonging to Gaussian, Inc.
  
 This software is provided under written license and may be
 used, copied, transmitted, or stored only in accord with that
 written license.
  
 The following legend is applicable only to US Government
 contracts under FAR:
  
                    RESTRICTED RIGHTS LEGEND
  
 Use, reproduction and disclosure by the US Government is
 subject to restrictions as set forth in subparagraphs (a)
 and (c) of the Commercial Computer Software - Restricted
 Rights clause in FAR 52.227-19.
  
 Gaussian, Inc.
 340 Quinnipiac St., Bldg. 40, Wallingford CT 06492
  
  
 ---------------------------------------------------------------
 Warning -- This program may not be used in any manner that
 competes with the business of Gaussian, Inc. or will provide
 assistance to any competitor of Gaussian, Inc.  The licensee
 of this program is prohibited from giving any competitor of
 Gaussian, Inc. access to this program.  By using this program,
 the user acknowledges that Gaussian, Inc. is engaged in the
 business of creating and licensing software in the field of
 computational chemistry and represents and warrants to the
 licensee that it is not a competitor of Gaussian, Inc. and that
 it will not use this program in any manner prohibited above.
 ---------------------------------------------------------------
  

 Cite this work as:
 Gaussian 16, Revision A.03,
 M. J. Frisch, G. W. Trucks, H. B. Schlegel, G. E. Scuseria, 
 M. A. Robb, J. R. Cheeseman, G. Scalmani, V. Barone, 
 G. A. Petersson, H. Nakatsuji, X. Li, M. Caricato, A. V. Marenich, 
 J. Bloino, B. G. Janesko, R. Gomperts, B. Mennucci, H. P. Hratchian, 
 J. V. Ortiz, A. F. Izmaylov, J. L. Sonnenberg, D. Williams-Young, 
 F. Ding, F. Lipparini, F. Egidi, J. Goings, B. Peng, A. Petrone, 
 T. Henderson, D. Ranasinghe, V. G. Zakrzewski, J. Gao, N. Rega, 
 G. Zheng, W. Liang, M. Hada, M. Ehara, K. Toyota, R. Fukuda, 
 J. Hasegawa, M. Ishida, T. Nakajima, Y. Honda, O. Kitao, H. Nakai, 
 T. Vreven, K. Throssell, J. A. Montgomery, Jr., J. E. Peralta, 
 F. Ogliaro, M. J. Bearpark, J. J. Heyd, E. N. Brothers, K. N. Kudin, 
 V. N. Staroverov, T. A. Keith, R. Kobayashi, J. Normand, 
 K. Raghavachari, A. P. Rendell, J. C. Burant, S. S. Iyengar, 
 J. Tomasi, M. Cossi, J. M. Millam, M. Klene, C. Adamo, R. Cammi, 
 J. W. Ochterski, R. L. Martin, K. Morokuma, O. Farkas, 
 J. B. Foresman, and D. J. Fox, Gaussian, Inc., Wallingford CT, 2016.
 
 ******************************************
 Gaussian 16:  ES64L-G16RevA.03 25-Dec-2016
                15-May-2020 
 ******************************************
 %chk=w32_53.chk
 %nproc=4
 Will use up to    4 processors via shared memory.
 %mem=1gb
 -----------------------------------------
 #p hf/6-31g** 5d 7f pop=npa charge nosymm
 -----------------------------------------
 1/18=10,28=-2,38=1,125=101,172=1/1;
 2/12=2,15=1,17=6,18=5,40=1/2;
 3/5=1,6=6,7=101,8=11,11=9,25=1,30=1/1,2,3;
 4//1;
 5/5=2,38=5/2;
 6/7=2,8=2,9=2,10=2,28=1,40=-1/1,7;
 99/5=1,9=1/99;
 Leave Link    1 at Fri May 15 22:35:58 2020, MaxMem=   134217728 cpu:               0.3 elap:               0.1
 (Enter /home/soft/g16/l101.exe)
 -------------
 Atom number=9
 -------------
 Symbolic Z-matrix:
 Charge =  0 Multiplicity = 1
 o                     8.39232  -11.81294  -11.20048 
 o                     7.25028  -9.85963  -13.10346 
 o                     10.08491  -9.603    -13.69441 
 h                     8.17528  -12.53782  -10.61424 
 h                     9.25215  -11.5141  -10.90447 
 h                     7.12066  -10.22147  -13.9801 
 h                     7.34148  -10.62674  -12.53826 
 h                     9.83796  -9.87791  -14.5774 
 h                     9.26711  -9.62837  -13.19764 
 
 ITRead=  0  0  0  0  0  0  0  0  0
 MicOpt= -1 -1 -1 -1 -1 -1 -1 -1 -1
 NAtoms=      9 NQM=        9 NQMF=       0 NMMI=      0 NMMIF=      0
                NMic=       0 NMicF=      0.
                    Isotopes and Nuclear Properties:
 (Nuclear quadrupole moments (NQMom) in fm**2, nuclear magnetic moments (NMagM)
  in nuclear magnetons)

  Atom         1           2           3           4           5           6           7           8           9
 IAtWgt=          16          16          16           1           1           1           1           1           1
 AtmWgt=  15.9949146  15.9949146  15.9949146   1.0078250   1.0078250   1.0078250   1.0078250   1.0078250   1.0078250
 NucSpn=           0           0           0           1           1           1           1           1           1
 AtZEff=  -0.0000000  -0.0000000  -0.0000000  -0.0000000  -0.0000000  -0.0000000  -0.0000000  -0.0000000  -0.0000000
 NQMom=    0.0000000   0.0000000   0.0000000   0.0000000   0.0000000   0.0000000   0.0000000   0.0000000   0.0000000
 NMagM=    0.0000000   0.0000000   0.0000000   2.7928460   2.7928460   2.7928460   2.7928460   2.7928460   2.7928460
 AtZNuc=   8.0000000   8.0000000   8.0000000   1.0000000   1.0000000   1.0000000   1.0000000   1.0000000   1.0000000
 Background charge distribution read from input stream:
 Point Charges:
 XYZ=   10.7060  -10.8489  -10.0915 Q=   -1.0357 A=    0.0000 R=    0.0000 C=    0.0000
 XYZ=   11.5214  -11.3203   -9.9208 Q=    0.5206 A=    0.0000 R=    0.0000 C=    0.0000
 XYZ=   10.5678  -10.3169   -9.3078 Q=    0.5156 A=    0.0000 R=    0.0000 C=    0.0000
 XYZ=    8.6932  -14.0693   -9.5471 Q=   -1.0099 A=    0.0000 R=    0.0000 C=    0.0000
 XYZ=    8.2201  -13.7327   -8.7861 Q=    0.4999 A=    0.0000 R=    0.0000 C=    0.0000
 XYZ=    8.5528  -15.0157   -9.5178 Q=    0.5079 A=    0.0000 R=    0.0000 C=    0.0000
 XYZ=    5.5704  -12.7600  -10.7338 Q=   -1.0500 A=    0.0000 R=    0.0000 C=    0.0000
 XYZ=    4.6427  -12.8278  -10.5079 Q=    0.5214 A=    0.0000 R=    0.0000 C=    0.0000
 XYZ=    5.9838  -12.4052   -9.9468 Q=    0.5064 A=    0.0000 R=    0.0000 C=    0.0000
 XYZ=    6.9662   -9.2478  -10.2743 Q=   -1.0324 A=    0.0000 R=    0.0000 C=    0.0000
 XYZ=    6.9752   -9.8450  -11.0223 Q=    0.5142 A=    0.0000 R=    0.0000 C=    0.0000
 XYZ=    7.6844   -8.6385  -10.4451 Q=    0.5185 A=    0.0000 R=    0.0000 C=    0.0000
 XYZ=    6.9426  -11.8294   -8.3710 Q=   -1.0528 A=    0.0000 R=    0.0000 C=    0.0000
 XYZ=    7.4956  -12.0911   -7.6348 Q=    0.5210 A=    0.0000 R=    0.0000 C=    0.0000
 XYZ=    7.3075  -10.9928   -8.6597 Q=    0.5255 A=    0.0000 R=    0.0000 C=    0.0000
 XYZ=    9.7397  -14.5602  -13.0841 Q=   -1.0029 A=    0.0000 R=    0.0000 C=    0.0000
 XYZ=    9.4367  -13.9209  -12.4394 Q=    0.5215 A=    0.0000 R=    0.0000 C=    0.0000
 XYZ=   10.6527  -14.3230  -13.2466 Q=    0.4988 A=    0.0000 R=    0.0000 C=    0.0000
 XYZ=    9.4738   -7.9972  -10.9180 Q=   -0.9971 A=    0.0000 R=    0.0000 C=    0.0000
 XYZ=    9.9975   -8.7956  -10.8516 Q=    0.5301 A=    0.0000 R=    0.0000 C=    0.0000
 XYZ=    9.6234   -7.5424  -10.0892 Q=    0.4920 A=    0.0000 R=    0.0000 C=    0.0000
 XYZ=    8.4516  -10.6356  -15.6859 Q=   -1.0322 A=    0.0000 R=    0.0000 C=    0.0000
 XYZ=    8.1250  -10.4069  -16.5562 Q=    0.4798 A=    0.0000 R=    0.0000 C=    0.0000
 XYZ=    9.2622  -11.1166  -15.8526 Q=    0.5341 A=    0.0000 R=    0.0000 C=    0.0000
 XYZ=    4.0391  -11.2243  -12.8044 Q=   -0.9921 A=    0.0000 R=    0.0000 C=    0.0000
 XYZ=    4.5248  -12.0476  -12.7552 Q=    0.4802 A=    0.0000 R=    0.0000 C=    0.0000
 XYZ=    4.4321  -10.7575  -13.5420 Q=    0.5046 A=    0.0000 R=    0.0000 C=    0.0000
 XYZ=    5.5848  -15.5922  -11.4699 Q=   -1.0129 A=    0.0000 R=    0.0000 C=    0.0000
 XYZ=    4.6785  -15.3483  -11.6582 Q=    0.5050 A=    0.0000 R=    0.0000 C=    0.0000
 XYZ=    6.0031  -14.7735  -11.2032 Q=    0.5257 A=    0.0000 R=    0.0000 C=    0.0000
 XYZ=    8.8013  -12.4259   -6.4973 Q=   -0.9852 A=    0.0000 R=    0.0000 C=    0.0000
 XYZ=    9.0556  -11.7490   -5.8701 Q=    0.5006 A=    0.0000 R=    0.0000 C=    0.0000
 XYZ=    8.9395  -13.2499   -6.0303 Q=    0.5083 A=    0.0000 R=    0.0000 C=    0.0000
 XYZ=   10.5523   -9.0602   -7.7657 Q=   -0.9799 A=    0.0000 R=    0.0000 C=    0.0000
 XYZ=   10.0296   -9.4526   -7.0665 Q=    0.5003 A=    0.0000 R=    0.0000 C=    0.0000
 XYZ=   10.0576   -8.2839   -8.0284 Q=    0.4937 A=    0.0000 R=    0.0000 C=    0.0000
 XYZ=    8.4919  -14.1596  -15.7110 Q=   -0.9823 A=    0.0000 R=    0.0000 C=    0.0000
 XYZ=    8.8439  -15.0437  -15.8144 Q=    0.4799 A=    0.0000 R=    0.0000 C=    0.0000
 XYZ=    8.9183  -13.8221  -14.9233 Q=    0.4950 A=    0.0000 R=    0.0000 C=    0.0000
 XYZ=   10.6752  -11.9252  -15.8192 Q=   -0.9837 A=    0.0000 R=    0.0000 C=    0.0000
 XYZ=   11.1454  -12.2597  -15.0555 Q=    0.5055 A=    0.0000 R=    0.0000 C=    0.0000
 XYZ=   10.7694  -12.6123  -16.4789 Q=    0.5125 A=    0.0000 R=    0.0000 C=    0.0000
 XYZ=    7.7593  -16.5050  -13.2460 Q=   -1.0112 A=    0.0000 R=    0.0000 C=    0.0000
 XYZ=    7.3079  -16.2111  -12.4547 Q=    0.4926 A=    0.0000 R=    0.0000 C=    0.0000
 XYZ=    8.5373  -15.9498  -13.2987 Q=    0.4973 A=    0.0000 R=    0.0000 C=    0.0000
 XYZ=   13.4576  -11.7733   -9.7740 Q=   -0.9993 A=    0.0000 R=    0.0000 C=    0.0000
 XYZ=   13.9089  -10.9962  -10.1037 Q=    0.5128 A=    0.0000 R=    0.0000 C=    0.0000
 XYZ=   14.1508  -12.4236   -9.6612 Q=    0.5076 A=    0.0000 R=    0.0000 C=    0.0000
 XYZ=    5.5914  -15.5335   -8.7002 Q=   -1.0162 A=    0.0000 R=    0.0000 C=    0.0000
 XYZ=    6.3093  -16.0707   -8.3652 Q=    0.4831 A=    0.0000 R=    0.0000 C=    0.0000
 XYZ=    5.4763  -15.8239   -9.6050 Q=    0.5237 A=    0.0000 R=    0.0000 C=    0.0000
 XYZ=    5.3398  -11.2122  -15.4745 Q=   -0.9760 A=    0.0000 R=    0.0000 C=    0.0000
 XYZ=    5.8801  -10.4587  -15.7120 Q=    0.4863 A=    0.0000 R=    0.0000 C=    0.0000
 XYZ=    5.4896  -11.8457  -16.1763 Q=    0.4965 A=    0.0000 R=    0.0000 C=    0.0000
 XYZ=   12.9960  -14.7139  -11.2100 Q=   -0.9778 A=    0.0000 R=    0.0000 C=    0.0000
 XYZ=   12.2864  -15.1619  -10.7497 Q=    0.5059 A=    0.0000 R=    0.0000 C=    0.0000
 XYZ=   13.6357  -14.5124  -10.5270 Q=    0.4638 A=    0.0000 R=    0.0000 C=    0.0000
 XYZ=    4.6413   -8.1383  -12.6711 Q=   -0.9897 A=    0.0000 R=    0.0000 C=    0.0000
 XYZ=    4.5978   -7.2720  -12.2662 Q=    0.4876 A=    0.0000 R=    0.0000 C=    0.0000
 XYZ=    5.5765   -8.3384  -12.7100 Q=    0.4969 A=    0.0000 R=    0.0000 C=    0.0000
 XYZ=    8.9611  -17.0167   -9.2755 Q=   -0.9921 A=    0.0000 R=    0.0000 C=    0.0000
 XYZ=    8.6736  -17.2191   -8.3852 Q=    0.5092 A=    0.0000 R=    0.0000 C=    0.0000
 XYZ=    8.3026  -17.4234   -9.8386 Q=    0.5103 A=    0.0000 R=    0.0000 C=    0.0000
 XYZ=   12.8900   -9.6906  -13.7511 Q=   -0.9984 A=    0.0000 R=    0.0000 C=    0.0000
 XYZ=   13.4884   -9.8459  -13.0204 Q=    0.4670 A=    0.0000 R=    0.0000 C=    0.0000
 XYZ=   12.0171   -9.7427  -13.3618 Q=    0.5160 A=    0.0000 R=    0.0000 C=    0.0000
 XYZ=    4.9070   -7.9100   -9.1300 Q=   -1.0105 A=    0.0000 R=    0.0000 C=    0.0000
 XYZ=    4.0635   -8.0265   -9.5674 Q=    0.4764 A=    0.0000 R=    0.0000 C=    0.0000
 XYZ=    5.4227   -8.6710   -9.3968 Q=    0.5176 A=    0.0000 R=    0.0000 C=    0.0000
 XYZ=    2.9547  -12.7024   -9.8757 Q=   -0.9915 A=    0.0000 R=    0.0000 C=    0.0000
 XYZ=    3.0641  -13.5048   -9.3654 Q=    0.5019 A=    0.0000 R=    0.0000 C=    0.0000
 XYZ=    2.7384  -12.0329   -9.2268 Q=    0.5105 A=    0.0000 R=    0.0000 C=    0.0000
 XYZ=    4.2108  -13.3306   -7.5546 Q=   -1.0293 A=    0.0000 R=    0.0000 C=    0.0000
 XYZ=    4.9638  -12.7453   -7.4735 Q=    0.4979 A=    0.0000 R=    0.0000 C=    0.0000
 XYZ=    4.5835  -14.1618   -7.8486 Q=    0.5197 A=    0.0000 R=    0.0000 C=    0.0000
 XYZ=    8.5389   -6.2611  -12.9484 Q=   -1.0019 A=    0.0000 R=    0.0000 C=    0.0000
 XYZ=    8.8800   -6.8491  -12.2745 Q=    0.5098 A=    0.0000 R=    0.0000 C=    0.0000
 XYZ=    9.2767   -6.1230  -13.5423 Q=    0.4773 A=    0.0000 R=    0.0000 C=    0.0000
 XYZ=   11.4715  -15.3553   -7.5180 Q=   -1.0197 A=    0.0000 R=    0.0000 C=    0.0000
 XYZ=   10.8644  -15.3558   -8.2581 Q=    0.4753 A=    0.0000 R=    0.0000 C=    0.0000
 XYZ=   11.9075  -14.5045   -7.5658 Q=    0.5146 A=    0.0000 R=    0.0000 C=    0.0000
 XYZ=   12.8138  -13.0185   -7.3663 Q=   -0.9959 A=    0.0000 R=    0.0000 C=    0.0000
 XYZ=   12.4819  -12.4171   -6.6996 Q=    0.4994 A=    0.0000 R=    0.0000 C=    0.0000
 XYZ=   12.6552  -12.5682   -8.1960 Q=    0.5110 A=    0.0000 R=    0.0000 C=    0.0000
 XYZ=   11.3245  -17.0116  -10.7628 Q=   -1.0019 A=    0.0000 R=    0.0000 C=    0.0000
 XYZ=   11.7165  -17.8633  -10.5702 Q=    0.4876 A=    0.0000 R=    0.0000 C=    0.0000
 XYZ=   10.4428  -17.0644  -10.3939 Q=    0.5095 A=    0.0000 R=    0.0000 C=    0.0000
 Pt Chg Charge=              0.0230 electrons
 Pt Chg Dipole moment (Debye):
    X=             19.0050    Y=             -3.6897    Z=             14.3004  Tot=             24.0688
 Pt Chg Quadrupole moment (Debye-Ang):
   XX=            296.2106   YY=             89.8793   ZZ=           -265.7005
   XY=           -201.6354   XZ=            -79.2361   YZ=           -145.7492
 Pt Chg Traceless Quadrupole moment (Debye-Ang):
   XX=            256.0808   YY=             49.7495   ZZ=           -305.8303
   XY=           -201.6354   XZ=            -79.2361   YZ=           -145.7492
 Pt Chg Octapole moment (Debye-Ang**2):
  XXX=           3938.5643  YYY=          -2112.8706  ZZZ=           3464.3735  XYY=           2307.6319
  XXY=          -2950.6900  XXZ=          -2111.4770  XZZ=             26.8028  YZZ=           2942.5832
  YYZ=           1456.6774  XYZ=            806.3162
 Pt Chg Hexadecapole moment (Debye-Ang**3):
 XXXX=          52491.4615 YYYY=          48226.2377 ZZZZ=         -33850.6041 XXXY=         -38557.9640
 XXXZ=         -32628.5920 YYYX=         -30679.4301 YYYZ=         -11913.1161 ZZZX=           3179.7775
 ZZZY=         -39509.0171 XXYY=          30396.8466 XXZZ=          15490.7836 YYZZ=         -34842.2839
 XXYZ=          21681.7705 YYXZ=          -8611.0990 ZZXY=             10.0000
 Leave Link  101 at Fri May 15 22:35:58 2020, MaxMem=   134217728 cpu:               0.6 elap:               0.2
 (Enter /home/soft/g16/l202.exe)
                          Input orientation:                          
 ---------------------------------------------------------------------
 Center     Atomic      Atomic             Coordinates (Angstroms)
 Number     Number       Type             X           Y           Z
 ---------------------------------------------------------------------
      1          8           0        8.392325  -11.812941  -11.200483
      2          8           0        7.250284   -9.859627  -13.103456
      3          8           0       10.084912   -9.602997  -13.694410
      4          1           0        8.175276  -12.537815  -10.614239
      5          1           0        9.252154  -11.514100  -10.904475
      6          1           0        7.120660  -10.221473  -13.980096
      7          1           0        7.341484  -10.626744  -12.538261
      8          1           0        9.837963   -9.877914  -14.577398
      9          1           0        9.267108   -9.628370  -13.197635
 ---------------------------------------------------------------------
                    Distance matrix (angstroms):
                    1          2          3          4          5
     1  O    0.000000
     2  O    2.956518   0.000000
     3  O    3.737429   2.906923   0.000000
     4  H    0.957201   3.771538   4.663402   0.000000
     5  H    0.957200   3.402981   3.482749   1.513901   0.000000
     6  H    3.446179   0.957200   3.041532   4.219792   3.958989
     7  H    2.073880   0.957200   3.148196   2.837122   2.665955
     8  H    4.151837   2.978074   0.957200   5.054328   4.063329
     9  H    3.086456   2.032223   0.957200   4.041151   2.968970
                    6          7          8          9
     6  H    0.000000
     7  H    1.513901   0.000000
     8  H    2.803308   3.309265   0.000000
     9  H    2.360351   2.267058   1.513900   0.000000
 Symmetry turned off by external request.
 Stoichiometry    H6O3
 Framework group  C1[X(H6O3)]
 Deg. of freedom    21
 Full point group                 C1      NOp   1
 Rotational constants (GHZ):           7.9939962           3.8661574           2.6519713
 Leave Link  202 at Fri May 15 22:35:58 2020, MaxMem=   134217728 cpu:               0.0 elap:               0.0
 (Enter /home/soft/g16/l301.exe)
 Standard basis: 6-31G(d,p) (5D, 7F)
 Ernie: Thresh=  0.10000D-02 Tol=  0.10000D-05 Strict=F.
    72 basis functions,   126 primitive gaussians,    75 cartesian basis functions
    15 alpha electrons       15 beta electrons
       nuclear repulsion energy        78.1388561730 Hartrees.
 IExCor=    0 DFT=F Ex=HF Corr=None ExCW=0 ScaHFX=  1.000000
 ScaDFX=  1.000000  1.000000  1.000000  1.000000 ScalE2=  1.000000  1.000000
 IRadAn=      5 IRanWt=     -1 IRanGd=            0 ICorTp=0 IEmpDi=  4
 NAtoms=    9 NActive=    9 NUniq=    9 SFac= 1.00D+00 NAtFMM=   60 NAOKFM=F Big=F
 Integral buffers will be    131072 words long.
 Raffenetti 1 integral format.
 Two-electron integral symmetry is turned off.
 Background charge distribution read from rwf.
 PtFMM for NChg=        96 BoxLen=    40.00 Levels= 1 LMax=20 SMax=    22.2 ICnFMM=     1:
 Self energy of the charges =       -13.9797668386 a.u.
 MM   energy of the charges =         0.0000000000 a.u.
 Nuclei-charges interaction =        -0.6356843852 a.u.
 Nuclear repulsion after external point charges =       63.5234049492 Hartrees.
 Leave Link  301 at Fri May 15 22:35:58 2020, MaxMem=   134217728 cpu:               0.2 elap:               0.1
 (Enter /home/soft/g16/l302.exe)
 NPDir=0 NMtPBC=     1 NCelOv=     1 NCel=       1 NClECP=     1 NCelD=      1
         NCelK=      1 NCelE2=     1 NClLst=     1 CellRange=     0.0.
 One-electron integrals computed using PRISM.
 NBasis=    72 RedAO= T EigKep=  3.21D-02  NBF=    72
 NBsUse=    72 1.00D-06 EigRej= -1.00D+00 NBFU=    72
 Leave Link  302 at Fri May 15 22:35:58 2020, MaxMem=   134217728 cpu:               0.4 elap:               0.1
 (Enter /home/soft/g16/l303.exe)
 DipDrv:  MaxL=1.
 Leave Link  303 at Fri May 15 22:35:58 2020, MaxMem=   134217728 cpu:               0.1 elap:               0.0
 (Enter /home/soft/g16/l401.exe)
 ExpMin= 1.61D-01 ExpMax= 5.48D+03 ExpMxC= 8.25D+02 IAcc=3 IRadAn=         5 AccDes= 0.00D+00
 Harris functional with IExCor=  205 and IRadAn=       5 diagonalized for initial guess.
 HarFok:  IExCor=  205 AccDes= 0.00D+00 IRadAn=         5 IDoV= 1 UseB2=F ITyADJ=14
 ICtDFT=  3500011 ScaDFX=  1.000000  1.000000  1.000000  1.000000
 FoFCou: FMM=F IPFlag=           0 FMFlag=      100000 FMFlg1=           0
         NFxFlg=           0 DoJE=T BraDBF=F KetDBF=T FulRan=T
         wScrn=  0.000000 ICntrl=       500 IOpCl=  0 I1Cent=   200000004 NGrid=           0
         NMat0=    1 NMatS0=      1 NMatT0=    0 NMatD0=    1 NMtDS0=    0 NMtDT0=    0
 Symmetry not used in FoFCou.
 Harris En= -242.416621227404    
 JPrj=0 DoOrth=F DoCkMO=F.
 Leave Link  401 at Fri May 15 22:35:59 2020, MaxMem=   134217728 cpu:               1.2 elap:               0.3
 (Enter /home/soft/g16/l502.exe)
 Keep R1 ints in memory in canonical form, NReq=4307695.
 FoFCou: FMM=F IPFlag=           0 FMFlag=           0 FMFlg1=           0
         NFxFlg=           0 DoJE=F BraDBF=F KetDBF=F FulRan=T
         wScrn=  0.000000 ICntrl=       600 IOpCl=  0 I1Cent=           0 NGrid=           0
         NMat0=    1 NMatS0=   2628 NMatT0=    0 NMatD0=    1 NMtDS0=    0 NMtDT0=    0
 Symmetry not used in FoFCou.
 Two-electron integral symmetry not used.
 Closed shell SCF:
 Using DIIS extrapolation, IDIIS=  1040.
 NGot=   134217728 LenX=   130750732 LenY=   130744666
 Requested convergence on RMS density matrix=1.00D-08 within 128 cycles.
 Requested convergence on MAX density matrix=1.00D-06.
 Requested convergence on             energy=1.00D-06.
 No special actions if energy rises.

 Cycle   1  Pass 1  IDiag  1:
 E= -241.896584881892    
 DIIS: error= 5.23D-02 at cycle   1 NSaved=   1.
 NSaved= 1 IEnMin= 1 EnMin= -241.896584881892     IErMin= 1 ErrMin= 5.23D-02
 ErrMax= 5.23D-02  0.00D+00 EMaxC= 1.00D-01 BMatC= 3.61D-01 BMatP= 3.61D-01
 IDIUse=3 WtCom= 4.77D-01 WtEn= 5.23D-01
 Coeff-Com:  0.100D+01
 Coeff-En:   0.100D+01
 Coeff:      0.100D+01
 Gap=     0.659 Goal=   None    Shift=    0.000
 GapD=    0.659 DampG=2.000 DampE=0.500 DampFc=1.0000 IDamp=-1.
 RMSDP=6.70D-03 MaxDP=1.25D-01              OVMax= 1.23D-01

 Cycle   2  Pass 1  IDiag  1:
 E= -242.064248182490     Delta-E=       -0.167663300598 Rises=F Damp=F
 DIIS: error= 2.87D-02 at cycle   2 NSaved=   2.
 NSaved= 2 IEnMin= 2 EnMin= -242.064248182490     IErMin= 2 ErrMin= 2.87D-02
 ErrMax= 2.87D-02  0.00D+00 EMaxC= 1.00D-01 BMatC= 1.07D-01 BMatP= 3.61D-01
 IDIUse=3 WtCom= 7.13D-01 WtEn= 2.87D-01
 Coeff-Com:  0.340D+00 0.660D+00
 Coeff-En:   0.668D-01 0.933D+00
 Coeff:      0.262D+00 0.738D+00
 Gap=     0.707 Goal=   None    Shift=    0.000
 RMSDP=2.99D-03 MaxDP=5.33D-02 DE=-1.68D-01 OVMax= 4.54D-02

 Cycle   3  Pass 1  IDiag  1:
 E= -242.135082127521     Delta-E=       -0.070833945031 Rises=F Damp=F
 DIIS: error= 5.64D-03 at cycle   3 NSaved=   3.
 NSaved= 3 IEnMin= 3 EnMin= -242.135082127521     IErMin= 3 ErrMin= 5.64D-03
 ErrMax= 5.64D-03  0.00D+00 EMaxC= 1.00D-01 BMatC= 2.80D-03 BMatP= 1.07D-01
 IDIUse=3 WtCom= 9.44D-01 WtEn= 5.64D-02
 Coeff-Com: -0.310D-01 0.957D-01 0.935D+00
 Coeff-En:   0.000D+00 0.000D+00 0.100D+01
 Coeff:     -0.293D-01 0.903D-01 0.939D+00
 Gap=     0.693 Goal=   None    Shift=    0.000
 RMSDP=4.27D-04 MaxDP=8.19D-03 DE=-7.08D-02 OVMax= 8.64D-03

 Cycle   4  Pass 1  IDiag  1:
 E= -242.137223842420     Delta-E=       -0.002141714899 Rises=F Damp=F
 DIIS: error= 4.69D-04 at cycle   4 NSaved=   4.
 NSaved= 4 IEnMin= 4 EnMin= -242.137223842420     IErMin= 4 ErrMin= 4.69D-04
 ErrMax= 4.69D-04  0.00D+00 EMaxC= 1.00D-01 BMatC= 2.21D-05 BMatP= 2.80D-03
 IDIUse=3 WtCom= 9.95D-01 WtEn= 4.69D-03
 Coeff-Com:  0.530D-02-0.409D-01-0.261D+00 0.130D+01
 Coeff-En:   0.000D+00 0.000D+00 0.000D+00 0.100D+01
 Coeff:      0.528D-02-0.407D-01-0.260D+00 0.130D+01
 Gap=     0.694 Goal=   None    Shift=    0.000
 RMSDP=1.03D-04 MaxDP=1.51D-03 DE=-2.14D-03 OVMax= 2.26D-03

 Cycle   5  Pass 1  IDiag  1:
 E= -242.137264850185     Delta-E=       -0.000041007765 Rises=F Damp=F
 DIIS: error= 1.25D-04 at cycle   5 NSaved=   5.
 NSaved= 5 IEnMin= 5 EnMin= -242.137264850185     IErMin= 5 ErrMin= 1.25D-04
 ErrMax= 1.25D-04  0.00D+00 EMaxC= 1.00D-01 BMatC= 1.13D-06 BMatP= 2.21D-05
 IDIUse=3 WtCom= 9.99D-01 WtEn= 1.25D-03
 Coeff-Com:  0.186D-02-0.827D-02-0.641D-01 0.101D+00 0.969D+00
 Coeff-En:   0.000D+00 0.000D+00 0.000D+00 0.000D+00 0.100D+01
 Coeff:      0.186D-02-0.826D-02-0.641D-01 0.101D+00 0.969D+00
 Gap=     0.695 Goal=   None    Shift=    0.000
 RMSDP=2.17D-05 MaxDP=3.43D-04 DE=-4.10D-05 OVMax= 4.22D-04

 Cycle   6  Pass 1  IDiag  1:
 E= -242.137266734766     Delta-E=       -0.000001884581 Rises=F Damp=F
 DIIS: error= 4.56D-05 at cycle   6 NSaved=   6.
 NSaved= 6 IEnMin= 6 EnMin= -242.137266734766     IErMin= 6 ErrMin= 4.56D-05
 ErrMax= 4.56D-05  0.00D+00 EMaxC= 1.00D-01 BMatC= 1.40D-07 BMatP= 1.13D-06
 IDIUse=1 WtCom= 1.00D+00 WtEn= 0.00D+00
 Coeff-Com: -0.127D-03 0.219D-02 0.128D-01-0.105D+00 0.174D+00 0.916D+00
 Coeff:     -0.127D-03 0.219D-02 0.128D-01-0.105D+00 0.174D+00 0.916D+00
 Gap=     0.695 Goal=   None    Shift=    0.000
 RMSDP=6.96D-06 MaxDP=1.32D-04 DE=-1.88D-06 OVMax= 1.65D-04

 Cycle   7  Pass 1  IDiag  1:
 E= -242.137266928370     Delta-E=       -0.000000193604 Rises=F Damp=F
 DIIS: error= 9.01D-06 at cycle   7 NSaved=   7.
 NSaved= 7 IEnMin= 7 EnMin= -242.137266928370     IErMin= 7 ErrMin= 9.01D-06
 ErrMax= 9.01D-06  0.00D+00 EMaxC= 1.00D-01 BMatC= 6.04D-09 BMatP= 1.40D-07
 IDIUse=1 WtCom= 1.00D+00 WtEn= 0.00D+00
 Coeff-Com: -0.145D-03 0.643D-03 0.514D-02-0.775D-02-0.825D-01-0.803D-02
 Coeff-Com:  0.109D+01
 Coeff:     -0.145D-03 0.643D-03 0.514D-02-0.775D-02-0.825D-01-0.803D-02
 Coeff:      0.109D+01
 Gap=     0.695 Goal=   None    Shift=    0.000
 RMSDP=1.93D-06 MaxDP=3.89D-05 DE=-1.94D-07 OVMax= 4.54D-05

 Cycle   8  Pass 1  IDiag  1:
 E= -242.137266939930     Delta-E=       -0.000000011560 Rises=F Damp=F
 DIIS: error= 1.39D-06 at cycle   8 NSaved=   8.
 NSaved= 8 IEnMin= 8 EnMin= -242.137266939930     IErMin= 8 ErrMin= 1.39D-06
 ErrMax= 1.39D-06  0.00D+00 EMaxC= 1.00D-01 BMatC= 2.17D-10 BMatP= 6.04D-09
 IDIUse=1 WtCom= 1.00D+00 WtEn= 0.00D+00
 Coeff-Com:  0.450D-04-0.260D-03-0.197D-02 0.596D-02 0.198D-01-0.257D-01
 Coeff-Com: -0.335D+00 0.134D+01
 Coeff:      0.450D-04-0.260D-03-0.197D-02 0.596D-02 0.198D-01-0.257D-01
 Coeff:     -0.335D+00 0.134D+01
 Gap=     0.695 Goal=   None    Shift=    0.000
 RMSDP=3.40D-07 MaxDP=7.87D-06 DE=-1.16D-08 OVMax= 7.85D-06

 Cycle   9  Pass 1  IDiag  1:
 E= -242.137266940415     Delta-E=       -0.000000000485 Rises=F Damp=F
 DIIS: error= 1.87D-07 at cycle   9 NSaved=   9.
 NSaved= 9 IEnMin= 9 EnMin= -242.137266940415     IErMin= 9 ErrMin= 1.87D-07
 ErrMax= 1.87D-07  0.00D+00 EMaxC= 1.00D-01 BMatC= 5.60D-12 BMatP= 2.17D-10
 IDIUse=1 WtCom= 1.00D+00 WtEn= 0.00D+00
 Coeff-Com: -0.360D-06 0.886D-05 0.597D-04-0.554D-03 0.117D-02 0.423D-02
 Coeff-Com: -0.453D-02-0.156D+00 0.116D+01
 Coeff:     -0.360D-06 0.886D-05 0.597D-04-0.554D-03 0.117D-02 0.423D-02
 Coeff:     -0.453D-02-0.156D+00 0.116D+01
 Gap=     0.695 Goal=   None    Shift=    0.000
 RMSDP=5.55D-08 MaxDP=1.08D-06 DE=-4.85D-10 OVMax= 1.25D-06

 Cycle  10  Pass 1  IDiag  1:
 E= -242.137266940429     Delta-E=       -0.000000000014 Rises=F Damp=F
 DIIS: error= 3.43D-08 at cycle  10 NSaved=  10.
 NSaved=10 IEnMin=10 EnMin= -242.137266940429     IErMin=10 ErrMin= 3.43D-08
 ErrMax= 3.43D-08  0.00D+00 EMaxC= 1.00D-01 BMatC= 2.26D-13 BMatP= 5.60D-12
 IDIUse=1 WtCom= 1.00D+00 WtEn= 0.00D+00
 Coeff-Com: -0.161D-05 0.846D-05 0.654D-04-0.155D-03-0.881D-03 0.322D-03
 Coeff-Com:  0.124D-01-0.196D-01-0.218D+00 0.123D+01
 Coeff:     -0.161D-05 0.846D-05 0.654D-04-0.155D-03-0.881D-03 0.322D-03
 Coeff:      0.124D-01-0.196D-01-0.218D+00 0.123D+01
 Gap=     0.695 Goal=   None    Shift=    0.000
 RMSDP=1.35D-08 MaxDP=1.57D-07 DE=-1.39D-11 OVMax= 2.96D-07

 Cycle  11  Pass 1  IDiag  1:
 E= -242.137266940428     Delta-E=        0.000000000001 Rises=F Damp=F
 DIIS: error= 9.17D-09 at cycle  11 NSaved=  11.
 NSaved=11 IEnMin=10 EnMin= -242.137266940429     IErMin=11 ErrMin= 9.17D-09
 ErrMax= 9.17D-09  0.00D+00 EMaxC= 1.00D-01 BMatC= 1.02D-14 BMatP= 2.26D-13
 IDIUse=1 WtCom= 1.00D+00 WtEn= 0.00D+00
 Coeff-Com:  0.150D-06-0.101D-05-0.751D-05 0.308D-04 0.435D-04-0.165D-03
 Coeff-Com: -0.101D-02 0.735D-02-0.223D-01-0.112D+00 0.113D+01
 Coeff:      0.150D-06-0.101D-05-0.751D-05 0.308D-04 0.435D-04-0.165D-03
 Coeff:     -0.101D-02 0.735D-02-0.223D-01-0.112D+00 0.113D+01
 Gap=     0.695 Goal=   None    Shift=    0.000
 RMSDP=2.89D-09 MaxDP=4.09D-08 DE= 6.25D-13 OVMax= 6.03D-08

 SCF Done:  E(RHF) =  -242.137266940     A.U. after   11 cycles
            NFock= 11  Conv=0.29D-08     -V/T= 2.0634
 KE= 2.276942629446D+02 PE=-6.977498968103D+02 EE= 1.643949619761D+02
 Leave Link  502 at Fri May 15 22:35:59 2020, MaxMem=   134217728 cpu:               0.8 elap:               0.3
 (Enter /home/soft/g16/l601.exe)
 Copying SCF densities to generalized density rwf, IOpCl= 0 IROHF=0.

 **********************************************************************

            Population analysis using the SCF density.

 **********************************************************************

 Alpha  occ. eigenvalues --  -20.54747 -20.53113 -20.50941  -1.33155  -1.31650
 Alpha  occ. eigenvalues --   -1.29247  -0.69194  -0.68250  -0.65879  -0.57186
 Alpha  occ. eigenvalues --   -0.54613  -0.53755  -0.49385  -0.46678  -0.45494
 Alpha virt. eigenvalues --    0.24044   0.29355   0.33674   0.36907   0.40943
 Alpha virt. eigenvalues --    0.43747   0.99442   1.04111   1.06858   1.11846
 Alpha virt. eigenvalues --    1.12933   1.14807   1.15649   1.19523   1.20394
 Alpha virt. eigenvalues --    1.23630   1.28465   1.30494   1.35357   1.38484
 Alpha virt. eigenvalues --    1.43035   1.61726   1.70677   1.76027   1.81615
 Alpha virt. eigenvalues --    1.82463   1.84276   1.85447   1.91204   1.92707
 Alpha virt. eigenvalues --    1.96064   1.97008   2.02969   2.59296   2.60643
 Alpha virt. eigenvalues --    2.60833   2.64989   2.65543   2.67823   2.83245
 Alpha virt. eigenvalues --    2.85007   2.87368   2.99708   3.00830   3.02267
 Alpha virt. eigenvalues --    3.03418   3.04375   3.08293   3.40858   3.41965
 Alpha virt. eigenvalues --    3.45606   3.78425   3.79310   3.84974   3.94568
 Alpha virt. eigenvalues --    3.98125   4.04717
          Condensed to atoms (all electrons):
               1          2          3          4          5          6
     1  O    8.129690  -0.006903  -0.000140   0.314193   0.311618   0.000134
     2  O   -0.006903   8.120242  -0.010783   0.000188   0.000352   0.317739
     3  O   -0.000140  -0.010783   8.172743   0.000002   0.000508   0.001105
     4  H    0.314193   0.000188   0.000002   0.311910  -0.019012  -0.000007
     5  H    0.311618   0.000352   0.000508  -0.019012   0.307779  -0.000001
     6  H    0.000134   0.317739   0.001105  -0.000007  -0.000001   0.311049
     7  H    0.020296   0.302859   0.000812  -0.000645  -0.001183  -0.020419
     8  H    0.000001   0.001213   0.323114   0.000000  -0.000012   0.000196
     9  H    0.001075   0.030670   0.310920  -0.000019   0.000091  -0.001679
               7          8          9
     1  O    0.020296   0.000001   0.001075
     2  O    0.302859   0.001213   0.030670
     3  O    0.000812   0.323114   0.310920
     4  H   -0.000645   0.000000  -0.000019
     5  H   -0.001183  -0.000012   0.000091
     6  H   -0.020419   0.000196  -0.001679
     7  H    0.328616   0.000052  -0.002252
     8  H    0.000052   0.315695  -0.027661
     9  H   -0.002252  -0.027661   0.309424
 Mulliken charges:
               1
     1  O   -0.769966
     2  O   -0.755578
     3  O   -0.798282
     4  H    0.393388
     5  H    0.399861
     6  H    0.391883
     7  H    0.371863
     8  H    0.387401
     9  H    0.379431
 Sum of Mulliken charges =   0.00000
 Mulliken charges with hydrogens summed into heavy atoms:
               1
     1  O    0.023282
     2  O    0.008168
     3  O   -0.031450
 Electronic spatial extent (au):  <R**2>=          37188.9996
 Charge=              0.0000 electrons
 Dipole moment (field-independent basis, Debye):
    X=             -1.2672    Y=             -4.1420    Z=              0.4111  Tot=              4.3510
 Quadrupole moment (field-independent basis, Debye-Ang):
   XX=            -46.5353   YY=             67.8110   ZZ=            -16.4131
   XY=            -22.5872   XZ=             23.9249   YZ=             43.8476
 Traceless Quadrupole moment (field-independent basis, Debye-Ang):
   XX=            -48.1562   YY=             66.1902   ZZ=            -18.0340
   XY=            -22.5872   XZ=             23.9249   YZ=             43.8476
 Octapole moment (field-independent basis, Debye-Ang**2):
  XXX=           -926.9058  YYY=           -783.5006  ZZZ=            425.4203  XYY=            446.4634
  XXY=            164.8420  XXZ=            696.9832  XZZ=           -452.2081  YZZ=           -396.2772
  YYZ=           -708.6537  XYZ=            168.5265
 Hexadecapole moment (field-independent basis, Debye-Ang**3):
 XXXX=         -14655.1209 YYYY=           7119.5609 ZZZZ=          -9186.5026 XXXY=           6689.1884
 XXXZ=          13064.6921 YYYX=          -5287.5719 YYYZ=           7602.9068 ZZZX=           8260.6692
 ZZZY=           2399.1059 XXYY=            146.1394 XXZZ=         -10637.8716 YYZZ=           6666.1272
 XXYZ=          -3476.4863 YYXZ=          -3921.8929 ZZXY=           -242.6233
 N-N= 6.352340494916D+01 E-N=-6.977498966532D+02  KE= 2.276942629446D+02
 No NMR shielding tensors so no spin-rotation constants.
 Leave Link  601 at Fri May 15 22:35:59 2020, MaxMem=   134217728 cpu:               0.5 elap:               0.2
 (Enter /home/soft/g16/l607.exe)
 ******************************Gaussian NBO Version 3.1******************************
             N A T U R A L   A T O M I C   O R B I T A L   A N D
          N A T U R A L   B O N D   O R B I T A L   A N A L Y S I S
 ******************************Gaussian NBO Version 3.1******************************
       /RESON  / : Allow strongly delocalized NBO set

 Analyzing the SCF density

 Job title: Atom number=9                                                   

 Storage needed:     15894 in NPA ( 134217269 available)
 GSVD:  LWork=        2304 too small for GESVD, short by        3132 words or        3132 for optimal perf.


 NATURAL POPULATIONS:  Natural atomic orbital occupancies 
                                                          
   NAO  Atom  No  lang   Type(AO)    Occupancy      Energy
 ----------------------------------------------------------
     1    O    1  S      Cor( 1S)     1.99986     -20.38518
     2    O    1  S      Val( 2S)     1.75874      -1.15471
     3    O    1  S      Ryd( 3S)     0.00086       1.71466
     4    O    1  px     Val( 2p)     1.68589      -0.38598
     5    O    1  px     Ryd( 3p)     0.00152       1.31166
     6    O    1  py     Val( 2p)     1.74968      -0.40843
     7    O    1  py     Ryd( 3p)     0.00142       1.28635
     8    O    1  pz     Val( 2p)     1.84712      -0.44481
     9    O    1  pz     Ryd( 3p)     0.00048       1.26942
    10    O    1  dxy    Ryd( 3d)     0.00054       2.55357
    11    O    1  dxz    Ryd( 3d)     0.00130       2.52210
    12    O    1  dyz    Ryd( 3d)     0.00144       2.72257
    13    O    1  dx2y2  Ryd( 3d)     0.00083       2.68797
    14    O    1  dz2    Ryd( 3d)     0.00134       2.36466

    15    O    2  S      Cor( 1S)     1.99986     -20.36187
    16    O    2  S      Val( 2S)     1.75232      -1.13929
    17    O    2  S      Ryd( 3S)     0.00086       1.87518
    18    O    2  px     Val( 2p)     1.97320      -0.46201
    19    O    2  px     Ryd( 3p)     0.00086       1.30127
    20    O    2  py     Val( 2p)     1.75015      -0.40280
    21    O    2  py     Ryd( 3p)     0.00033       1.24687
    22    O    2  pz     Val( 2p)     1.55062      -0.32713
    23    O    2  pz     Ryd( 3p)     0.00174       1.33495
    24    O    2  dxy    Ryd( 3d)     0.00146       2.27325
    25    O    2  dxz    Ryd( 3d)     0.00011       2.33831
    26    O    2  dyz    Ryd( 3d)     0.00169       3.05258
    27    O    2  dx2y2  Ryd( 3d)     0.00186       2.53424
    28    O    2  dz2    Ryd( 3d)     0.00050       2.74776

    29    O    3  S      Cor( 1S)     1.99985     -20.33970
    30    O    3  S      Val( 2S)     1.74936      -1.11806
    31    O    3  S      Ryd( 3S)     0.00077       1.85612
    32    O    3  px     Val( 2p)     1.75897      -0.39129
    33    O    3  px     Ryd( 3p)     0.00069       1.23958
    34    O    3  py     Val( 2p)     1.96786      -0.44183
    35    O    3  py     Ryd( 3p)     0.00051       1.21760
    36    O    3  pz     Val( 2p)     1.57305      -0.31230
    37    O    3  pz     Ryd( 3p)     0.00177       1.36768
    38    O    3  dxy    Ryd( 3d)     0.00126       2.30676
    39    O    3  dxz    Ryd( 3d)     0.00118       2.90095
    40    O    3  dyz    Ryd( 3d)     0.00039       2.45894
    41    O    3  dx2y2  Ryd( 3d)     0.00148       2.58381
    42    O    3  dz2    Ryd( 3d)     0.00058       2.78012

    43    H    4  S      Val( 1S)     0.46725       0.40265
    44    H    4  S      Ryd( 2S)     0.00050       0.74713
    45    H    4  px     Ryd( 2p)     0.00055       2.74174
    46    H    4  py     Ryd( 2p)     0.00133       3.09089
    47    H    4  pz     Ryd( 2p)     0.00108       2.93003

    48    H    5  S      Val( 1S)     0.46405       0.41015
    49    H    5  S      Ryd( 2S)     0.00067       0.76714
    50    H    5  px     Ryd( 2p)     0.00160       3.28656
    51    H    5  py     Ryd( 2p)     0.00070       2.76338
    52    H    5  pz     Ryd( 2p)     0.00078       2.73497

    53    H    6  S      Val( 1S)     0.46777       0.41339
    54    H    6  S      Ryd( 2S)     0.00053       0.79200
    55    H    6  px     Ryd( 2p)     0.00076       2.66714
    56    H    6  py     Ryd( 2p)     0.00075       2.79586
    57    H    6  pz     Ryd( 2p)     0.00145       3.33087

    58    H    7  S      Val( 1S)     0.48415       0.38655
    59    H    7  S      Ryd( 2S)     0.00074       0.88116
    60    H    7  px     Ryd( 2p)     0.00092       2.66847
    61    H    7  py     Ryd( 2p)     0.00143       3.18437
    62    H    7  pz     Ryd( 2p)     0.00080       2.96333

    63    H    8  S      Val( 1S)     0.47274       0.42640
    64    H    8  S      Ryd( 2S)     0.00060       0.77985
    65    H    8  px     Ryd( 2p)     0.00061       2.76001
    66    H    8  py     Ryd( 2p)     0.00086       2.71393
    67    H    8  pz     Ryd( 2p)     0.00141       3.35312

    68    H    9  S      Val( 1S)     0.47666       0.41518
    69    H    9  S      Ryd( 2S)     0.00213       0.88904
    70    H    9  px     Ryd( 2p)     0.00152       3.27225
    71    H    9  py     Ryd( 2p)     0.00080       2.65653
    72    H    9  pz     Ryd( 2p)     0.00056       2.95015


 Summary of Natural Population Analysis:                  
                                                          
                                       Natural Population 
                Natural  -----------------------------------------------
    Atom  No    Charge         Core      Valence    Rydberg      Total
 -----------------------------------------------------------------------
      O    1   -1.05102      1.99986     7.04144    0.00972     9.05102
      O    2   -1.03555      1.99986     7.02629    0.00940     9.03555
      O    3   -1.05772      1.99985     7.04924    0.00863     9.05772
      H    4    0.52930      0.00000     0.46725    0.00346     0.47070
      H    5    0.53220      0.00000     0.46405    0.00375     0.46780
      H    6    0.52874      0.00000     0.46777    0.00349     0.47126
      H    7    0.51195      0.00000     0.48415    0.00390     0.48805
      H    8    0.52378      0.00000     0.47274    0.00348     0.47622
      H    9    0.51833      0.00000     0.47666    0.00501     0.48167
 =======================================================================
   * Total *    0.00000      5.99957    23.94960    0.05083    30.00000

                                 Natural Population      
 --------------------------------------------------------
   Core                       5.99957 ( 99.9928% of   6)
   Valence                   23.94960 ( 99.7900% of  24)
   Natural Minimal Basis     29.94917 ( 99.8306% of  30)
   Natural Rydberg Basis      0.05083 (  0.1694% of  30)
 --------------------------------------------------------

    Atom  No          Natural Electron Configuration
 ----------------------------------------------------------------------------
      O    1      [core]2S( 1.76)2p( 5.28)3d( 0.01)
      O    2      [core]2S( 1.75)2p( 5.27)3d( 0.01)
      O    3      [core]2S( 1.75)2p( 5.30)
      H    4            1S( 0.47)
      H    5            1S( 0.46)
      H    6            1S( 0.47)
      H    7            1S( 0.48)
      H    8            1S( 0.47)
      H    9            1S( 0.48)


 NBO analysis skipped by request.
 Leave Link  607 at Fri May 15 22:35:59 2020, MaxMem=   134217728 cpu:               0.7 elap:               0.2
 (Enter /home/soft/g16/l9999.exe)

 Test job not archived.
 1\1\GINC-MASTER\SP\RHF\6-31G(d,p)\H6O3\LIWEI01\15-May-2020\0\\#p hf/6-
 31g** 5d 7f pop=npa charge nosymm\\Atom number=9\\0,1\O,0,8.392325,-11
 .812941,-11.200483\O,0,7.250284,-9.859627,-13.103456\O,0,10.084912,-9.
 602997,-13.69441\H,0,8.175276,-12.537815,-10.614239\H,0,9.252154,-11.5
 141,-10.904475\H,0,7.12066,-10.221473,-13.980096\H,0,7.341484,-10.6267
 44,-12.538261\H,0,9.837963,-9.877914,-14.577398\H,0,9.267108,-9.62837,
 -13.197635\\Version=ES64L-G16RevA.03\HF=-242.1372669\RMSD=2.892e-09\Di
 pole=-0.4985357,-1.6295935,0.161723\Quadrupole=-35.8029196,49.2107544,
 -13.4078348,-16.7930499,17.7876091,32.5996003\PG=C01 [X(H6O3)]\\@


 We find comfort among those who agree with us -- growth among those who don't.
 -- Frank A. Clark
 Job cpu time:       0 days  0 hours  0 minutes  5.1 seconds.
 Elapsed time:       0 days  0 hours  0 minutes  1.5 seconds.
 File lengths (MBytes):  RWF=     72 Int=      0 D2E=      0 Chk=      8 Scr=      8
 Normal termination of Gaussian 16 at Fri May 15 22:35:59 2020.
