Atom number=6                                                           
SP        RHF                                                         6-31G(d,p)          
Number of atoms                            I                6
Info1-9                                    I   N=           9
         107         106           0           0           0         111
           1           1           2
Full Title                                 C   N=           2
Atom number=6           
Route                                      C   N=           4
#p hf/6-31g** 5d 7f pop=npa charge nosymm       
Charge                                     I                0
Multiplicity                               I                1
Number of electrons                        I               20
Number of alpha electrons                  I               10
Number of beta electrons                   I               10
Number of basis functions                  I               48
Number of independent functions            I               48
Number of point charges in /Mol/           I                0
Number of translation vectors              I                0
Atomic numbers                             I   N=           6
           8           8           1           1           1           1
Nuclear charges                            R   N=           6
  8.00000000E+00  8.00000000E+00  1.00000000E+00  1.00000000E+00  1.00000000E+00
  1.00000000E+00
Current cartesian coordinates              R   N=          18
  1.58591958E+01 -2.23232232E+01 -2.11658453E+01  2.01732119E+01 -2.25352958E+01
 -2.98939423E+01  1.54490326E+01 -2.36930366E+01 -2.00580047E+01  1.74840371E+01
 -2.17584956E+01 -2.06064713E+01  2.10617025E+01 -2.31675113E+01 -2.84507471E+01
  2.03511466E+01 -2.38337078E+01 -3.11406929E+01
Number of symbols in /Mol/                 I                0
Force Field                                I                0
Atom Types                                 C   N=           6
                                                            
            
Int Atom Types                             I   N=           6
           0           0           0           0           0           0
MM charges                                 R   N=           6
  0.00000000E+00  0.00000000E+00  0.00000000E+00  0.00000000E+00  0.00000000E+00
  0.00000000E+00
Integer atomic weights                     I   N=           6
          16          16           1           1           1           1
Real atomic weights                        R   N=           6
  1.59949146E+01  1.59949146E+01  1.00782504E+00  1.00782504E+00  1.00782504E+00
  1.00782504E+00
Atom fragment info                         I   N=           6
           0           0           0           0           0           0
Atom residue num                           I   N=           6
           0           0           0           0           0           0
Nuclear spins                              I   N=           6
           0           0           1           1           1           1
Nuclear ZEff                               R   N=           6
 -5.60000000E+00 -5.60000000E+00 -1.00000000E+00 -1.00000000E+00 -1.00000000E+00
 -1.00000000E+00
Nuclear ZNuc                               R   N=           6
  8.00000000E+00  8.00000000E+00  1.00000000E+00  1.00000000E+00  1.00000000E+00
  1.00000000E+00
Nuclear QMom                               R   N=           6
  0.00000000E+00  0.00000000E+00  0.00000000E+00  0.00000000E+00  0.00000000E+00
  0.00000000E+00
Nuclear GFac                               R   N=           6
  0.00000000E+00  0.00000000E+00  2.79284600E+00  2.79284600E+00  2.79284600E+00
  2.79284600E+00
MicOpt                                     I   N=           6
          -1          -1          -1          -1          -1          -1
Number of residues                         I                0
Number of secondary structures             I                0
Number of contracted shells                I               20
Number of primitive shells                 I               42
Pure/Cartesian d shells                    I                0
Pure/Cartesian f shells                    I                0
Highest angular momentum                   I                2
Largest degree of contraction              I                6
Shell types                                I   N=          20
           0          -1          -1          -2           0          -1
          -1          -2           0           0           1           0
           0           1           0           0           1           0
           0           1
Number of primitives per shell             I   N=          20
           6           3           1           1           6           3
           1           1           3           1           1           3
           1           1           3           1           1           3
           1           1
Shell to atom map                          I   N=          20
           1           1           1           1           2           2
           2           2           3           3           3           4
           4           4           5           5           5           6
           6           6
Primitive exponents                        R   N=          42
  5.48467166E+03  8.25234946E+02  1.88046958E+02  5.29645000E+01  1.68975704E+01
  5.79963534E+00  1.55396162E+01  3.59993359E+00  1.01376175E+00  2.70005823E-01
  8.00000000E-01  5.48467166E+03  8.25234946E+02  1.88046958E+02  5.29645000E+01
  1.68975704E+01  5.79963534E+00  1.55396162E+01  3.59993359E+00  1.01376175E+00
  2.70005823E-01  8.00000000E-01  1.87311370E+01  2.82539436E+00  6.40121692E-01
  1.61277759E-01  1.10000000E+00  1.87311370E+01  2.82539436E+00  6.40121692E-01
  1.61277759E-01  1.10000000E+00  1.87311370E+01  2.82539436E+00  6.40121692E-01
  1.61277759E-01  1.10000000E+00  1.87311370E+01  2.82539436E+00  6.40121692E-01
  1.61277759E-01  1.10000000E+00
Contraction coefficients                   R   N=          42
  1.83107443E-03  1.39501722E-02  6.84450781E-02  2.32714336E-01  4.70192898E-01
  3.58520853E-01 -1.10777550E-01 -1.48026263E-01  1.13076702E+00  1.00000000E+00
  1.00000000E+00  1.83107443E-03  1.39501722E-02  6.84450781E-02  2.32714336E-01
  4.70192898E-01  3.58520853E-01 -1.10777550E-01 -1.48026263E-01  1.13076702E+00
  1.00000000E+00  1.00000000E+00  3.34946043E-02  2.34726953E-01  8.13757326E-01
  1.00000000E+00  1.00000000E+00  3.34946043E-02  2.34726953E-01  8.13757326E-01
  1.00000000E+00  1.00000000E+00  3.34946043E-02  2.34726953E-01  8.13757326E-01
  1.00000000E+00  1.00000000E+00  3.34946043E-02  2.34726953E-01  8.13757326E-01
  1.00000000E+00  1.00000000E+00
P(S=P) Contraction coefficients            R   N=          42
  0.00000000E+00  0.00000000E+00  0.00000000E+00  0.00000000E+00  0.00000000E+00
  0.00000000E+00  7.08742682E-02  3.39752839E-01  7.27158577E-01  1.00000000E+00
  0.00000000E+00  0.00000000E+00  0.00000000E+00  0.00000000E+00  0.00000000E+00
  0.00000000E+00  0.00000000E+00  7.08742682E-02  3.39752839E-01  7.27158577E-01
  1.00000000E+00  0.00000000E+00  0.00000000E+00  0.00000000E+00  0.00000000E+00
  0.00000000E+00  0.00000000E+00  0.00000000E+00  0.00000000E+00  0.00000000E+00
  0.00000000E+00  0.00000000E+00  0.00000000E+00  0.00000000E+00  0.00000000E+00
  0.00000000E+00  0.00000000E+00  0.00000000E+00  0.00000000E+00  0.00000000E+00
  0.00000000E+00  0.00000000E+00
Coordinates of each shell                  R   N=          60
  1.58591958E+01 -2.23232232E+01 -2.11658453E+01  1.58591958E+01 -2.23232232E+01
 -2.11658453E+01  1.58591958E+01 -2.23232232E+01 -2.11658453E+01  1.58591958E+01
 -2.23232232E+01 -2.11658453E+01  2.01732119E+01 -2.25352958E+01 -2.98939423E+01
  2.01732119E+01 -2.25352958E+01 -2.98939423E+01  2.01732119E+01 -2.25352958E+01
 -2.98939423E+01  2.01732119E+01 -2.25352958E+01 -2.98939423E+01  1.54490326E+01
 -2.36930366E+01 -2.00580047E+01  1.54490326E+01 -2.36930366E+01 -2.00580047E+01
  1.54490326E+01 -2.36930366E+01 -2.00580047E+01  1.74840371E+01 -2.17584956E+01
 -2.06064713E+01  1.74840371E+01 -2.17584956E+01 -2.06064713E+01  1.74840371E+01
 -2.17584956E+01 -2.06064713E+01  2.10617025E+01 -2.31675113E+01 -2.84507471E+01
  2.10617025E+01 -2.31675113E+01 -2.84507471E+01  2.10617025E+01 -2.31675113E+01
 -2.84507471E+01  2.03511466E+01 -2.38337078E+01 -3.11406929E+01  2.03511466E+01
 -2.38337078E+01 -3.11406929E+01  2.03511466E+01 -2.38337078E+01 -3.11406929E+01
Num ILSW                                   I              100
ILSW                                       I   N=         100
           0           0           0           0           2           0
           0           0           0           0           0          -1
           5           0           0           0           0           0
           0           0           0           0           0           0
           1           1           0           0           0           0
           0           0      100000           0          -1           0
           0           0           0           0           0           0
           0           0           0           1           0           0
           0 -2000000000           1           0           0           0
           0           0           4          52           0           0
           0           1           0           0           0           0
           0           0           0           6           0           1
           0           0           0           0           0           0
           0           0           0           0           0           0
           0           0           0           0           0           0
           0           0           0           0           0           0
           0           0           0           0
Num RLSW                                   I               52
RLSW                                       R   N=          52
  1.00000000E+00  1.00000000E+00  1.00000000E+00  1.00000000E+00  1.00000000E+00
  0.00000000E+00  0.00000000E+00  1.00000000E+00  0.00000000E+00  0.00000000E+00
  0.00000000E+00  0.00000000E+00  1.00000000E+00  0.00000000E+00  0.00000000E+00
  0.00000000E+00  0.00000000E+00  1.00000000E+00  0.00000000E+00  0.00000000E+00
  0.00000000E+00  0.00000000E+00  1.00000000E+00  0.00000000E+00  0.00000000E+00
  0.00000000E+00  0.00000000E+00  1.00000000E+00  0.00000000E+00  0.00000000E+00
  0.00000000E+00  0.00000000E+00  1.00000000E+00  0.00000000E+00  0.00000000E+00
  0.00000000E+00  0.00000000E+00  0.00000000E+00  1.00000000E+00  1.00000000E+00
  0.00000000E+00  1.00000000E+00  0.00000000E+00  0.00000000E+00  0.00000000E+00
  0.00000000E+00  0.00000000E+00  0.00000000E+00  0.00000000E+00  0.00000000E+00
  0.00000000E+00  0.00000000E+00
MxBond                                     I                2
NBond                                      I   N=           6
           2           2           1           1           1           1
IBond                                      I   N=          12
           3           4           5           6           1           0
           1           0           2           0           2           0
RBond                                      R   N=          12
  1.00000000E+00  1.00000000E+00  1.00000000E+00  1.00000000E+00  1.00000000E+00
  0.00000000E+00  1.00000000E+00  0.00000000E+00  1.00000000E+00  0.00000000E+00
  1.00000000E+00  0.00000000E+00
Virial Ratio                               R      2.098053948575617E+00
SCF Energy                                 R     -1.666655180561227E+02
Total Energy                               R     -1.666655180561227E+02
RMS Density                                R      1.908598204595629E-09
Job Status                                 I                1
Nuclear derivative order                   I                0
External E-field                           R   N=          35
  0.00000000E+00  0.00000000E+00  0.00000000E+00  0.00000000E+00  0.00000000E+00
  0.00000000E+00  0.00000000E+00  0.00000000E+00  0.00000000E+00  0.00000000E+00
  0.00000000E+00  0.00000000E+00  0.00000000E+00  0.00000000E+00  0.00000000E+00
  0.00000000E+00  0.00000000E+00  0.00000000E+00  0.00000000E+00  0.00000000E+00
  0.00000000E+00  0.00000000E+00  0.00000000E+00  0.00000000E+00  0.00000000E+00
  0.00000000E+00  0.00000000E+00  0.00000000E+00  0.00000000E+00  0.00000000E+00
  0.00000000E+00  0.00000000E+00  0.00000000E+00  0.00000000E+00  0.00000000E+00
IOpCl                                      I                0
IROHF                                      I                0
Alpha Orbital Energies                     R   N=          48
 -2.05893052E+01 -2.05420878E+01 -1.37049740E+00 -1.32492025E+00 -7.31144444E-01
 -6.84228305E-01 -6.14527862E-01 -5.64181709E-01 -5.28450611E-01 -4.88341673E-01
  2.00994132E-01  2.70058936E-01  2.93010317E-01  3.75382576E-01  9.78632890E-01
  1.03209343E+00  1.06458783E+00  1.12056059E+00  1.12701858E+00  1.14802883E+00
  1.17032927E+00  1.18760913E+00  1.26516433E+00  1.31973239E+00  1.56912345E+00
  1.61815724E+00  1.77795256E+00  1.79480302E+00  1.82140917E+00  1.84007690E+00
  1.88768902E+00  1.93402865E+00  2.55383539E+00  2.56309769E+00  2.60976314E+00
  2.61171651E+00  2.77898739E+00  2.83333692E+00  2.95345564E+00  2.96526703E+00
  3.00259159E+00  3.01405895E+00  3.34813282E+00  3.40315286E+00  3.71987936E+00
  3.77865808E+00  3.89623577E+00  3.95303621E+00
Alpha MO coefficients                      R   N=        2304
 -8.65145493E-07 -1.60353685E-06  1.05112847E-07 -2.94453516E-07 -4.53271841E-07
  7.56158803E-06  3.39351008E-06  1.59054613E-06  2.77574405E-06 -1.88722481E-07
  5.59544175E-07 -1.47706432E-07  4.62850744E-07  5.77717951E-07  9.95703191E-01
  2.19828463E-02  8.80835742E-04 -1.77802703E-03  1.94741733E-04 -5.94318258E-03
 -4.30973632E-04  8.35276732E-04 -9.17415385E-05  2.76964012E-04  2.16703263E-04
  1.51689864E-04 -1.15598991E-04 -1.33382274E-04 -1.07088464E-06  9.66632105E-07
 -1.82987496E-07 -3.99954736E-07 -1.44679903E-07  1.63154309E-07 -9.25079110E-06
  1.92573472E-06  6.07391793E-07  3.01039018E-07 -5.04440836E-04  1.25972985E-03
  5.76822989E-04 -4.54548496E-04  8.79062784E-04 -5.07011989E-04  1.26016938E-03
  1.49624707E-04 -8.59381331E-04 -7.48515162E-04  9.95701200E-01  2.19805495E-02
  1.08350658E-03 -6.95806009E-04  1.49301733E-03 -5.92790631E-03 -5.09482146E-04
  3.35170344E-04 -7.06178689E-04 -1.29598815E-04  7.28674676E-05 -2.34416008E-04
  6.09234388E-05  3.24074903E-04  5.96228591E-07 -1.31207127E-06 -1.01361693E-07
 -4.35479293E-08 -6.27112404E-08  5.60256112E-06  2.02636853E-06 -1.03131657E-06
  3.21422791E-06  3.97340194E-07  6.63414563E-07 -4.55346474E-07  6.22975611E-08
 -3.64016985E-07 -5.05588900E-04  1.25521669E-03 -2.01327826E-04 -8.52319945E-04
  7.28054210E-04 -5.10255234E-04  1.25424899E-03  1.02525262E-03  3.09443199E-04
  3.99903665E-04 -2.81886718E-07 -7.32266583E-06  8.10783101E-07 -5.85437133E-07
  1.39592727E-06 -5.01438012E-07  1.61703913E-06 -1.57795017E-07  1.57873778E-07
 -6.69590613E-08 -8.92834545E-06  3.02593931E-05  3.61580366E-06 -3.22417094E-07
  2.68369223E-06 -2.52822322E-05 -2.13110728E-05 -1.05160181E-05 -1.78166076E-05
  1.14861867E-06 -2.58606293E-06  3.03624402E-07 -2.42401880E-06 -2.68697000E-06
 -2.12941306E-01  4.71452754E-01  3.51709239E-02 -7.05533852E-02  7.38231907E-03
  4.45106639E-01  5.90907214E-03 -2.48961818E-02  1.67407644E-03 -6.57043694E-04
  1.52763329E-03  2.26113296E-04 -1.23690343E-03 -4.77017840E-03  1.05101218E-05
 -6.18704451E-06  1.39323999E-06  2.41638652E-06 -1.45394983E-07  6.02278077E-06
  6.60743173E-05 -9.34931124E-06 -3.25281183E-06 -2.03959496E-06  1.43890826E-01
  9.79080037E-03 -1.25470897E-02  6.74021785E-03 -2.20485823E-02  1.43319323E-01
  7.80937140E-03 -9.84852479E-04  1.75461752E-02  1.96969362E-02 -2.13260508E-01
  4.69467432E-01  4.40933595E-02 -2.79099585E-02  6.00012726E-02  4.52369932E-01
  1.66697441E-02 -6.83417688E-03  2.02777831E-02  3.20502547E-04  2.30310731E-03
 -2.42213772E-03  9.94153208E-05 -6.78361611E-05  1.58502306E-05  1.59589371E-06
  6.12863030E-07  3.99801626E-06  5.99433164E-06 -1.75048354E-04 -5.69542516E-05
  2.50962654E-05 -9.19847329E-05 -7.64662502E-06 -1.29186317E-05  9.96427924E-06
 -1.93285185E-06  6.76466461E-06  1.40995552E-01  7.62979308E-03  7.49621557E-03
  2.05539804E-02 -1.50738904E-02  1.40202395E-01  5.57098740E-03 -2.42568236E-02
 -9.99816294E-03 -6.86280535E-03 -4.49277505E-06  2.37017910E-04 -1.43854445E-05
  1.07454635E-05 -2.40491736E-05 -1.84294236E-06 -5.45443071E-05  3.13568153E-06
 -4.86209577E-06 -4.83073969E-07  1.55698868E-05  9.01800759E-06  2.72817245E-04
  2.00048315E-04 -1.65419254E-04 -2.65418680E-04  7.26625695E-05  5.54592466E-05
 -2.54745631E-04 -5.69219898E-06 -5.00756202E-06  1.87393581E-05  7.24179629E-06
 -1.12842109E-05  5.95630272E-04 -3.37144606E-04  1.29845406E-01  1.10623598E-01
  4.77957918E-01 -4.94305289E-03  7.42691817E-02  5.86371785E-02  2.70490752E-01
  5.06297053E-03  1.29413485E-02 -2.57972569E-02  9.26725495E-03 -3.93082075E-03
 -1.58192685E-04 -8.83208021E-05  5.66181560E-06 -3.04827881E-06  1.25842669E-05
  1.22991345E-04  4.66829091E-04 -4.77113690E-05 -1.33141021E-05 -1.55735220E-05
  2.41035225E-01  1.18693822E-01 -1.27011798E-02  1.32373521E-02 -1.28814602E-02
 -2.35293223E-01 -1.17103989E-01  6.06659194E-03 -1.93283599E-02 -9.08992605E-03
 -4.40104314E-04 -7.51233388E-04  3.58169719E-01  3.48815874E-01 -1.02968409E-01
  6.09365536E-03  2.10174405E-01  2.08222431E-01 -6.23735987E-02 -8.61320859E-03
  1.34962489E-02  1.85445418E-02  2.00659260E-02  4.41798210E-03  2.79976051E-05
  3.60793941E-05 -1.28429721E-04 -1.56742727E-04 -3.97184327E-04 -5.08128074E-04
 -2.56580649E-04 -1.36571014E-05 -4.86490302E-04 -2.43500961E-05 -4.37082552E-05
  4.52637153E-05 -1.45310133E-05  2.04313948E-05 -2.35852327E-01 -1.03567746E-01
  2.65673863E-03 -1.56030987E-02  1.67500276E-02  2.28534739E-01  1.01054338E-01
 -1.94278323E-02 -1.02886429E-03 -1.26398548E-02 -2.01582733E-04  6.80831342E-04
 -2.83116775E-05  1.44542017E-05 -5.29902481E-05  2.39940672E-04 -4.52301513E-05
  1.82594992E-06  8.42499912E-06  1.22230657E-05  6.72343594E-07  9.19232797E-06
  3.27869882E-05  8.19509729E-05  6.68073456E-05 -2.80802384E-05 -1.96209923E-05
  5.40209432E-05  7.22537607E-05  3.37197839E-06  2.27391558E-06  2.63673493E-07
 -1.60999499E-06  7.14242884E-07 -6.47726821E-02  1.48576453E-01 -2.98544159E-01
  4.62657771E-01 -2.53451429E-02  2.84314851E-01 -2.35376145E-01  3.41492110E-01
 -2.21564068E-02  6.19411249E-03 -3.93139447E-03  5.99002443E-04  1.52779815E-02
  1.53333427E-02 -1.70134244E-05 -3.09139033E-05  1.82572534E-06 -1.75738051E-06
  3.72091347E-06  5.18324030E-05  3.46495414E-05 -8.99428522E-06 -1.87916169E-06
 -2.53191952E-06 -1.36202221E-01 -6.47068656E-02  1.37697577E-03  7.30432797E-03
  1.43596217E-02 -1.47497402E-01 -7.19792764E-02 -6.08872846E-03 -1.41024709E-03
 -1.45315764E-02  6.38569878E-02 -1.49270807E-01  3.15984669E-01 -2.01762831E-01
  4.10907358E-01 -2.69324840E-01  2.34250258E-01 -1.57535232E-01  3.08303708E-01
  6.75962894E-03  1.79913583E-02 -1.29251414E-02  5.43923312E-03 -3.05559667E-03
 -1.02830192E-05 -4.88712469E-05  1.47987743E-04  3.91617829E-05  1.35075365E-05
  3.27592263E-04  2.45715226E-04 -2.81344813E-05  2.03928745E-04  1.51330311E-05
  2.54021066E-05 -1.97089800E-05  7.05409618E-06 -1.69279290E-05  1.34697879E-01
  5.58369864E-02  1.25507266E-02  9.44378364E-03 -3.67865255E-04  1.45203332E-01
  5.99901419E-02 -1.03500654E-02 -1.16760149E-02  4.33191855E-03  3.24430854E-05
 -5.41290819E-04  2.79054167E-05 -1.64202535E-05  4.29540785E-05 -2.92301907E-05
  1.00010342E-04 -1.46992410E-06  6.01225726E-06 -3.43282076E-06 -2.84508341E-05
  1.18991290E-05 -1.93476779E-04  3.59892171E-04  1.50518360E-04  3.51001045E-04
 -4.87771533E-05  3.29050229E-04  2.52408078E-04  5.54773914E-06  1.03082887E-05
  5.74702483E-06  1.08119711E-05  2.17567980E-05 -7.63287097E-03  2.29896316E-02
  5.14737040E-01  3.13943129E-01 -2.10941572E-01  2.56444224E-02  4.09331982E-01
  2.35051434E-01 -1.63778001E-01  1.92840308E-03 -1.07481164E-03  8.44237418E-03
  1.70314004E-02 -1.24000391E-02 -8.66045881E-05 -2.23002337E-05 -1.26347547E-05
 -6.63473358E-06  8.97087173E-06  1.11999769E-05 -3.92924510E-04  3.00205973E-05
  2.21400018E-05  1.00572931E-05 -9.02358088E-03 -1.46478545E-02  1.69815624E-02
  9.63158038E-03 -5.00985119E-03 -1.05987837E-02 -8.14643586E-03  1.57819589E-02
  8.56071634E-03 -8.13605690E-03  1.63329816E-03 -4.45083943E-03 -2.72444142E-01
  3.99451325E-01  4.04537043E-01 -6.82542853E-03 -2.20678698E-01  3.26987019E-01
  3.24293857E-01  1.94748371E-02  1.20927192E-03  6.30090649E-03 -9.54906556E-04
  1.17137676E-02 -4.22083485E-05 -1.98053094E-04 -2.55008306E-04 -3.17258967E-04
  3.94609255E-04  1.34489253E-03  3.03884480E-04 -4.60927416E-04  1.12256675E-03
  5.62231212E-05  1.03993378E-04 -9.56813182E-05  3.17477217E-06 -4.46030912E-05
  4.31787328E-03  4.59775900E-03 -7.66654961E-03  1.22166495E-02  1.15163893E-02
  1.11760484E-03  1.14505927E-03 -8.14753623E-03  1.13581034E-02  1.17795482E-02
  1.24284416E-04 -2.29624655E-03  8.80674972E-05 -8.17009769E-05  1.74549059E-04
 -1.00900095E-04  4.55472607E-04 -3.00096909E-05  1.42400949E-05  3.02414711E-06
 -2.68062284E-03  3.04975476E-03  5.57837602E-03 -7.11001758E-04  1.78518869E-03
  3.77910343E-02  1.38312320E-02 -1.10847021E-04  1.08279102E-02 -2.38413516E-04
  6.74045383E-04 -2.71004713E-04  4.71866570E-04  4.80477773E-04 -8.87992662E-02
  1.11846951E-01  8.95391224E-02 -1.77595995E-01  2.88787891E-02  1.21888960E+00
  2.53135081E-01 -4.25753326E-01  7.78833791E-02  4.67271588E-03  9.30209355E-03
  1.66460073E-03 -9.82841391E-03 -1.22391539E-02 -2.30791729E-03 -1.65483354E-02
 -1.21852308E-04 -4.85790804E-04  8.48366598E-05 -6.86506847E-04 -4.53151935E-02
  1.23877296E-03  4.22861501E-04  1.96083567E-04 -7.08335449E-02 -1.06016586E+00
  6.48376685E-03 -3.25655811E-03  1.20817225E-02 -6.16352795E-02 -9.57967920E-01
 -8.56317414E-04 -7.48948628E-03 -8.54766150E-03 -8.91485908E-02  1.30628352E-01
  9.44503360E-02 -7.86749721E-02  1.50399392E-01  1.18068573E+00  2.22071407E-01
 -2.16602093E-01  3.74464040E-01  1.26741622E-03  8.43098121E-03 -1.33697787E-02
  1.74373956E-03  5.18201791E-03  3.11366063E-03 -5.58765208E-03  4.17807486E-03
  1.44264099E-02  3.10760935E-02 -3.83161652E-02  1.51531202E-02  3.48854211E-02
  8.39453668E-02  7.54163859E-04  1.74271354E-03 -3.24980833E-03  1.48623678E-03
 -2.22242348E-04 -7.21235431E-02 -1.07914266E+00 -2.64808108E-03 -1.03449314E-02
  7.27025344E-03 -5.68577647E-02 -9.09484706E-01  8.78477487E-03  4.25645384E-03
  2.54883114E-03 -2.64605499E-03 -1.16693015E-01  1.18595358E-03 -6.56140167E-04
  2.04418954E-03  8.25962566E-03  1.83073773E-01 -1.74159618E-04  1.37810468E-03
  1.47469464E-03  9.56272892E-03 -1.51033396E-02 -2.97080278E-03  1.40230991E-02
 -2.06268006E-02 -1.23619955E-01 -5.87833369E-03  3.99731245E-02 -4.28849254E-02
 -5.93957760E-04 -1.92061568E-04  1.80896102E-03  5.85857210E-04 -7.84922674E-05
  2.59146573E-03 -3.49938944E-03  7.42078403E-02  8.08727423E-02  3.07427788E-01
 -3.67096245E-02  2.03332500E-01  2.10155764E-01  7.92357013E-01  5.01326258E-03
  1.31722460E-02 -2.53061889E-02  9.97217814E-03 -3.10878597E-03  8.60779979E-03
  1.57319898E-01  2.83941697E-04  1.01498838E-03 -1.02232317E-03  6.60882488E-03
  5.29134083E-02  4.88313170E-04  1.20868621E-05 -8.08494338E-05 -6.21050970E-02
 -1.36488270E+00  6.93351075E-03 -2.34296329E-03  1.26153805E-02  6.74709495E-02
  1.42664162E+00 -5.05213258E-04  9.39331282E-03  1.18556928E-02  5.39217826E-03
 -1.23234900E-02 -2.49258794E-01 -2.23499500E-01  5.49945847E-02 -6.38053481E-02
 -5.90704436E-01 -5.39013375E-01  1.36872382E-01  5.47625181E-03 -9.73284193E-03
 -1.17105955E-02 -1.33448933E-02 -2.51435583E-03 -1.19536172E-03  3.42606946E-03
  4.78670749E-03 -1.57868079E-04  1.14464615E-02  1.09982238E-02  8.44406665E-03
  2.11555798E-03  2.48692744E-02 -2.15635376E-04 -2.11540231E-04 -1.92793624E-04
  4.80814774E-05  5.99729996E-05 -6.68122756E-02 -1.31975708E+00 -3.81365518E-03
 -7.92663075E-03  3.67500232E-03  7.16673709E-02  1.43831012E+00 -9.31993124E-03
 -5.36851566E-03 -1.38940009E-03 -5.33472169E-03 -5.37370831E-02 -4.63661940E-04
  4.83550877E-04 -6.88706334E-04  2.51306471E-03  3.23090963E-02  1.46234878E-04
  3.38344316E-05  3.46133537E-04  5.12728487E-04 -4.26293970E-03 -6.00330824E-03
 -4.21910208E-03 -8.49781048E-03  6.04338881E-03 -6.14612956E-03 -5.69567321E-03
  1.01722805E-02 -2.50570799E-03  3.63610614E-03  2.86555392E-03  4.93301033E-03
  2.61365281E-03  2.00909610E-03 -1.62809234E-02 -2.30197187E-02 -4.68026173E-02
 -1.12544955E-01  1.14605935E-02 -1.03877111E-01 -6.64005500E-02 -3.62809113E-01
  3.94203222E-02  1.35926352E-01 -2.18601442E-01  8.94714372E-02 -2.90451842E-02
 -1.54992676E-02  8.92383044E-03 -1.30073841E-03  5.33988988E-05 -1.46793953E-03
  2.57345854E-02 -1.70380798E-02  5.06953819E-03  1.17447746E-03  1.91762466E-03
  7.78896411E-01 -6.20473855E-01  6.03561198E-02 -7.68083879E-02  5.65454655E-02
 -7.59412577E-01  6.10947602E-01 -3.55623713E-02  9.86952142E-02  3.87464603E-02
  2.24124065E-03 -1.94858567E-02  7.36838956E-02  4.14407353E-02 -7.39313156E-03
  1.82521776E-02  3.05873084E-01  3.22509601E-01 -9.90704056E-02  6.48284203E-02
 -1.14299424E-01 -1.57222510E-01 -1.70039368E-01 -2.63072250E-02 -1.41377564E-03
  1.26782929E-02  1.69522157E-02 -2.04005497E-02  4.74625615E-03 -2.64019526E-02
 -1.89140330E-02  1.26449823E-02 -1.95929950E-02 -5.88547116E-03 -2.15525967E-03
 -8.57520357E-03  4.88471370E-03  2.65076811E-03  7.88926537E-01 -5.89591793E-01
  1.93784213E-02 -6.17214920E-02  7.71316107E-02 -7.63116205E-01  5.70557923E-01
 -7.72107175E-02  5.25163444E-03 -5.98615771E-02 -1.91884605E-03  9.74781128E-03
 -2.83949852E-03 -3.16505115E-04 -8.22640566E-03 -4.47171761E-02  3.90998598E-02
 -1.14246380E-04  6.12727035E-03  7.29269384E-03 -1.02669392E-03  8.82282313E-03
  4.74827678E-03  6.55023424E-04  1.97120808E-02 -1.67348530E-02 -1.86941665E-02
 -1.72382170E-02 -1.31629996E-02 -7.95246385E-04  3.59492935E-03  1.01891560E-02
  6.26022640E-03 -3.85755219E-03 -2.60086787E-02  2.10560156E-01  3.70452084E-01
 -4.92579222E-01  3.92806245E-02 -5.45369381E-01 -3.26195936E-01  3.97430516E-01
 -4.03222431E-02 -1.63943340E-01 -1.27450919E-01 -8.37422575E-02  6.60898320E-02
  7.72375119E-02 -4.83588269E-02  4.10975197E-02  1.49405217E-03  6.69364743E-03
 -5.19925058E-03  1.78407108E-02 -1.08491328E-02 -2.62405665E-03 -3.20350461E-03
  2.04131731E-03 -5.71957601E-01  6.21338190E-01 -7.82054236E-02  1.90450118E-02
 -1.88021399E-01 -5.72667858E-01  5.89899639E-01  1.75427731E-02  1.00405420E-01
  1.68318228E-01 -2.38853852E-02  1.82739537E-01  3.40350723E-01 -2.58079431E-01
  4.57414341E-01 -5.09187727E-01 -2.68938237E-01  2.37465284E-01 -3.83935717E-01
  7.30210059E-02 -3.66050027E-02  1.37622266E-01 -3.10526813E-02 -1.86459669E-01
  1.49828014E-04  6.14328952E-04 -7.19755352E-03  1.82974073E-02  7.30448105E-03
  9.35178942E-03  3.15427574E-03 -1.93783065E-02 -1.90104813E-02  4.73422354E-03
  4.19229054E-03  1.25806257E-03 -1.37120142E-03 -2.13451887E-03 -5.65518214E-01
  6.21265389E-01  9.95096740E-02  1.52213456E-01 -8.86492483E-02 -5.75301197E-01
  5.75228197E-01 -1.60417045E-01 -1.01056336E-01 -9.99183475E-03  2.56124752E-02
 -1.84144006E-02  1.09260544E-03 -2.20061996E-05  3.00250029E-03  5.57233497E-03
 -1.62212356E-02 -6.60571618E-04 -3.21304265E-03 -5.85217586E-03  7.16645495E-06
 -2.16000589E-04 -1.29401952E-03  1.15619410E-03  3.27185090E-04  8.34223731E-04
  1.45843231E-03 -1.20804101E-03 -2.98781304E-04 -9.64692757E-05  7.32914691E-05
 -6.93299070E-05  1.09587030E-04  1.77881017E-04 -5.27288512E-02  3.72431586E-01
 -7.79426520E-01  1.19838578E-01  1.48457706E-01 -1.67149285E-01  9.66777296E-01
 -3.47946678E-01 -1.27133463E-01 -7.12159287E-02 -4.76776078E-02 -4.51856151E-02
  2.36683628E-02  2.24131948E-02  2.51087125E-04 -3.67231384E-04 -1.19482858E-04
 -9.74185631E-05  8.33278646E-05  4.96697522E-04 -1.00915640E-03  2.43611556E-04
  1.43542133E-04  7.65159880E-05 -3.93376636E-01  9.55544049E-02 -3.37302635E-03
 -2.59610584E-02 -1.35246643E-02 -4.11799916E-01  1.62703443E-01  2.98036597E-03
 -4.74653456E-03  3.18722543E-02 -6.93916424E-05  3.57255700E-04  2.00242041E-03
 -2.78871382E-03 -7.80013508E-05 -1.38590492E-03 -1.40195113E-03  3.14990643E-03
  4.25920749E-04  3.05937318E-04 -1.56024225E-04  4.49008847E-04 -1.63030435E-04
 -6.71558157E-04  4.38419601E-02 -2.77676236E-01 -3.42193399E-01 -7.34538138E-01
  2.98654887E-01  1.44430610E-02  2.54042386E-01  1.00288633E+00 -3.57406191E-01
  5.16068563E-02  2.88330112E-02  3.88343690E-02 -5.87149066E-03 -1.73332515E-02
 -1.66079890E-03  2.10713955E-03  4.04703855E-04  5.06884844E-04 -3.33351067E-04
 -2.61214917E-03  2.12562006E-03 -4.35094325E-04 -3.43445053E-04 -4.74613688E-05
  2.99626698E-01  1.75590579E-02 -2.23057190E-02  2.45567205E-02 -5.00507131E-03
  3.20377774E-01 -6.02870822E-02 -1.71914933E-02  1.41125199E-02 -4.62599673E-03
  1.14786971E-02 -7.81218146E-02  4.58086889E-01 -6.54691327E-01 -5.30878098E-01
  3.72844795E-02 -5.21835290E-01  7.27943448E-01  5.25402334E-01 -3.59689131E-03
  6.38447873E-03 -6.33236719E-03  6.98799643E-03  2.63034884E-02 -1.86900020E-04
 -9.74136864E-04  3.89589079E-04 -6.68932057E-03 -1.32511946E-02 -9.63517010E-04
  4.63068815E-03  7.47077456E-03  2.74855200E-02 -2.23016538E-03 -1.41131024E-03
 -1.95540755E-03  1.08543773E-03  8.24008656E-04  8.79144335E-02 -1.37458067E-02
  5.71730042E-04 -1.10831776E-02 -1.33408053E-02  1.06638289E-01 -6.02824416E-02
  1.53022510E-02 -3.29023900E-03 -1.06309249E-02 -1.56866962E-02 -6.68819187E-04
  9.83107536E-04 -1.15197178E-03  9.75004359E-04 -2.42939844E-03  1.54857243E-02
  2.30307651E-04  2.70346227E-03  4.08858768E-03 -6.70811201E-02  4.43146523E-01
 -2.77015799E-01  1.65468475E-01 -6.03344985E-01 -1.14481428E-01  4.87008696E-01