 Entering Gaussian System, Link 0=g16
 Input=w32_86.gjf
 Output=w32_86.log
 Initial command:
 /home/soft/g16/l1.exe "/tmp/liwei01/gaussian/wsr/Gau-9022.inp" -scrdir="/tmp/liwei01/gaussian/wsr/"
 Entering Link 1 = /home/soft/g16/l1.exe PID=      9023.
  
 Copyright (c) 1988,1990,1992,1993,1995,1998,2003,2009,2016,
            Gaussian, Inc.  All Rights Reserved.
  
 This is part of the Gaussian(R) 16 program.  It is based on
 the Gaussian(R) 09 system (copyright 2009, Gaussian, Inc.),
 the Gaussian(R) 03 system (copyright 2003, Gaussian, Inc.),
 the Gaussian(R) 98 system (copyright 1998, Gaussian, Inc.),
 the Gaussian(R) 94 system (copyright 1995, Gaussian, Inc.),
 the Gaussian 92(TM) system (copyright 1992, Gaussian, Inc.),
 the Gaussian 90(TM) system (copyright 1990, Gaussian, Inc.),
 the Gaussian 88(TM) system (copyright 1988, Gaussian, Inc.),
 the Gaussian 86(TM) system (copyright 1986, Carnegie Mellon
 University), and the Gaussian 82(TM) system (copyright 1983,
 Carnegie Mellon University). Gaussian is a federally registered
 trademark of Gaussian, Inc.
  
 This software contains proprietary and confidential information,
 including trade secrets, belonging to Gaussian, Inc.
  
 This software is provided under written license and may be
 used, copied, transmitted, or stored only in accord with that
 written license.
  
 The following legend is applicable only to US Government
 contracts under FAR:
  
                    RESTRICTED RIGHTS LEGEND
  
 Use, reproduction and disclosure by the US Government is
 subject to restrictions as set forth in subparagraphs (a)
 and (c) of the Commercial Computer Software - Restricted
 Rights clause in FAR 52.227-19.
  
 Gaussian, Inc.
 340 Quinnipiac St., Bldg. 40, Wallingford CT 06492
  
  
 ---------------------------------------------------------------
 Warning -- This program may not be used in any manner that
 competes with the business of Gaussian, Inc. or will provide
 assistance to any competitor of Gaussian, Inc.  The licensee
 of this program is prohibited from giving any competitor of
 Gaussian, Inc. access to this program.  By using this program,
 the user acknowledges that Gaussian, Inc. is engaged in the
 business of creating and licensing software in the field of
 computational chemistry and represents and warrants to the
 licensee that it is not a competitor of Gaussian, Inc. and that
 it will not use this program in any manner prohibited above.
 ---------------------------------------------------------------
  

 Cite this work as:
 Gaussian 16, Revision A.03,
 M. J. Frisch, G. W. Trucks, H. B. Schlegel, G. E. Scuseria, 
 M. A. Robb, J. R. Cheeseman, G. Scalmani, V. Barone, 
 G. A. Petersson, H. Nakatsuji, X. Li, M. Caricato, A. V. Marenich, 
 J. Bloino, B. G. Janesko, R. Gomperts, B. Mennucci, H. P. Hratchian, 
 J. V. Ortiz, A. F. Izmaylov, J. L. Sonnenberg, D. Williams-Young, 
 F. Ding, F. Lipparini, F. Egidi, J. Goings, B. Peng, A. Petrone, 
 T. Henderson, D. Ranasinghe, V. G. Zakrzewski, J. Gao, N. Rega, 
 G. Zheng, W. Liang, M. Hada, M. Ehara, K. Toyota, R. Fukuda, 
 J. Hasegawa, M. Ishida, T. Nakajima, Y. Honda, O. Kitao, H. Nakai, 
 T. Vreven, K. Throssell, J. A. Montgomery, Jr., J. E. Peralta, 
 F. Ogliaro, M. J. Bearpark, J. J. Heyd, E. N. Brothers, K. N. Kudin, 
 V. N. Staroverov, T. A. Keith, R. Kobayashi, J. Normand, 
 K. Raghavachari, A. P. Rendell, J. C. Burant, S. S. Iyengar, 
 J. Tomasi, M. Cossi, J. M. Millam, M. Klene, C. Adamo, R. Cammi, 
 J. W. Ochterski, R. L. Martin, K. Morokuma, O. Farkas, 
 J. B. Foresman, and D. J. Fox, Gaussian, Inc., Wallingford CT, 2016.
 
 ******************************************
 Gaussian 16:  ES64L-G16RevA.03 25-Dec-2016
                15-May-2020 
 ******************************************
 %chk=w32_86.chk
 %nproc=4
 Will use up to    4 processors via shared memory.
 %mem=1gb
 -----------------------------------------
 #p hf/6-31g** 5d 7f pop=npa charge nosymm
 -----------------------------------------
 1/18=10,28=-2,38=1,125=101,172=1/1;
 2/12=2,15=1,17=6,18=5,40=1/2;
 3/5=1,6=6,7=101,8=11,11=9,25=1,30=1/1,2,3;
 4//1;
 5/5=2,38=5/2;
 6/7=2,8=2,9=2,10=2,28=1,40=-1/1,7;
 99/5=1,9=1/99;
 Leave Link    1 at Fri May 15 22:36:28 2020, MaxMem=   134217728 cpu:               0.3 elap:               0.1
 (Enter /home/soft/g16/l101.exe)
 -------------
 Atom number=6
 -------------
 Symbolic Z-matrix:
 Charge =  0 Multiplicity = 1
 o                     11.4715  -15.35532  -7.51802 
 o                     12.81376  -13.01847  -7.36632 
 h                     10.8644  -15.35575  -8.25807 
 h                     11.90754  -14.50454  -7.56581 
 h                     12.4819  -12.41714  -6.69961 
 h                     12.65515  -12.56817  -8.19596 
 
 ITRead=  0  0  0  0  0  0
 MicOpt= -1 -1 -1 -1 -1 -1
 NAtoms=      6 NQM=        6 NQMF=       0 NMMI=      0 NMMIF=      0
                NMic=       0 NMicF=      0.
                    Isotopes and Nuclear Properties:
 (Nuclear quadrupole moments (NQMom) in fm**2, nuclear magnetic moments (NMagM)
  in nuclear magnetons)

  Atom         1           2           3           4           5           6
 IAtWgt=          16          16           1           1           1           1
 AtmWgt=  15.9949146  15.9949146   1.0078250   1.0078250   1.0078250   1.0078250
 NucSpn=           0           0           1           1           1           1
 AtZEff=  -0.0000000  -0.0000000  -0.0000000  -0.0000000  -0.0000000  -0.0000000
 NQMom=    0.0000000   0.0000000   0.0000000   0.0000000   0.0000000   0.0000000
 NMagM=    0.0000000   0.0000000   2.7928460   2.7928460   2.7928460   2.7928460
 AtZNuc=   8.0000000   8.0000000   1.0000000   1.0000000   1.0000000   1.0000000
 Background charge distribution read from input stream:
 Point Charges:
 XYZ=    8.3923  -11.8129  -11.2005 Q=   -1.0561 A=    0.0000 R=    0.0000 C=    0.0000
 XYZ=    8.1753  -12.5378  -10.6142 Q=    0.5233 A=    0.0000 R=    0.0000 C=    0.0000
 XYZ=    9.2522  -11.5141  -10.9045 Q=    0.5177 A=    0.0000 R=    0.0000 C=    0.0000
 XYZ=   10.7060  -10.8489  -10.0915 Q=   -1.0357 A=    0.0000 R=    0.0000 C=    0.0000
 XYZ=   11.5214  -11.3203   -9.9208 Q=    0.5206 A=    0.0000 R=    0.0000 C=    0.0000
 XYZ=   10.5678  -10.3169   -9.3078 Q=    0.5156 A=    0.0000 R=    0.0000 C=    0.0000
 XYZ=    8.6932  -14.0693   -9.5471 Q=   -1.0099 A=    0.0000 R=    0.0000 C=    0.0000
 XYZ=    8.2201  -13.7327   -8.7861 Q=    0.4999 A=    0.0000 R=    0.0000 C=    0.0000
 XYZ=    8.5528  -15.0157   -9.5178 Q=    0.5079 A=    0.0000 R=    0.0000 C=    0.0000
 XYZ=    7.2503   -9.8596  -13.1035 Q=   -1.0243 A=    0.0000 R=    0.0000 C=    0.0000
 XYZ=    7.1207  -10.2215  -13.9801 Q=    0.5152 A=    0.0000 R=    0.0000 C=    0.0000
 XYZ=    7.3415  -10.6267  -12.5383 Q=    0.5154 A=    0.0000 R=    0.0000 C=    0.0000
 XYZ=    5.5704  -12.7600  -10.7338 Q=   -1.0500 A=    0.0000 R=    0.0000 C=    0.0000
 XYZ=    4.6427  -12.8278  -10.5079 Q=    0.5214 A=    0.0000 R=    0.0000 C=    0.0000
 XYZ=    5.9838  -12.4052   -9.9468 Q=    0.5064 A=    0.0000 R=    0.0000 C=    0.0000
 XYZ=    6.9662   -9.2478  -10.2743 Q=   -1.0324 A=    0.0000 R=    0.0000 C=    0.0000
 XYZ=    6.9752   -9.8450  -11.0223 Q=    0.5142 A=    0.0000 R=    0.0000 C=    0.0000
 XYZ=    7.6844   -8.6385  -10.4451 Q=    0.5185 A=    0.0000 R=    0.0000 C=    0.0000
 XYZ=    6.9426  -11.8294   -8.3710 Q=   -1.0528 A=    0.0000 R=    0.0000 C=    0.0000
 XYZ=    7.4956  -12.0911   -7.6348 Q=    0.5210 A=    0.0000 R=    0.0000 C=    0.0000
 XYZ=    7.3075  -10.9928   -8.6597 Q=    0.5255 A=    0.0000 R=    0.0000 C=    0.0000
 XYZ=    9.7397  -14.5602  -13.0841 Q=   -1.0029 A=    0.0000 R=    0.0000 C=    0.0000
 XYZ=    9.4367  -13.9209  -12.4394 Q=    0.5215 A=    0.0000 R=    0.0000 C=    0.0000
 XYZ=   10.6527  -14.3230  -13.2466 Q=    0.4988 A=    0.0000 R=    0.0000 C=    0.0000
 XYZ=   10.0849   -9.6030  -13.6944 Q=   -1.0549 A=    0.0000 R=    0.0000 C=    0.0000
 XYZ=    9.8380   -9.8779  -14.5774 Q=    0.5180 A=    0.0000 R=    0.0000 C=    0.0000
 XYZ=    9.2671   -9.6284  -13.1976 Q=    0.5226 A=    0.0000 R=    0.0000 C=    0.0000
 XYZ=    9.4738   -7.9972  -10.9180 Q=   -0.9971 A=    0.0000 R=    0.0000 C=    0.0000
 XYZ=    9.9975   -8.7956  -10.8516 Q=    0.5301 A=    0.0000 R=    0.0000 C=    0.0000
 XYZ=    9.6234   -7.5424  -10.0892 Q=    0.4920 A=    0.0000 R=    0.0000 C=    0.0000
 XYZ=    8.4516  -10.6356  -15.6859 Q=   -1.0322 A=    0.0000 R=    0.0000 C=    0.0000
 XYZ=    8.1250  -10.4069  -16.5562 Q=    0.4798 A=    0.0000 R=    0.0000 C=    0.0000
 XYZ=    9.2622  -11.1166  -15.8526 Q=    0.5341 A=    0.0000 R=    0.0000 C=    0.0000
 XYZ=    4.0391  -11.2243  -12.8044 Q=   -0.9921 A=    0.0000 R=    0.0000 C=    0.0000
 XYZ=    4.5248  -12.0476  -12.7552 Q=    0.4802 A=    0.0000 R=    0.0000 C=    0.0000
 XYZ=    4.4321  -10.7575  -13.5420 Q=    0.5046 A=    0.0000 R=    0.0000 C=    0.0000
 XYZ=    5.5848  -15.5922  -11.4699 Q=   -1.0129 A=    0.0000 R=    0.0000 C=    0.0000
 XYZ=    4.6785  -15.3483  -11.6582 Q=    0.5050 A=    0.0000 R=    0.0000 C=    0.0000
 XYZ=    6.0031  -14.7735  -11.2032 Q=    0.5257 A=    0.0000 R=    0.0000 C=    0.0000
 XYZ=    8.8013  -12.4259   -6.4973 Q=   -0.9852 A=    0.0000 R=    0.0000 C=    0.0000
 XYZ=    9.0556  -11.7490   -5.8701 Q=    0.5006 A=    0.0000 R=    0.0000 C=    0.0000
 XYZ=    8.9395  -13.2499   -6.0303 Q=    0.5083 A=    0.0000 R=    0.0000 C=    0.0000
 XYZ=   10.5523   -9.0602   -7.7657 Q=   -0.9799 A=    0.0000 R=    0.0000 C=    0.0000
 XYZ=   10.0296   -9.4526   -7.0665 Q=    0.5003 A=    0.0000 R=    0.0000 C=    0.0000
 XYZ=   10.0576   -8.2839   -8.0284 Q=    0.4937 A=    0.0000 R=    0.0000 C=    0.0000
 XYZ=    8.4919  -14.1596  -15.7110 Q=   -0.9823 A=    0.0000 R=    0.0000 C=    0.0000
 XYZ=    8.8439  -15.0437  -15.8144 Q=    0.4799 A=    0.0000 R=    0.0000 C=    0.0000
 XYZ=    8.9183  -13.8221  -14.9233 Q=    0.4950 A=    0.0000 R=    0.0000 C=    0.0000
 XYZ=   10.6752  -11.9252  -15.8192 Q=   -0.9837 A=    0.0000 R=    0.0000 C=    0.0000
 XYZ=   11.1454  -12.2597  -15.0555 Q=    0.5055 A=    0.0000 R=    0.0000 C=    0.0000
 XYZ=   10.7694  -12.6123  -16.4789 Q=    0.5125 A=    0.0000 R=    0.0000 C=    0.0000
 XYZ=    7.7593  -16.5050  -13.2460 Q=   -1.0112 A=    0.0000 R=    0.0000 C=    0.0000
 XYZ=    7.3079  -16.2111  -12.4547 Q=    0.4926 A=    0.0000 R=    0.0000 C=    0.0000
 XYZ=    8.5373  -15.9498  -13.2987 Q=    0.4973 A=    0.0000 R=    0.0000 C=    0.0000
 XYZ=   13.4576  -11.7733   -9.7740 Q=   -0.9993 A=    0.0000 R=    0.0000 C=    0.0000
 XYZ=   13.9089  -10.9962  -10.1037 Q=    0.5128 A=    0.0000 R=    0.0000 C=    0.0000
 XYZ=   14.1508  -12.4236   -9.6612 Q=    0.5076 A=    0.0000 R=    0.0000 C=    0.0000
 XYZ=    5.5914  -15.5335   -8.7002 Q=   -1.0162 A=    0.0000 R=    0.0000 C=    0.0000
 XYZ=    6.3093  -16.0707   -8.3652 Q=    0.4831 A=    0.0000 R=    0.0000 C=    0.0000
 XYZ=    5.4763  -15.8239   -9.6050 Q=    0.5237 A=    0.0000 R=    0.0000 C=    0.0000
 XYZ=    5.3398  -11.2122  -15.4745 Q=   -0.9760 A=    0.0000 R=    0.0000 C=    0.0000
 XYZ=    5.8801  -10.4587  -15.7120 Q=    0.4863 A=    0.0000 R=    0.0000 C=    0.0000
 XYZ=    5.4896  -11.8457  -16.1763 Q=    0.4965 A=    0.0000 R=    0.0000 C=    0.0000
 XYZ=   12.9960  -14.7139  -11.2100 Q=   -0.9778 A=    0.0000 R=    0.0000 C=    0.0000
 XYZ=   12.2864  -15.1619  -10.7497 Q=    0.5059 A=    0.0000 R=    0.0000 C=    0.0000
 XYZ=   13.6357  -14.5124  -10.5270 Q=    0.4638 A=    0.0000 R=    0.0000 C=    0.0000
 XYZ=    4.6413   -8.1383  -12.6711 Q=   -0.9897 A=    0.0000 R=    0.0000 C=    0.0000
 XYZ=    4.5978   -7.2720  -12.2662 Q=    0.4876 A=    0.0000 R=    0.0000 C=    0.0000
 XYZ=    5.5765   -8.3384  -12.7100 Q=    0.4969 A=    0.0000 R=    0.0000 C=    0.0000
 XYZ=    8.9611  -17.0167   -9.2755 Q=   -0.9921 A=    0.0000 R=    0.0000 C=    0.0000
 XYZ=    8.6736  -17.2191   -8.3852 Q=    0.5092 A=    0.0000 R=    0.0000 C=    0.0000
 XYZ=    8.3026  -17.4234   -9.8386 Q=    0.5103 A=    0.0000 R=    0.0000 C=    0.0000
 XYZ=   12.8900   -9.6906  -13.7511 Q=   -0.9984 A=    0.0000 R=    0.0000 C=    0.0000
 XYZ=   13.4884   -9.8459  -13.0204 Q=    0.4670 A=    0.0000 R=    0.0000 C=    0.0000
 XYZ=   12.0171   -9.7427  -13.3618 Q=    0.5160 A=    0.0000 R=    0.0000 C=    0.0000
 XYZ=    4.9070   -7.9100   -9.1300 Q=   -1.0105 A=    0.0000 R=    0.0000 C=    0.0000
 XYZ=    4.0635   -8.0265   -9.5674 Q=    0.4764 A=    0.0000 R=    0.0000 C=    0.0000
 XYZ=    5.4227   -8.6710   -9.3968 Q=    0.5176 A=    0.0000 R=    0.0000 C=    0.0000
 XYZ=    2.9547  -12.7024   -9.8757 Q=   -0.9915 A=    0.0000 R=    0.0000 C=    0.0000
 XYZ=    3.0641  -13.5048   -9.3654 Q=    0.5019 A=    0.0000 R=    0.0000 C=    0.0000
 XYZ=    2.7384  -12.0329   -9.2268 Q=    0.5105 A=    0.0000 R=    0.0000 C=    0.0000
 XYZ=    4.2108  -13.3306   -7.5546 Q=   -1.0293 A=    0.0000 R=    0.0000 C=    0.0000
 XYZ=    4.9638  -12.7453   -7.4735 Q=    0.4979 A=    0.0000 R=    0.0000 C=    0.0000
 XYZ=    4.5835  -14.1618   -7.8486 Q=    0.5197 A=    0.0000 R=    0.0000 C=    0.0000
 XYZ=    8.5389   -6.2611  -12.9484 Q=   -1.0019 A=    0.0000 R=    0.0000 C=    0.0000
 XYZ=    8.8800   -6.8491  -12.2745 Q=    0.5098 A=    0.0000 R=    0.0000 C=    0.0000
 XYZ=    9.2767   -6.1230  -13.5423 Q=    0.4773 A=    0.0000 R=    0.0000 C=    0.0000
 XYZ=   11.3245  -17.0116  -10.7628 Q=   -1.0019 A=    0.0000 R=    0.0000 C=    0.0000
 XYZ=   11.7165  -17.8633  -10.5702 Q=    0.4876 A=    0.0000 R=    0.0000 C=    0.0000
 XYZ=   10.4428  -17.0644  -10.3939 Q=    0.5095 A=    0.0000 R=    0.0000 C=    0.0000
 Pt Chg Charge=              0.0153 electrons
 Pt Chg Dipole moment (Debye):
    X=             18.9966    Y=            -13.0338    Z=             17.8270  Tot=             29.1300
 Pt Chg Quadrupole moment (Debye-Ang):
   XX=            304.3206   YY=            324.5050   ZZ=           -312.7538
   XY=           -308.6521   XZ=            -33.4996   YZ=           -100.4521
 Pt Chg Traceless Quadrupole moment (Debye-Ang):
   XX=            198.9633   YY=            219.1477   ZZ=           -418.1110
   XY=           -308.6521   XZ=            -33.4996   YZ=           -100.4521
 Pt Chg Octapole moment (Debye-Ang**2):
  XXX=           4168.3762  YYY=          -6563.0537  ZZZ=           3760.9917  XYY=           4978.1504
  XXY=          -4263.1238  XXZ=          -1579.3375  XZZ=           -721.5113  YZZ=           2669.5347
  YYZ=            -86.2346  XYZ=           1187.2462
 Pt Chg Hexadecapole moment (Debye-Ang**3):
 XXXX=          57242.0946 YYYY=         124612.1255 ZZZZ=         -30548.7751 XXXY=         -55438.9997
 XXXZ=         -26977.4520 YYYX=         -81715.9353 YYYZ=          18912.0559 ZZZX=          11259.5707
 ZZZY=         -34702.2752 XXYY=          62259.5936 XXZZ=           5506.2971 YYZZ=         -22936.5613
 XXYZ=          25598.6190 YYXZ=         -24229.1435 ZZXY=            290.6660
 Leave Link  101 at Fri May 15 22:36:28 2020, MaxMem=   134217728 cpu:               0.6 elap:               0.2
 (Enter /home/soft/g16/l202.exe)
                          Input orientation:                          
 ---------------------------------------------------------------------
 Center     Atomic      Atomic             Coordinates (Angstroms)
 Number     Number       Type             X           Y           Z
 ---------------------------------------------------------------------
      1          8           0       11.471495  -15.355316   -7.518016
      2          8           0       12.813764  -13.018467   -7.366324
      3          1           0       10.864403  -15.355750   -8.258065
      4          1           0       11.907538  -14.504542   -7.565812
      5          1           0       12.481900  -12.417138   -6.699613
      6          1           0       12.655150  -12.568166   -8.195965
 ---------------------------------------------------------------------
                    Distance matrix (angstroms):
                    1          2          3          4          5
     1  O    0.000000
     2  O    2.699178   0.000000
     3  H    0.957201   3.171451   0.000000
     4  H    0.957201   1.751987   1.513902   0.000000
     5  H    3.213035   0.957201   3.698717   2.331834   0.000000
     6  H    3.103040   0.957201   3.313798   2.169232   1.513900
                    6
     6  H    0.000000
 Symmetry turned off by external request.
 Stoichiometry    H4O2
 Framework group  C1[X(H4O2)]
 Deg. of freedom    12
 Full point group                 C1      NOp   1
 Rotational constants (GHZ):         217.9390490           7.4768165           7.3576165
 Leave Link  202 at Fri May 15 22:36:28 2020, MaxMem=   134217728 cpu:               0.1 elap:               0.0
 (Enter /home/soft/g16/l301.exe)
 Standard basis: 6-31G(d,p) (5D, 7F)
 Ernie: Thresh=  0.10000D-02 Tol=  0.10000D-05 Strict=F.
    48 basis functions,    84 primitive gaussians,    50 cartesian basis functions
    10 alpha electrons       10 beta electrons
       nuclear repulsion energy        38.1438947892 Hartrees.
 IExCor=    0 DFT=F Ex=HF Corr=None ExCW=0 ScaHFX=  1.000000
 ScaDFX=  1.000000  1.000000  1.000000  1.000000 ScalE2=  1.000000  1.000000
 IRadAn=      5 IRanWt=     -1 IRanGd=            0 ICorTp=0 IEmpDi=  4
 NAtoms=    6 NActive=    6 NUniq=    6 SFac= 1.00D+00 NAtFMM=   60 NAOKFM=F Big=F
 Integral buffers will be    131072 words long.
 Raffenetti 1 integral format.
 Two-electron integral symmetry is turned off.
 Background charge distribution read from rwf.
 PtFMM for NChg=        96 BoxLen=    40.00 Levels= 1 LMax=20 SMax=    22.2 ICnFMM=     1:
 Self energy of the charges =       -14.6333848778 a.u.
 MM   energy of the charges =         0.0000000000 a.u.
 Nuclei-charges interaction =         0.7177260066 a.u.
 Nuclear repulsion after external point charges =       24.2282359180 Hartrees.
 Leave Link  301 at Fri May 15 22:36:28 2020, MaxMem=   134217728 cpu:               0.3 elap:               0.1
 (Enter /home/soft/g16/l302.exe)
 NPDir=0 NMtPBC=     1 NCelOv=     1 NCel=       1 NClECP=     1 NCelD=      1
         NCelK=      1 NCelE2=     1 NClLst=     1 CellRange=     0.0.
 One-electron integrals computed using PRISM.
 NBasis=    48 RedAO= T EigKep=  2.53D-02  NBF=    48
 NBsUse=    48 1.00D-06 EigRej= -1.00D+00 NBFU=    48
 Leave Link  302 at Fri May 15 22:36:28 2020, MaxMem=   134217728 cpu:               0.5 elap:               0.2
 (Enter /home/soft/g16/l303.exe)
 DipDrv:  MaxL=1.
 Leave Link  303 at Fri May 15 22:36:28 2020, MaxMem=   134217728 cpu:               0.1 elap:               0.1
 (Enter /home/soft/g16/l401.exe)
 ExpMin= 1.61D-01 ExpMax= 5.48D+03 ExpMxC= 8.25D+02 IAcc=3 IRadAn=         5 AccDes= 0.00D+00
 Harris functional with IExCor=  205 and IRadAn=       5 diagonalized for initial guess.
 HarFok:  IExCor=  205 AccDes= 0.00D+00 IRadAn=         5 IDoV= 1 UseB2=F ITyADJ=14
 ICtDFT=  3500011 ScaDFX=  1.000000  1.000000  1.000000  1.000000
 FoFCou: FMM=F IPFlag=           0 FMFlag=      100000 FMFlg1=           0
         NFxFlg=           0 DoJE=T BraDBF=F KetDBF=T FulRan=T
         wScrn=  0.000000 ICntrl=       500 IOpCl=  0 I1Cent=   200000004 NGrid=           0
         NMat0=    1 NMatS0=      1 NMatT0=    0 NMatD0=    1 NMtDS0=    0 NMtDT0=    0
 Symmetry not used in FoFCou.
 Harris En= -166.884017124779    
 JPrj=0 DoOrth=F DoCkMO=F.
 Leave Link  401 at Fri May 15 22:36:28 2020, MaxMem=   134217728 cpu:               0.9 elap:               0.2
 (Enter /home/soft/g16/l502.exe)
 Keep R1 ints in memory in canonical form, NReq=1531131.
 FoFCou: FMM=F IPFlag=           0 FMFlag=           0 FMFlg1=           0
         NFxFlg=           0 DoJE=F BraDBF=F KetDBF=F FulRan=T
         wScrn=  0.000000 ICntrl=       600 IOpCl=  0 I1Cent=           0 NGrid=           0
         NMat0=    1 NMatS0=   1176 NMatT0=    0 NMatD0=    1 NMtDS0=    0 NMtDT0=    0
 Symmetry not used in FoFCou.
 Two-electron integral symmetry not used.
 Closed shell SCF:
 Using DIIS extrapolation, IDIIS=  1040.
 NGot=   134217728 LenX=   133519768 LenY=   133516827
 Requested convergence on RMS density matrix=1.00D-08 within 128 cycles.
 Requested convergence on MAX density matrix=1.00D-06.
 Requested convergence on             energy=1.00D-06.
 No special actions if energy rises.

 Cycle   1  Pass 1  IDiag  1:
 E= -166.541868863438    
 DIIS: error= 5.37D-02 at cycle   1 NSaved=   1.
 NSaved= 1 IEnMin= 1 EnMin= -166.541868863438     IErMin= 1 ErrMin= 5.37D-02
 ErrMax= 5.37D-02  0.00D+00 EMaxC= 1.00D-01 BMatC= 2.32D-01 BMatP= 2.32D-01
 IDIUse=3 WtCom= 4.63D-01 WtEn= 5.37D-01
 Coeff-Com:  0.100D+01
 Coeff-En:   0.100D+01
 Coeff:      0.100D+01
 Gap=     0.577 Goal=   None    Shift=    0.000
 GapD=    0.577 DampG=2.000 DampE=0.500 DampFc=1.0000 IDamp=-1.
 RMSDP=8.26D-03 MaxDP=1.25D-01              OVMax= 1.12D-01

 Cycle   2  Pass 1  IDiag  1:
 E= -166.651029894085     Delta-E=       -0.109161030647 Rises=F Damp=F
 DIIS: error= 2.69D-02 at cycle   2 NSaved=   2.
 NSaved= 2 IEnMin= 2 EnMin= -166.651029894085     IErMin= 2 ErrMin= 2.69D-02
 ErrMax= 2.69D-02  0.00D+00 EMaxC= 1.00D-01 BMatC= 6.84D-02 BMatP= 2.32D-01
 IDIUse=3 WtCom= 7.31D-01 WtEn= 2.69D-01
 Coeff-Com:  0.339D+00 0.661D+00
 Coeff-En:   0.574D-01 0.943D+00
 Coeff:      0.263D+00 0.737D+00
 Gap=     0.666 Goal=   None    Shift=    0.000
 RMSDP=3.65D-03 MaxDP=4.67D-02 DE=-1.09D-01 OVMax= 4.50D-02

 Cycle   3  Pass 1  IDiag  1:
 E= -166.696423439189     Delta-E=       -0.045393545104 Rises=F Damp=F
 DIIS: error= 5.82D-03 at cycle   3 NSaved=   3.
 NSaved= 3 IEnMin= 3 EnMin= -166.696423439189     IErMin= 3 ErrMin= 5.82D-03
 ErrMax= 5.82D-03  0.00D+00 EMaxC= 1.00D-01 BMatC= 1.72D-03 BMatP= 6.84D-02
 IDIUse=3 WtCom= 9.42D-01 WtEn= 5.82D-02
 Coeff-Com: -0.330D-01 0.895D-01 0.943D+00
 Coeff-En:   0.000D+00 0.000D+00 0.100D+01
 Coeff:     -0.311D-01 0.843D-01 0.947D+00
 Gap=     0.654 Goal=   None    Shift=    0.000
 RMSDP=5.36D-04 MaxDP=8.01D-03 DE=-4.54D-02 OVMax= 8.73D-03

 Cycle   4  Pass 1  IDiag  1:
 E= -166.697783694118     Delta-E=       -0.001360254929 Rises=F Damp=F
 DIIS: error= 4.65D-04 at cycle   4 NSaved=   4.
 NSaved= 4 IEnMin= 4 EnMin= -166.697783694118     IErMin= 4 ErrMin= 4.65D-04
 ErrMax= 4.65D-04  0.00D+00 EMaxC= 1.00D-01 BMatC= 1.75D-05 BMatP= 1.72D-03
 IDIUse=3 WtCom= 9.95D-01 WtEn= 4.65D-03
 Coeff-Com:  0.656D-02-0.433D-01-0.291D+00 0.133D+01
 Coeff-En:   0.000D+00 0.000D+00 0.000D+00 0.100D+01
 Coeff:      0.653D-02-0.431D-01-0.290D+00 0.133D+01
 Gap=     0.656 Goal=   None    Shift=    0.000
 RMSDP=1.42D-04 MaxDP=1.51D-03 DE=-1.36D-03 OVMax= 2.48D-03

 Cycle   5  Pass 1  IDiag  1:
 E= -166.697816338972     Delta-E=       -0.000032644854 Rises=F Damp=F
 DIIS: error= 1.49D-04 at cycle   5 NSaved=   5.
 NSaved= 5 IEnMin= 5 EnMin= -166.697816338972     IErMin= 5 ErrMin= 1.49D-04
 ErrMax= 1.49D-04  0.00D+00 EMaxC= 1.00D-01 BMatC= 1.01D-06 BMatP= 1.75D-05
 IDIUse=3 WtCom= 9.99D-01 WtEn= 1.49D-03
 Coeff-Com:  0.243D-02-0.112D-01-0.853D-01 0.202D+00 0.892D+00
 Coeff-En:   0.000D+00 0.000D+00 0.000D+00 0.000D+00 0.100D+01
 Coeff:      0.243D-02-0.111D-01-0.852D-01 0.201D+00 0.893D+00
 Gap=     0.657 Goal=   None    Shift=    0.000
 RMSDP=2.61D-05 MaxDP=2.74D-04 DE=-3.26D-05 OVMax= 4.19D-04

 Cycle   6  Pass 1  IDiag  1:
 E= -166.697817735886     Delta-E=       -0.000001396915 Rises=F Damp=F
 DIIS: error= 3.75D-05 at cycle   6 NSaved=   6.
 NSaved= 6 IEnMin= 6 EnMin= -166.697817735886     IErMin= 6 ErrMin= 3.75D-05
 ErrMax= 3.75D-05  0.00D+00 EMaxC= 1.00D-01 BMatC= 1.17D-07 BMatP= 1.01D-06
 IDIUse=1 WtCom= 1.00D+00 WtEn= 0.00D+00
 Coeff-Com: -0.395D-03 0.347D-02 0.230D-01-0.133D+00 0.128D+00 0.979D+00
 Coeff:     -0.395D-03 0.347D-02 0.230D-01-0.133D+00 0.128D+00 0.979D+00
 Gap=     0.657 Goal=   None    Shift=    0.000
 RMSDP=1.03D-05 MaxDP=1.13D-04 DE=-1.40D-06 OVMax= 1.99D-04

 Cycle   7  Pass 1  IDiag  1:
 E= -166.697817902568     Delta-E=       -0.000000166682 Rises=F Damp=F
 DIIS: error= 5.81D-06 at cycle   7 NSaved=   7.
 NSaved= 7 IEnMin= 7 EnMin= -166.697817902568     IErMin= 7 ErrMin= 5.81D-06
 ErrMax= 5.81D-06  0.00D+00 EMaxC= 1.00D-01 BMatC= 3.28D-09 BMatP= 1.17D-07
 IDIUse=1 WtCom= 1.00D+00 WtEn= 0.00D+00
 Coeff-Com: -0.118D-03 0.479D-03 0.390D-02-0.590D-02-0.582D-01-0.410D-01
 Coeff-Com:  0.110D+01
 Coeff:     -0.118D-03 0.479D-03 0.390D-02-0.590D-02-0.582D-01-0.410D-01
 Coeff:      0.110D+01
 Gap=     0.657 Goal=   None    Shift=    0.000
 RMSDP=2.19D-06 MaxDP=2.27D-05 DE=-1.67D-07 OVMax= 3.51D-05

 Cycle   8  Pass 1  IDiag  1:
 E= -166.697817909404     Delta-E=       -0.000000006835 Rises=F Damp=F
 DIIS: error= 1.73D-06 at cycle   8 NSaved=   8.
 NSaved= 8 IEnMin= 8 EnMin= -166.697817909404     IErMin= 8 ErrMin= 1.73D-06
 ErrMax= 1.73D-06  0.00D+00 EMaxC= 1.00D-01 BMatC= 1.72D-10 BMatP= 3.28D-09
 IDIUse=1 WtCom= 1.00D+00 WtEn= 0.00D+00
 Coeff-Com:  0.524D-04-0.294D-03-0.222D-02 0.751D-02 0.142D-01-0.236D-01
 Coeff-Com: -0.363D+00 0.137D+01
 Coeff:      0.524D-04-0.294D-03-0.222D-02 0.751D-02 0.142D-01-0.236D-01
 Coeff:     -0.363D+00 0.137D+01
 Gap=     0.657 Goal=   None    Shift=    0.000
 RMSDP=4.94D-07 MaxDP=5.27D-06 DE=-6.84D-09 OVMax= 8.29D-06

 Cycle   9  Pass 1  IDiag  1:
 E= -166.697817909815     Delta-E=       -0.000000000411 Rises=F Damp=F
 DIIS: error= 3.07D-07 at cycle   9 NSaved=   9.
 NSaved= 9 IEnMin= 9 EnMin= -166.697817909815     IErMin= 9 ErrMin= 3.07D-07
 ErrMax= 3.07D-07  0.00D+00 EMaxC= 1.00D-01 BMatC= 4.07D-12 BMatP= 1.72D-10
 IDIUse=1 WtCom= 1.00D+00 WtEn= 0.00D+00
 Coeff-Com: -0.461D-05 0.327D-04 0.242D-03-0.116D-02 0.874D-04 0.607D-02
 Coeff-Com:  0.170D-01-0.214D+00 0.119D+01
 Coeff:     -0.461D-05 0.327D-04 0.242D-03-0.116D-02 0.874D-04 0.607D-02
 Coeff:      0.170D-01-0.214D+00 0.119D+01
 Gap=     0.657 Goal=   None    Shift=    0.000
 RMSDP=7.50D-08 MaxDP=7.36D-07 DE=-4.11D-10 OVMax= 1.32D-06

 Cycle  10  Pass 1  IDiag  1:
 E= -166.697817909825     Delta-E=       -0.000000000010 Rises=F Damp=F
 DIIS: error= 5.24D-08 at cycle  10 NSaved=  10.
 NSaved=10 IEnMin=10 EnMin= -166.697817909825     IErMin=10 ErrMin= 5.24D-08
 ErrMax= 5.24D-08  0.00D+00 EMaxC= 1.00D-01 BMatC= 1.71D-13 BMatP= 4.07D-12
 IDIUse=1 WtCom= 1.00D+00 WtEn= 0.00D+00
 Coeff-Com: -0.142D-05 0.726D-05 0.556D-04-0.151D-03-0.544D-03 0.896D-04
 Coeff-Com:  0.112D-01-0.191D-01-0.209D+00 0.122D+01
 Coeff:     -0.142D-05 0.726D-05 0.556D-04-0.151D-03-0.544D-03 0.896D-04
 Coeff:      0.112D-01-0.191D-01-0.209D+00 0.122D+01
 Gap=     0.657 Goal=   None    Shift=    0.000
 RMSDP=1.89D-08 MaxDP=1.88D-07 DE=-1.00D-11 OVMax= 3.24D-07

 Cycle  11  Pass 1  IDiag  1:
 E= -166.697817909826     Delta-E=       -0.000000000001 Rises=F Damp=F
 DIIS: error= 8.98D-09 at cycle  11 NSaved=  11.
 NSaved=11 IEnMin=11 EnMin= -166.697817909826     IErMin=11 ErrMin= 8.98D-09
 ErrMax= 8.98D-09  0.00D+00 EMaxC= 1.00D-01 BMatC= 5.78D-15 BMatP= 1.71D-13
 IDIUse=1 WtCom= 1.00D+00 WtEn= 0.00D+00
 Coeff-Com:  0.466D-06-0.271D-05-0.203D-04 0.722D-04 0.124D-03-0.224D-03
 Coeff-Com: -0.312D-02 0.118D-01 0.337D-02-0.277D+00 0.127D+01
 Coeff:      0.466D-06-0.271D-05-0.203D-04 0.722D-04 0.124D-03-0.224D-03
 Coeff:     -0.312D-02 0.118D-01 0.337D-02-0.277D+00 0.127D+01
 Gap=     0.657 Goal=   None    Shift=    0.000
 RMSDP=4.03D-09 MaxDP=5.01D-08 DE=-9.66D-13 OVMax= 6.52D-08

 SCF Done:  E(RHF) =  -166.697817910     A.U. after   11 cycles
            NFock= 11  Conv=0.40D-08     -V/T= 2.0977
 KE= 1.518629398178D+02 PE=-4.383603727164D+02 EE= 9.557137907073D+01
 Leave Link  502 at Fri May 15 22:36:29 2020, MaxMem=   134217728 cpu:               0.6 elap:               0.2
 (Enter /home/soft/g16/l601.exe)
 Copying SCF densities to generalized density rwf, IOpCl= 0 IROHF=0.

 **********************************************************************

            Population analysis using the SCF density.

 **********************************************************************

 Alpha  occ. eigenvalues --  -20.62622 -20.54930  -1.41262  -1.33741  -0.77193
 Alpha  occ. eigenvalues --   -0.71864  -0.63424  -0.58623  -0.54504  -0.49571
 Alpha virt. eigenvalues --    0.16136   0.24265   0.27190   0.42848   0.93133
 Alpha virt. eigenvalues --    1.00209   1.03834   1.07363   1.10155   1.16754
 Alpha virt. eigenvalues --    1.19912   1.23338   1.28016   1.33279   1.56198
 Alpha virt. eigenvalues --    1.72525   1.74025   1.77299   1.81803   1.85964
 Alpha virt. eigenvalues --    1.92682   1.95658   2.50772   2.51105   2.59359
 Alpha virt. eigenvalues --    2.71240   2.74785   2.87216   2.92646   2.98449
 Alpha virt. eigenvalues --    2.99315   3.03566   3.32714   3.39659   3.69148
 Alpha virt. eigenvalues --    3.78988   3.88052   3.99317
          Condensed to atoms (all electrons):
               1          2          3          4          5          6
     1  O    8.161744  -0.022208   0.311420   0.306295   0.001000   0.000972
     2  O   -0.022208   8.074900   0.001113   0.027039   0.309860   0.310105
     3  H    0.311420   0.001113   0.379625  -0.025391  -0.000031   0.000026
     4  H    0.306295   0.027039  -0.025391   0.305780  -0.002117  -0.001916
     5  H    0.001000   0.309860  -0.000031  -0.002117   0.360240  -0.020020
     6  H    0.000972   0.310105   0.000026  -0.001916  -0.020020   0.325417
 Mulliken charges:
               1
     1  O   -0.759222
     2  O   -0.700810
     3  H    0.333238
     4  H    0.390310
     5  H    0.351068
     6  H    0.385416
 Sum of Mulliken charges =   0.00000
 Mulliken charges with hydrogens summed into heavy atoms:
               1
     1  O   -0.035675
     2  O    0.035675
 Electronic spatial extent (au):  <R**2>=          28915.1028
 Charge=             -0.0000 electrons
 Dipole moment (field-independent basis, Debye):
    X=             -0.9022    Y=              4.2480    Z=             -1.8685  Tot=              4.7277
 Quadrupole moment (field-independent basis, Debye-Ang):
   XX=            -35.4101   YY=           -130.5638   ZZ=             18.2304
   XY=             64.0855   XZ=            -14.4061   YZ=             -3.8537
 Traceless Quadrupole moment (field-independent basis, Debye-Ang):
   XX=             13.8378   YY=            -81.3160   ZZ=             67.4782
   XY=             64.0855   XZ=            -14.4061   YZ=             -3.8537
 Octapole moment (field-independent basis, Debye-Ang**2):
  XXX=           -893.7664  YYY=           3007.0887  ZZZ=            -96.6028  XYY=          -1757.3242
  XXY=           1117.9710  XXZ=             23.1563  XZZ=            147.9436  YZZ=            -39.5031
  YYZ=            558.8327  XYZ=           -165.3028
 Hexadecapole moment (field-independent basis, Debye-Ang**3):
 XXXX=         -18590.3133 YYYY=         -61595.6545 ZZZZ=           -112.7706 XXXY=          19995.3432
 XXXZ=           3892.6354 YYYX=          38830.4984 YYYZ=         -16236.4770 ZZZX=           -539.7506
 ZZZY=           -231.3028 XXYY=         -26070.2693 XXZZ=            193.9571 YYZZ=          -3099.2523
 XXYZ=          -4802.0154 YYXZ=           8472.8709 ZZXY=            586.5076
 N-N= 2.422823591798D+01 E-N=-4.383603726197D+02  KE= 1.518629398178D+02
 No NMR shielding tensors so no spin-rotation constants.
 Leave Link  601 at Fri May 15 22:36:29 2020, MaxMem=   134217728 cpu:               0.5 elap:               0.2
 (Enter /home/soft/g16/l607.exe)
 ******************************Gaussian NBO Version 3.1******************************
             N A T U R A L   A T O M I C   O R B I T A L   A N D
          N A T U R A L   B O N D   O R B I T A L   A N A L Y S I S
 ******************************Gaussian NBO Version 3.1******************************
       /RESON  / : Allow strongly delocalized NBO set

 Analyzing the SCF density

 Job title: Atom number=6                                                   

 Storage needed:      7158 in NPA ( 134217512 available)
 GSVD:  LWork=         960 too small for GESVD, short by        1512 words or        1512 for optimal perf.


 NATURAL POPULATIONS:  Natural atomic orbital occupancies 
                                                          
   NAO  Atom  No  lang   Type(AO)    Occupancy      Energy
 ----------------------------------------------------------
     1    O    1  S      Cor( 1S)     1.99984     -20.37290
     2    O    1  S      Val( 2S)     1.74562      -1.15409
     3    O    1  S      Ryd( 3S)     0.00083       1.93252
     4    O    1  px     Val( 2p)     1.75052      -0.40780
     5    O    1  px     Ryd( 3p)     0.00151       1.25307
     6    O    1  py     Val( 2p)     1.74520      -0.41931
     7    O    1  py     Ryd( 3p)     0.00099       1.23883
     8    O    1  pz     Val( 2p)     1.76650      -0.41810
     9    O    1  pz     Ryd( 3p)     0.00090       1.22119
    10    O    1  dxy    Ryd( 3d)     0.00109       2.63978
    11    O    1  dxz    Ryd( 3d)     0.00125       2.74316
    12    O    1  dyz    Ryd( 3d)     0.00154       2.35924
    13    O    1  dx2y2  Ryd( 3d)     0.00109       2.56406
    14    O    1  dz2    Ryd( 3d)     0.00146       2.55158

    15    O    2  S      Cor( 1S)     1.99986     -20.46284
    16    O    2  S      Val( 2S)     1.75530      -1.22786
    17    O    2  S      Ryd( 3S)     0.00102       1.69655
    18    O    2  px     Val( 2p)     1.94121      -0.54881
    19    O    2  px     Ryd( 3p)     0.00072       1.13504
    20    O    2  py     Val( 2p)     1.77367      -0.49627
    21    O    2  py     Ryd( 3p)     0.00076       1.29790
    22    O    2  pz     Val( 2p)     1.51288      -0.40297
    23    O    2  pz     Ryd( 3p)     0.00218       1.24301
    24    O    2  dxy    Ryd( 3d)     0.00188       2.34754
    25    O    2  dxz    Ryd( 3d)     0.00051       2.38575
    26    O    2  dyz    Ryd( 3d)     0.00146       2.94868
    27    O    2  dx2y2  Ryd( 3d)     0.00174       2.23797
    28    O    2  dz2    Ryd( 3d)     0.00037       2.59127

    29    H    3  S      Val( 1S)     0.51794       0.31887
    30    H    3  S      Ryd( 2S)     0.00090       0.73536
    31    H    3  px     Ryd( 2p)     0.00113       2.92163
    32    H    3  py     Ryd( 2p)     0.00069       2.64290
    33    H    3  pz     Ryd( 2p)     0.00140       3.07130

    34    H    4  S      Val( 1S)     0.48228       0.36728
    35    H    4  S      Ryd( 2S)     0.00099       0.83685
    36    H    4  px     Ryd( 2p)     0.00099       2.82341
    37    H    4  py     Ryd( 2p)     0.00150       3.28115
    38    H    4  pz     Ryd( 2p)     0.00070       2.67131

    39    H    5  S      Val( 1S)     0.49723       0.27446
    40    H    5  S      Ryd( 2S)     0.00092       0.66716
    41    H    5  px     Ryd( 2p)     0.00095       2.64329
    42    H    5  py     Ryd( 2p)     0.00108       2.87078
    43    H    5  pz     Ryd( 2p)     0.00107       2.96549

    44    H    6  S      Val( 1S)     0.47439       0.31257
    45    H    6  S      Ryd( 2S)     0.00078       0.70362
    46    H    6  px     Ryd( 2p)     0.00082       2.57426
    47    H    6  py     Ryd( 2p)     0.00088       2.76910
    48    H    6  pz     Ryd( 2p)     0.00144       3.18481


 Summary of Natural Population Analysis:                  
                                                          
                                       Natural Population 
                Natural  -----------------------------------------------
    Atom  No    Charge         Core      Valence    Rydberg      Total
 -----------------------------------------------------------------------
      O    1   -1.01833      1.99984     7.00784    0.01066     9.01833
      O    2   -0.99357      1.99986     6.98306    0.01065     8.99357
      H    3    0.47793      0.00000     0.51794    0.00413     0.52207
      H    4    0.51353      0.00000     0.48228    0.00419     0.48647
      H    5    0.49875      0.00000     0.49723    0.00402     0.50125
      H    6    0.52169      0.00000     0.47439    0.00392     0.47831
 =======================================================================
   * Total *   -0.00000      3.99970    15.96274    0.03756    20.00000

                                 Natural Population      
 --------------------------------------------------------
   Core                       3.99970 ( 99.9925% of   4)
   Valence                   15.96274 ( 99.7671% of  16)
   Natural Minimal Basis     19.96244 ( 99.8122% of  20)
   Natural Rydberg Basis      0.03756 (  0.1878% of  20)
 --------------------------------------------------------

    Atom  No          Natural Electron Configuration
 ----------------------------------------------------------------------------
      O    1      [core]2S( 1.75)2p( 5.26)3d( 0.01)
      O    2      [core]2S( 1.76)2p( 5.23)3d( 0.01)
      H    3            1S( 0.52)
      H    4            1S( 0.48)
      H    5            1S( 0.50)
      H    6            1S( 0.47)


 NBO analysis skipped by request.
 Leave Link  607 at Fri May 15 22:36:29 2020, MaxMem=   134217728 cpu:               0.7 elap:               0.2
 (Enter /home/soft/g16/l9999.exe)

 Test job not archived.
 1\1\GINC-MASTER\SP\RHF\6-31G(d,p)\H4O2\LIWEI01\15-May-2020\0\\#p hf/6-
 31g** 5d 7f pop=npa charge nosymm\\Atom number=6\\0,1\O,0,11.471495,-1
 5.355316,-7.518016\O,0,12.813764,-13.018467,-7.366324\H,0,10.864403,-1
 5.35575,-8.258065\H,0,11.907538,-14.504542,-7.565812\H,0,12.4819,-12.4
 17138,-6.699613\H,0,12.65515,-12.568166,-8.195965\\Version=ES64L-G16Re
 vA.03\HF=-166.6978179\RMSD=4.025e-09\Dipole=-0.3549515,1.6713073,-0.73
 51429\Quadrupole=10.2880376,-60.4564603,50.1684227,47.6459996,-10.7105
 926,-2.8651587\PG=C01 [X(H4O2)]\\@


 MYSTERY IS THE WISDOM OF BLOCKHEADS... HORACE WALPOLE 
 Job cpu time:       0 days  0 hours  0 minutes  4.9 seconds.
 Elapsed time:       0 days  0 hours  0 minutes  1.4 seconds.
 File lengths (MBytes):  RWF=     72 Int=      0 D2E=      0 Chk=      8 Scr=      8
 Normal termination of Gaussian 16 at Fri May 15 22:36:29 2020.
