 Entering Gaussian System, Link 0=g16
 Input=w32_62.gjf
 Output=w32_62.log
 Initial command:
 /home/soft/g16/l1.exe "/tmp/liwei01/gaussian/wsr/Gau-8021.inp" -scrdir="/tmp/liwei01/gaussian/wsr/"
 Entering Link 1 = /home/soft/g16/l1.exe PID=      8022.
  
 Copyright (c) 1988,1990,1992,1993,1995,1998,2003,2009,2016,
            Gaussian, Inc.  All Rights Reserved.
  
 This is part of the Gaussian(R) 16 program.  It is based on
 the Gaussian(R) 09 system (copyright 2009, Gaussian, Inc.),
 the Gaussian(R) 03 system (copyright 2003, Gaussian, Inc.),
 the Gaussian(R) 98 system (copyright 1998, Gaussian, Inc.),
 the Gaussian(R) 94 system (copyright 1995, Gaussian, Inc.),
 the Gaussian 92(TM) system (copyright 1992, Gaussian, Inc.),
 the Gaussian 90(TM) system (copyright 1990, Gaussian, Inc.),
 the Gaussian 88(TM) system (copyright 1988, Gaussian, Inc.),
 the Gaussian 86(TM) system (copyright 1986, Carnegie Mellon
 University), and the Gaussian 82(TM) system (copyright 1983,
 Carnegie Mellon University). Gaussian is a federally registered
 trademark of Gaussian, Inc.
  
 This software contains proprietary and confidential information,
 including trade secrets, belonging to Gaussian, Inc.
  
 This software is provided under written license and may be
 used, copied, transmitted, or stored only in accord with that
 written license.
  
 The following legend is applicable only to US Government
 contracts under FAR:
  
                    RESTRICTED RIGHTS LEGEND
  
 Use, reproduction and disclosure by the US Government is
 subject to restrictions as set forth in subparagraphs (a)
 and (c) of the Commercial Computer Software - Restricted
 Rights clause in FAR 52.227-19.
  
 Gaussian, Inc.
 340 Quinnipiac St., Bldg. 40, Wallingford CT 06492
  
  
 ---------------------------------------------------------------
 Warning -- This program may not be used in any manner that
 competes with the business of Gaussian, Inc. or will provide
 assistance to any competitor of Gaussian, Inc.  The licensee
 of this program is prohibited from giving any competitor of
 Gaussian, Inc. access to this program.  By using this program,
 the user acknowledges that Gaussian, Inc. is engaged in the
 business of creating and licensing software in the field of
 computational chemistry and represents and warrants to the
 licensee that it is not a competitor of Gaussian, Inc. and that
 it will not use this program in any manner prohibited above.
 ---------------------------------------------------------------
  

 Cite this work as:
 Gaussian 16, Revision A.03,
 M. J. Frisch, G. W. Trucks, H. B. Schlegel, G. E. Scuseria, 
 M. A. Robb, J. R. Cheeseman, G. Scalmani, V. Barone, 
 G. A. Petersson, H. Nakatsuji, X. Li, M. Caricato, A. V. Marenich, 
 J. Bloino, B. G. Janesko, R. Gomperts, B. Mennucci, H. P. Hratchian, 
 J. V. Ortiz, A. F. Izmaylov, J. L. Sonnenberg, D. Williams-Young, 
 F. Ding, F. Lipparini, F. Egidi, J. Goings, B. Peng, A. Petrone, 
 T. Henderson, D. Ranasinghe, V. G. Zakrzewski, J. Gao, N. Rega, 
 G. Zheng, W. Liang, M. Hada, M. Ehara, K. Toyota, R. Fukuda, 
 J. Hasegawa, M. Ishida, T. Nakajima, Y. Honda, O. Kitao, H. Nakai, 
 T. Vreven, K. Throssell, J. A. Montgomery, Jr., J. E. Peralta, 
 F. Ogliaro, M. J. Bearpark, J. J. Heyd, E. N. Brothers, K. N. Kudin, 
 V. N. Staroverov, T. A. Keith, R. Kobayashi, J. Normand, 
 K. Raghavachari, A. P. Rendell, J. C. Burant, S. S. Iyengar, 
 J. Tomasi, M. Cossi, J. M. Millam, M. Klene, C. Adamo, R. Cammi, 
 J. W. Ochterski, R. L. Martin, K. Morokuma, O. Farkas, 
 J. B. Foresman, and D. J. Fox, Gaussian, Inc., Wallingford CT, 2016.
 
 ******************************************
 Gaussian 16:  ES64L-G16RevA.03 25-Dec-2016
                15-May-2020 
 ******************************************
 %chk=w32_62.chk
 %nproc=4
 Will use up to    4 processors via shared memory.
 %mem=1gb
 -----------------------------------------
 #p hf/6-31g** 5d 7f pop=npa charge nosymm
 -----------------------------------------
 1/18=10,28=-2,38=1,125=101,172=1/1;
 2/12=2,15=1,17=6,18=5,40=1/2;
 3/5=1,6=6,7=101,8=11,11=9,25=1,30=1/1,2,3;
 4//1;
 5/5=2,38=5/2;
 6/7=2,8=2,9=2,10=2,28=1,40=-1/1,7;
 99/5=1,9=1/99;
 Leave Link    1 at Fri May 15 22:36:07 2020, MaxMem=   134217728 cpu:               0.3 elap:               0.1
 (Enter /home/soft/g16/l101.exe)
 -------------
 Atom number=9
 -------------
 Symbolic Z-matrix:
 Charge =  0 Multiplicity = 1
 o                     7.25028  -9.85963  -13.10346 
 o                     5.57039  -12.76004  -10.73381 
 o                     4.64126  -8.13828  -12.67115 
 h                     7.12066  -10.22147  -13.9801 
 h                     7.34148  -10.62674  -12.53826 
 h                     4.64271  -12.82783  -10.50789 
 h                     5.98375  -12.40517  -9.94677 
 h                     4.59781  -7.27204  -12.2662 
 h                     5.5765   -8.33841  -12.70997 
 
 ITRead=  0  0  0  0  0  0  0  0  0
 MicOpt= -1 -1 -1 -1 -1 -1 -1 -1 -1
 NAtoms=      9 NQM=        9 NQMF=       0 NMMI=      0 NMMIF=      0
                NMic=       0 NMicF=      0.
                    Isotopes and Nuclear Properties:
 (Nuclear quadrupole moments (NQMom) in fm**2, nuclear magnetic moments (NMagM)
  in nuclear magnetons)

  Atom         1           2           3           4           5           6           7           8           9
 IAtWgt=          16          16          16           1           1           1           1           1           1
 AtmWgt=  15.9949146  15.9949146  15.9949146   1.0078250   1.0078250   1.0078250   1.0078250   1.0078250   1.0078250
 NucSpn=           0           0           0           1           1           1           1           1           1
 AtZEff=  -0.0000000  -0.0000000  -0.0000000  -0.0000000  -0.0000000  -0.0000000  -0.0000000  -0.0000000  -0.0000000
 NQMom=    0.0000000   0.0000000   0.0000000   0.0000000   0.0000000   0.0000000   0.0000000   0.0000000   0.0000000
 NMagM=    0.0000000   0.0000000   0.0000000   2.7928460   2.7928460   2.7928460   2.7928460   2.7928460   2.7928460
 AtZNuc=   8.0000000   8.0000000   8.0000000   1.0000000   1.0000000   1.0000000   1.0000000   1.0000000   1.0000000
 Background charge distribution read from input stream:
 Point Charges:
 XYZ=    8.3923  -11.8129  -11.2005 Q=   -1.0561 A=    0.0000 R=    0.0000 C=    0.0000
 XYZ=    8.1753  -12.5378  -10.6142 Q=    0.5233 A=    0.0000 R=    0.0000 C=    0.0000
 XYZ=    9.2522  -11.5141  -10.9045 Q=    0.5177 A=    0.0000 R=    0.0000 C=    0.0000
 XYZ=   10.7060  -10.8489  -10.0915 Q=   -1.0357 A=    0.0000 R=    0.0000 C=    0.0000
 XYZ=   11.5214  -11.3203   -9.9208 Q=    0.5206 A=    0.0000 R=    0.0000 C=    0.0000
 XYZ=   10.5678  -10.3169   -9.3078 Q=    0.5156 A=    0.0000 R=    0.0000 C=    0.0000
 XYZ=    8.6932  -14.0693   -9.5471 Q=   -1.0099 A=    0.0000 R=    0.0000 C=    0.0000
 XYZ=    8.2201  -13.7327   -8.7861 Q=    0.4999 A=    0.0000 R=    0.0000 C=    0.0000
 XYZ=    8.5528  -15.0157   -9.5178 Q=    0.5079 A=    0.0000 R=    0.0000 C=    0.0000
 XYZ=    6.9662   -9.2478  -10.2743 Q=   -1.0324 A=    0.0000 R=    0.0000 C=    0.0000
 XYZ=    6.9752   -9.8450  -11.0223 Q=    0.5142 A=    0.0000 R=    0.0000 C=    0.0000
 XYZ=    7.6844   -8.6385  -10.4451 Q=    0.5185 A=    0.0000 R=    0.0000 C=    0.0000
 XYZ=    6.9426  -11.8294   -8.3710 Q=   -1.0528 A=    0.0000 R=    0.0000 C=    0.0000
 XYZ=    7.4956  -12.0911   -7.6348 Q=    0.5210 A=    0.0000 R=    0.0000 C=    0.0000
 XYZ=    7.3075  -10.9928   -8.6597 Q=    0.5255 A=    0.0000 R=    0.0000 C=    0.0000
 XYZ=    9.7397  -14.5602  -13.0841 Q=   -1.0029 A=    0.0000 R=    0.0000 C=    0.0000
 XYZ=    9.4367  -13.9209  -12.4394 Q=    0.5215 A=    0.0000 R=    0.0000 C=    0.0000
 XYZ=   10.6527  -14.3230  -13.2466 Q=    0.4988 A=    0.0000 R=    0.0000 C=    0.0000
 XYZ=   10.0849   -9.6030  -13.6944 Q=   -1.0549 A=    0.0000 R=    0.0000 C=    0.0000
 XYZ=    9.8380   -9.8779  -14.5774 Q=    0.5180 A=    0.0000 R=    0.0000 C=    0.0000
 XYZ=    9.2671   -9.6284  -13.1976 Q=    0.5226 A=    0.0000 R=    0.0000 C=    0.0000
 XYZ=    9.4738   -7.9972  -10.9180 Q=   -0.9971 A=    0.0000 R=    0.0000 C=    0.0000
 XYZ=    9.9975   -8.7956  -10.8516 Q=    0.5301 A=    0.0000 R=    0.0000 C=    0.0000
 XYZ=    9.6234   -7.5424  -10.0892 Q=    0.4920 A=    0.0000 R=    0.0000 C=    0.0000
 XYZ=    8.4516  -10.6356  -15.6859 Q=   -1.0322 A=    0.0000 R=    0.0000 C=    0.0000
 XYZ=    8.1250  -10.4069  -16.5562 Q=    0.4798 A=    0.0000 R=    0.0000 C=    0.0000
 XYZ=    9.2622  -11.1166  -15.8526 Q=    0.5341 A=    0.0000 R=    0.0000 C=    0.0000
 XYZ=    4.0391  -11.2243  -12.8044 Q=   -0.9921 A=    0.0000 R=    0.0000 C=    0.0000
 XYZ=    4.5248  -12.0476  -12.7552 Q=    0.4802 A=    0.0000 R=    0.0000 C=    0.0000
 XYZ=    4.4321  -10.7575  -13.5420 Q=    0.5046 A=    0.0000 R=    0.0000 C=    0.0000
 XYZ=    5.5848  -15.5922  -11.4699 Q=   -1.0129 A=    0.0000 R=    0.0000 C=    0.0000
 XYZ=    4.6785  -15.3483  -11.6582 Q=    0.5050 A=    0.0000 R=    0.0000 C=    0.0000
 XYZ=    6.0031  -14.7735  -11.2032 Q=    0.5257 A=    0.0000 R=    0.0000 C=    0.0000
 XYZ=    8.8013  -12.4259   -6.4973 Q=   -0.9852 A=    0.0000 R=    0.0000 C=    0.0000
 XYZ=    9.0556  -11.7490   -5.8701 Q=    0.5006 A=    0.0000 R=    0.0000 C=    0.0000
 XYZ=    8.9395  -13.2499   -6.0303 Q=    0.5083 A=    0.0000 R=    0.0000 C=    0.0000
 XYZ=   10.5523   -9.0602   -7.7657 Q=   -0.9799 A=    0.0000 R=    0.0000 C=    0.0000
 XYZ=   10.0296   -9.4526   -7.0665 Q=    0.5003 A=    0.0000 R=    0.0000 C=    0.0000
 XYZ=   10.0576   -8.2839   -8.0284 Q=    0.4937 A=    0.0000 R=    0.0000 C=    0.0000
 XYZ=    8.4919  -14.1596  -15.7110 Q=   -0.9823 A=    0.0000 R=    0.0000 C=    0.0000
 XYZ=    8.8439  -15.0437  -15.8144 Q=    0.4799 A=    0.0000 R=    0.0000 C=    0.0000
 XYZ=    8.9183  -13.8221  -14.9233 Q=    0.4950 A=    0.0000 R=    0.0000 C=    0.0000
 XYZ=   10.6752  -11.9252  -15.8192 Q=   -0.9837 A=    0.0000 R=    0.0000 C=    0.0000
 XYZ=   11.1454  -12.2597  -15.0555 Q=    0.5055 A=    0.0000 R=    0.0000 C=    0.0000
 XYZ=   10.7694  -12.6123  -16.4789 Q=    0.5125 A=    0.0000 R=    0.0000 C=    0.0000
 XYZ=    7.7593  -16.5050  -13.2460 Q=   -1.0112 A=    0.0000 R=    0.0000 C=    0.0000
 XYZ=    7.3079  -16.2111  -12.4547 Q=    0.4926 A=    0.0000 R=    0.0000 C=    0.0000
 XYZ=    8.5373  -15.9498  -13.2987 Q=    0.4973 A=    0.0000 R=    0.0000 C=    0.0000
 XYZ=   13.4576  -11.7733   -9.7740 Q=   -0.9993 A=    0.0000 R=    0.0000 C=    0.0000
 XYZ=   13.9089  -10.9962  -10.1037 Q=    0.5128 A=    0.0000 R=    0.0000 C=    0.0000
 XYZ=   14.1508  -12.4236   -9.6612 Q=    0.5076 A=    0.0000 R=    0.0000 C=    0.0000
 XYZ=    5.5914  -15.5335   -8.7002 Q=   -1.0162 A=    0.0000 R=    0.0000 C=    0.0000
 XYZ=    6.3093  -16.0707   -8.3652 Q=    0.4831 A=    0.0000 R=    0.0000 C=    0.0000
 XYZ=    5.4763  -15.8239   -9.6050 Q=    0.5237 A=    0.0000 R=    0.0000 C=    0.0000
 XYZ=    5.3398  -11.2122  -15.4745 Q=   -0.9760 A=    0.0000 R=    0.0000 C=    0.0000
 XYZ=    5.8801  -10.4587  -15.7120 Q=    0.4863 A=    0.0000 R=    0.0000 C=    0.0000
 XYZ=    5.4896  -11.8457  -16.1763 Q=    0.4965 A=    0.0000 R=    0.0000 C=    0.0000
 XYZ=   12.9960  -14.7139  -11.2100 Q=   -0.9778 A=    0.0000 R=    0.0000 C=    0.0000
 XYZ=   12.2864  -15.1619  -10.7497 Q=    0.5059 A=    0.0000 R=    0.0000 C=    0.0000
 XYZ=   13.6357  -14.5124  -10.5270 Q=    0.4638 A=    0.0000 R=    0.0000 C=    0.0000
 XYZ=    8.9611  -17.0167   -9.2755 Q=   -0.9921 A=    0.0000 R=    0.0000 C=    0.0000
 XYZ=    8.6736  -17.2191   -8.3852 Q=    0.5092 A=    0.0000 R=    0.0000 C=    0.0000
 XYZ=    8.3026  -17.4234   -9.8386 Q=    0.5103 A=    0.0000 R=    0.0000 C=    0.0000
 XYZ=   12.8900   -9.6906  -13.7511 Q=   -0.9984 A=    0.0000 R=    0.0000 C=    0.0000
 XYZ=   13.4884   -9.8459  -13.0204 Q=    0.4670 A=    0.0000 R=    0.0000 C=    0.0000
 XYZ=   12.0171   -9.7427  -13.3618 Q=    0.5160 A=    0.0000 R=    0.0000 C=    0.0000
 XYZ=    4.9070   -7.9100   -9.1300 Q=   -1.0105 A=    0.0000 R=    0.0000 C=    0.0000
 XYZ=    4.0635   -8.0265   -9.5674 Q=    0.4764 A=    0.0000 R=    0.0000 C=    0.0000
 XYZ=    5.4227   -8.6710   -9.3968 Q=    0.5176 A=    0.0000 R=    0.0000 C=    0.0000
 XYZ=    2.9547  -12.7024   -9.8757 Q=   -0.9915 A=    0.0000 R=    0.0000 C=    0.0000
 XYZ=    3.0641  -13.5048   -9.3654 Q=    0.5019 A=    0.0000 R=    0.0000 C=    0.0000
 XYZ=    2.7384  -12.0329   -9.2268 Q=    0.5105 A=    0.0000 R=    0.0000 C=    0.0000
 XYZ=    4.2108  -13.3306   -7.5546 Q=   -1.0293 A=    0.0000 R=    0.0000 C=    0.0000
 XYZ=    4.9638  -12.7453   -7.4735 Q=    0.4979 A=    0.0000 R=    0.0000 C=    0.0000
 XYZ=    4.5835  -14.1618   -7.8486 Q=    0.5197 A=    0.0000 R=    0.0000 C=    0.0000
 XYZ=    8.5389   -6.2611  -12.9484 Q=   -1.0019 A=    0.0000 R=    0.0000 C=    0.0000
 XYZ=    8.8800   -6.8491  -12.2745 Q=    0.5098 A=    0.0000 R=    0.0000 C=    0.0000
 XYZ=    9.2767   -6.1230  -13.5423 Q=    0.4773 A=    0.0000 R=    0.0000 C=    0.0000
 XYZ=   11.4715  -15.3553   -7.5180 Q=   -1.0197 A=    0.0000 R=    0.0000 C=    0.0000
 XYZ=   10.8644  -15.3558   -8.2581 Q=    0.4753 A=    0.0000 R=    0.0000 C=    0.0000
 XYZ=   11.9075  -14.5045   -7.5658 Q=    0.5146 A=    0.0000 R=    0.0000 C=    0.0000
 XYZ=   12.8138  -13.0185   -7.3663 Q=   -0.9959 A=    0.0000 R=    0.0000 C=    0.0000
 XYZ=   12.4819  -12.4171   -6.6996 Q=    0.4994 A=    0.0000 R=    0.0000 C=    0.0000
 XYZ=   12.6552  -12.5682   -8.1960 Q=    0.5110 A=    0.0000 R=    0.0000 C=    0.0000
 XYZ=   11.3245  -17.0116  -10.7628 Q=   -1.0019 A=    0.0000 R=    0.0000 C=    0.0000
 XYZ=   11.7165  -17.8633  -10.5702 Q=    0.4876 A=    0.0000 R=    0.0000 C=    0.0000
 XYZ=   10.4428  -17.0644  -10.3939 Q=    0.5095 A=    0.0000 R=    0.0000 C=    0.0000
 Pt Chg Charge=              0.0211 electrons
 Pt Chg Dipole moment (Debye):
    X=             16.5271    Y=             -7.8105    Z=             12.5130  Tot=             22.1523
 Pt Chg Quadrupole moment (Debye-Ang):
   XX=            254.9271   YY=            174.8122   ZZ=           -218.2801
   XY=           -215.3788   XZ=            -48.3748   YZ=            -77.8780
 Pt Chg Traceless Quadrupole moment (Debye-Ang):
   XX=            184.4407   YY=            104.3259   ZZ=           -288.7665
   XY=           -215.3788   XZ=            -48.3748   YZ=            -77.8780
 Pt Chg Octapole moment (Debye-Ang**2):
  XXX=           3386.3924  YYY=          -3478.3427  ZZZ=           2510.9765  XYY=           2867.4099
  XXY=          -2871.3672  XXZ=          -1505.4396  XZZ=           -307.6812  YZZ=           1881.6306
  YYZ=            263.3145  XYZ=            946.2750
 Pt Chg Hexadecapole moment (Debye-Ang**3):
 XXXX=          45609.8293 YYYY=          68484.6149 ZZZZ=         -16468.7756 XXXY=         -35966.8981
 XXXZ=         -24336.2352 YYYX=         -41298.4246 YYYZ=           6048.1628 ZZZX=           5914.2999
 ZZZY=         -23138.1926 XXYY=          33324.7776 XXZZ=           7438.4448 YYZZ=         -18254.7175
 XXYZ=          19479.0143 YYXZ=         -14848.2646 ZZXY=          -1880.5770
 Leave Link  101 at Fri May 15 22:36:07 2020, MaxMem=   134217728 cpu:               0.6 elap:               0.2
 (Enter /home/soft/g16/l202.exe)
                          Input orientation:                          
 ---------------------------------------------------------------------
 Center     Atomic      Atomic             Coordinates (Angstroms)
 Number     Number       Type             X           Y           Z
 ---------------------------------------------------------------------
      1          8           0        7.250284   -9.859627  -13.103456
      2          8           0        5.570392  -12.760041  -10.733807
      3          8           0        4.641258   -8.138278  -12.671145
      4          1           0        7.120660  -10.221473  -13.980096
      5          1           0        7.341484  -10.626744  -12.538261
      6          1           0        4.642708  -12.827827  -10.507888
      7          1           0        5.983752  -12.405170   -9.946767
      8          1           0        4.597809   -7.272042  -12.266198
      9          1           0        5.576498   -8.338407  -12.709967
 ---------------------------------------------------------------------
                    Distance matrix (angstroms):
                    1          2          3          4          5
     1  O    0.000000
     2  O    4.104836   0.000000
     3  O    3.155464   5.096789   0.000000
     4  H    0.957200   4.402959   3.492920   0.000000
     5  H    0.957200   3.308138   3.674417   1.513901   0.000000
     6  H    4.727223   0.957200   5.164451   4.998955   4.031200
     7  H    4.248362   0.957200   5.237451   4.725340   3.423752
     8  H    3.798976   5.780335   0.957201   4.242802   4.342326
     9  H    2.295758   4.843149   0.957200   2.746562   2.895021
                    6          7          8          9
     6  H    0.000000
     7  H    1.513901   0.000000
     8  H    5.827557   5.800828   0.000000
     9  H    5.086847   4.933527   1.513901   0.000000
 Symmetry turned off by external request.
 Stoichiometry    H6O3
 Framework group  C1[X(H6O3)]
 Deg. of freedom    21
 Full point group                 C1      NOp   1
 Rotational constants (GHZ):           6.3670024           2.0463525           1.5704280
 Leave Link  202 at Fri May 15 22:36:07 2020, MaxMem=   134217728 cpu:               0.0 elap:               0.0
 (Enter /home/soft/g16/l301.exe)
 Standard basis: 6-31G(d,p) (5D, 7F)
 Ernie: Thresh=  0.10000D-02 Tol=  0.10000D-05 Strict=F.
    72 basis functions,   126 primitive gaussians,    75 cartesian basis functions
    15 alpha electrons       15 beta electrons
       nuclear repulsion energy        67.4225113391 Hartrees.
 IExCor=    0 DFT=F Ex=HF Corr=None ExCW=0 ScaHFX=  1.000000
 ScaDFX=  1.000000  1.000000  1.000000  1.000000 ScalE2=  1.000000  1.000000
 IRadAn=      5 IRanWt=     -1 IRanGd=            0 ICorTp=0 IEmpDi=  4
 NAtoms=    9 NActive=    9 NUniq=    9 SFac= 1.00D+00 NAtFMM=   60 NAOKFM=F Big=F
 Integral buffers will be    131072 words long.
 Raffenetti 1 integral format.
 Two-electron integral symmetry is turned off.
 Background charge distribution read from rwf.
 PtFMM for NChg=        96 BoxLen=    40.00 Levels= 1 LMax=20 SMax=    22.2 ICnFMM=     1:
 Self energy of the charges =       -14.0719186392 a.u.
 MM   energy of the charges =         0.0000000000 a.u.
 Nuclei-charges interaction =        -1.0285076298 a.u.
 Nuclear repulsion after external point charges =       52.3220850701 Hartrees.
 Leave Link  301 at Fri May 15 22:36:07 2020, MaxMem=   134217728 cpu:               0.3 elap:               0.1
 (Enter /home/soft/g16/l302.exe)
 NPDir=0 NMtPBC=     1 NCelOv=     1 NCel=       1 NClECP=     1 NCelD=      1
         NCelK=      1 NCelE2=     1 NClLst=     1 CellRange=     0.0.
 One-electron integrals computed using PRISM.
 NBasis=    72 RedAO= T EigKep=  3.73D-02  NBF=    72
 NBsUse=    72 1.00D-06 EigRej= -1.00D+00 NBFU=    72
 Leave Link  302 at Fri May 15 22:36:07 2020, MaxMem=   134217728 cpu:               0.5 elap:               0.1
 (Enter /home/soft/g16/l303.exe)
 DipDrv:  MaxL=1.
 Leave Link  303 at Fri May 15 22:36:07 2020, MaxMem=   134217728 cpu:               0.1 elap:               0.1
 (Enter /home/soft/g16/l401.exe)
 ExpMin= 1.61D-01 ExpMax= 5.48D+03 ExpMxC= 8.25D+02 IAcc=3 IRadAn=         5 AccDes= 0.00D+00
 Harris functional with IExCor=  205 and IRadAn=       5 diagonalized for initial guess.
 HarFok:  IExCor=  205 AccDes= 0.00D+00 IRadAn=         5 IDoV= 1 UseB2=F ITyADJ=14
 ICtDFT=  3500011 ScaDFX=  1.000000  1.000000  1.000000  1.000000
 FoFCou: FMM=F IPFlag=           0 FMFlag=      100000 FMFlg1=           0
         NFxFlg=           0 DoJE=T BraDBF=F KetDBF=T FulRan=T
         wScrn=  0.000000 ICntrl=       500 IOpCl=  0 I1Cent=   200000004 NGrid=           0
         NMat0=    1 NMatS0=      1 NMatT0=    0 NMatD0=    1 NMtDS0=    0 NMtDT0=    0
 Symmetry not used in FoFCou.
 Harris En= -242.488080213638    
 JPrj=0 DoOrth=F DoCkMO=F.
 Leave Link  401 at Fri May 15 22:36:08 2020, MaxMem=   134217728 cpu:               1.3 elap:               0.3
 (Enter /home/soft/g16/l502.exe)
 Keep R1 ints in memory in canonical form, NReq=4304293.
 FoFCou: FMM=F IPFlag=           0 FMFlag=           0 FMFlg1=           0
         NFxFlg=           0 DoJE=F BraDBF=F KetDBF=F FulRan=T
         wScrn=  0.000000 ICntrl=       600 IOpCl=  0 I1Cent=           0 NGrid=           0
         NMat0=    1 NMatS0=   2628 NMatT0=    0 NMatD0=    1 NMtDS0=    0 NMtDT0=    0
 Symmetry not used in FoFCou.
 Two-electron integral symmetry not used.
 Closed shell SCF:
 Using DIIS extrapolation, IDIIS=  1040.
 NGot=   134217728 LenX=   130750732 LenY=   130744666
 Requested convergence on RMS density matrix=1.00D-08 within 128 cycles.
 Requested convergence on MAX density matrix=1.00D-06.
 Requested convergence on             energy=1.00D-06.
 No special actions if energy rises.

 Cycle   1  Pass 1  IDiag  1:
 E= -241.963250805740    
 DIIS: error= 5.73D-02 at cycle   1 NSaved=   1.
 NSaved= 1 IEnMin= 1 EnMin= -241.963250805740     IErMin= 1 ErrMin= 5.73D-02
 ErrMax= 5.73D-02  0.00D+00 EMaxC= 1.00D-01 BMatC= 3.73D-01 BMatP= 3.73D-01
 IDIUse=3 WtCom= 4.27D-01 WtEn= 5.73D-01
 Coeff-Com:  0.100D+01
 Coeff-En:   0.100D+01
 Coeff:      0.100D+01
 Gap=     0.573 Goal=   None    Shift=    0.000
 GapD=    0.573 DampG=2.000 DampE=0.500 DampFc=1.0000 IDamp=-1.
 RMSDP=6.88D-03 MaxDP=1.25D-01              OVMax= 1.29D-01

 Cycle   2  Pass 1  IDiag  1:
 E= -242.135720430590     Delta-E=       -0.172469624849 Rises=F Damp=F
 DIIS: error= 3.22D-02 at cycle   2 NSaved=   2.
 NSaved= 2 IEnMin= 2 EnMin= -242.135720430590     IErMin= 2 ErrMin= 3.22D-02
 ErrMax= 3.22D-02  0.00D+00 EMaxC= 1.00D-01 BMatC= 1.15D-01 BMatP= 3.73D-01
 IDIUse=3 WtCom= 6.78D-01 WtEn= 3.22D-01
 Coeff-Com:  0.346D+00 0.654D+00
 Coeff-En:   0.852D-01 0.915D+00
 Coeff:      0.262D+00 0.738D+00
 Gap=     0.692 Goal=   None    Shift=    0.000
 RMSDP=3.11D-03 MaxDP=5.44D-02 DE=-1.72D-01 OVMax= 4.73D-02

 Cycle   3  Pass 1  IDiag  1:
 E= -242.211870379196     Delta-E=       -0.076149948606 Rises=F Damp=F
 DIIS: error= 6.04D-03 at cycle   3 NSaved=   3.
 NSaved= 3 IEnMin= 3 EnMin= -242.211870379196     IErMin= 3 ErrMin= 6.04D-03
 ErrMax= 6.04D-03  0.00D+00 EMaxC= 1.00D-01 BMatC= 3.06D-03 BMatP= 1.15D-01
 IDIUse=3 WtCom= 9.40D-01 WtEn= 6.04D-02
 Coeff-Com: -0.314D-01 0.975D-01 0.934D+00
 Coeff-En:   0.000D+00 0.000D+00 0.100D+01
 Coeff:     -0.295D-01 0.916D-01 0.938D+00
 Gap=     0.677 Goal=   None    Shift=    0.000
 RMSDP=4.41D-04 MaxDP=8.40D-03 DE=-7.61D-02 OVMax= 9.37D-03

 Cycle   4  Pass 1  IDiag  1:
 E= -242.214205673020     Delta-E=       -0.002335293824 Rises=F Damp=F
 DIIS: error= 5.40D-04 at cycle   4 NSaved=   4.
 NSaved= 4 IEnMin= 4 EnMin= -242.214205673020     IErMin= 4 ErrMin= 5.40D-04
 ErrMax= 5.40D-04  0.00D+00 EMaxC= 1.00D-01 BMatC= 2.27D-05 BMatP= 3.06D-03
 IDIUse=3 WtCom= 9.95D-01 WtEn= 5.40D-03
 Coeff-Com:  0.681D-02-0.465D-01-0.295D+00 0.134D+01
 Coeff-En:   0.000D+00 0.000D+00 0.000D+00 0.100D+01
 Coeff:      0.677D-02-0.463D-01-0.294D+00 0.133D+01
 Gap=     0.679 Goal=   None    Shift=    0.000
 RMSDP=8.66D-05 MaxDP=1.36D-03 DE=-2.34D-03 OVMax= 1.65D-03

 Cycle   5  Pass 1  IDiag  1:
 E= -242.214242055744     Delta-E=       -0.000036382724 Rises=F Damp=F
 DIIS: error= 9.29D-05 at cycle   5 NSaved=   5.
 NSaved= 5 IEnMin= 5 EnMin= -242.214242055744     IErMin= 5 ErrMin= 9.29D-05
 ErrMax= 9.29D-05  0.00D+00 EMaxC= 1.00D-01 BMatC= 4.87D-07 BMatP= 2.27D-05
 IDIUse=1 WtCom= 1.00D+00 WtEn= 0.00D+00
 Coeff-Com:  0.386D-03 0.585D-03-0.197D-02-0.131D+00 0.113D+01
 Coeff:      0.386D-03 0.585D-03-0.197D-02-0.131D+00 0.113D+01
 Gap=     0.680 Goal=   None    Shift=    0.000
 RMSDP=1.76D-05 MaxDP=2.34D-04 DE=-3.64D-05 OVMax= 3.53D-04

 Cycle   6  Pass 1  IDiag  1:
 E= -242.214243128372     Delta-E=       -0.000001072627 Rises=F Damp=F
 DIIS: error= 2.69D-05 at cycle   6 NSaved=   6.
 NSaved= 6 IEnMin= 6 EnMin= -242.214243128372     IErMin= 6 ErrMin= 2.69D-05
 ErrMax= 2.69D-05  0.00D+00 EMaxC= 1.00D-01 BMatC= 4.05D-08 BMatP= 4.87D-07
 IDIUse=1 WtCom= 1.00D+00 WtEn= 0.00D+00
 Coeff-Com: -0.269D-03 0.230D-02 0.143D-01-0.827D-01 0.127D+00 0.940D+00
 Coeff:     -0.269D-03 0.230D-02 0.143D-01-0.827D-01 0.127D+00 0.940D+00
 Gap=     0.680 Goal=   None    Shift=    0.000
 RMSDP=4.05D-06 MaxDP=8.91D-05 DE=-1.07D-06 OVMax= 8.56D-05

 Cycle   7  Pass 1  IDiag  1:
 E= -242.214243186999     Delta-E=       -0.000000058627 Rises=F Damp=F
 DIIS: error= 6.89D-06 at cycle   7 NSaved=   7.
 NSaved= 7 IEnMin= 7 EnMin= -242.214243186999     IErMin= 7 ErrMin= 6.89D-06
 ErrMax= 6.89D-06  0.00D+00 EMaxC= 1.00D-01 BMatC= 4.49D-09 BMatP= 4.05D-08
 IDIUse=1 WtCom= 1.00D+00 WtEn= 0.00D+00
 Coeff-Com: -0.845D-04 0.322D-03 0.260D-02-0.298D-03-0.103D+00 0.176D+00
 Coeff-Com:  0.925D+00
 Coeff:     -0.845D-04 0.322D-03 0.260D-02-0.298D-03-0.103D+00 0.176D+00
 Coeff:      0.925D+00
 Gap=     0.680 Goal=   None    Shift=    0.000
 RMSDP=1.21D-06 MaxDP=2.05D-05 DE=-5.86D-08 OVMax= 2.84D-05

 Cycle   8  Pass 1  IDiag  1:
 E= -242.214243193078     Delta-E=       -0.000000006079 Rises=F Damp=F
 DIIS: error= 1.45D-06 at cycle   8 NSaved=   8.
 NSaved= 8 IEnMin= 8 EnMin= -242.214243193078     IErMin= 8 ErrMin= 1.45D-06
 ErrMax= 1.45D-06  0.00D+00 EMaxC= 1.00D-01 BMatC= 1.63D-10 BMatP= 4.49D-09
 IDIUse=1 WtCom= 1.00D+00 WtEn= 0.00D+00
 Coeff-Com:  0.404D-04-0.225D-03-0.162D-02 0.461D-02 0.295D-01-0.105D+00
 Coeff-Com: -0.312D+00 0.138D+01
 Coeff:      0.404D-04-0.225D-03-0.162D-02 0.461D-02 0.295D-01-0.105D+00
 Coeff:     -0.312D+00 0.138D+01
 Gap=     0.680 Goal=   None    Shift=    0.000
 RMSDP=3.04D-07 MaxDP=4.66D-06 DE=-6.08D-09 OVMax= 8.41D-06

 Cycle   9  Pass 1  IDiag  1:
 E= -242.214243193457     Delta-E=       -0.000000000379 Rises=F Damp=F
 DIIS: error= 2.99D-07 at cycle   9 NSaved=   9.
 NSaved= 9 IEnMin= 9 EnMin= -242.214243193457     IErMin= 9 ErrMin= 2.99D-07
 ErrMax= 2.99D-07  0.00D+00 EMaxC= 1.00D-01 BMatC= 3.93D-12 BMatP= 1.63D-10
 IDIUse=1 WtCom= 1.00D+00 WtEn= 0.00D+00
 Coeff-Com: -0.413D-05 0.287D-04 0.201D-03-0.921D-03-0.915D-03 0.118D-01
 Coeff-Com:  0.191D-01-0.226D+00 0.120D+01
 Coeff:     -0.413D-05 0.287D-04 0.201D-03-0.921D-03-0.915D-03 0.118D-01
 Coeff:      0.191D-01-0.226D+00 0.120D+01
 Gap=     0.680 Goal=   None    Shift=    0.000
 RMSDP=4.50D-08 MaxDP=7.08D-07 DE=-3.79D-10 OVMax= 1.26D-06

 Cycle  10  Pass 1  IDiag  1:
 E= -242.214243193466     Delta-E=       -0.000000000008 Rises=F Damp=F
 DIIS: error= 6.44D-08 at cycle  10 NSaved=  10.
 NSaved=10 IEnMin=10 EnMin= -242.214243193466     IErMin=10 ErrMin= 6.44D-08
 ErrMax= 6.44D-08  0.00D+00 EMaxC= 1.00D-01 BMatC= 3.22D-13 BMatP= 3.93D-12
 IDIUse=1 WtCom= 1.00D+00 WtEn= 0.00D+00
 Coeff-Com: -0.262D-05 0.157D-04 0.112D-03-0.382D-03-0.155D-02 0.701D-02
 Coeff-Com:  0.180D-01-0.101D+00 0.183D+00 0.896D+00
 Coeff:     -0.262D-05 0.157D-04 0.112D-03-0.382D-03-0.155D-02 0.701D-02
 Coeff:      0.180D-01-0.101D+00 0.183D+00 0.896D+00
 Gap=     0.680 Goal=   None    Shift=    0.000
 RMSDP=1.01D-08 MaxDP=1.88D-07 DE=-8.47D-12 OVMax= 3.15D-07

 Cycle  11  Pass 1  IDiag  1:
 E= -242.214243193465     Delta-E=        0.000000000001 Rises=F Damp=F
 DIIS: error= 2.67D-08 at cycle  11 NSaved=  11.
 NSaved=11 IEnMin=10 EnMin= -242.214243193466     IErMin=11 ErrMin= 2.67D-08
 ErrMax= 2.67D-08  0.00D+00 EMaxC= 1.00D-01 BMatC= 3.32D-14 BMatP= 3.22D-13
 IDIUse=1 WtCom= 1.00D+00 WtEn= 0.00D+00
 Coeff-Com:  0.114D-06-0.115D-05-0.760D-05 0.527D-04-0.113D-03-0.399D-03
 Coeff-Com:  0.171D-03 0.119D-01-0.115D+00 0.110D+00 0.994D+00
 Coeff:      0.114D-06-0.115D-05-0.760D-05 0.527D-04-0.113D-03-0.399D-03
 Coeff:      0.171D-03 0.119D-01-0.115D+00 0.110D+00 0.994D+00
 Gap=     0.680 Goal=   None    Shift=    0.000
 RMSDP=4.16D-09 MaxDP=4.49D-08 DE= 6.82D-13 OVMax= 1.04D-07

 SCF Done:  E(RHF) =  -242.214243193     A.U. after   11 cycles
            NFock= 11  Conv=0.42D-08     -V/T= 2.0638
 KE= 2.276851398016D+02 PE=-6.760171756511D+02 EE= 1.537957075859D+02
 Leave Link  502 at Fri May 15 22:36:08 2020, MaxMem=   134217728 cpu:               0.9 elap:               0.3
 (Enter /home/soft/g16/l601.exe)
 Copying SCF densities to generalized density rwf, IOpCl= 0 IROHF=0.

 **********************************************************************

            Population analysis using the SCF density.

 **********************************************************************

 Alpha  occ. eigenvalues --  -20.53365 -20.52459 -20.48228  -1.31661  -1.30763
 Alpha  occ. eigenvalues --   -1.26571  -0.67931  -0.66837  -0.63168  -0.54942
 Alpha  occ. eigenvalues --   -0.54503  -0.49558  -0.47667  -0.47030  -0.42347
 Alpha virt. eigenvalues --    0.25635   0.28933   0.31002   0.37785   0.39938
 Alpha virt. eigenvalues --    0.42619   1.02164   1.05259   1.07264   1.12364
 Alpha virt. eigenvalues --    1.14240   1.17489   1.17998   1.19770   1.21814
 Alpha virt. eigenvalues --    1.24206   1.25838   1.29880   1.32606   1.35988
 Alpha virt. eigenvalues --    1.39719   1.62154   1.63935   1.76989   1.83045
 Alpha virt. eigenvalues --    1.83868   1.85392   1.86009   1.87792   1.90536
 Alpha virt. eigenvalues --    1.95444   1.99898   2.01905   2.61155   2.61517
 Alpha virt. eigenvalues --    2.62626   2.62897   2.65747   2.69181   2.83784
 Alpha virt. eigenvalues --    2.85355   2.88710   3.01027   3.01916   3.02746
 Alpha virt. eigenvalues --    3.03493   3.05398   3.06893   3.41682   3.42191
 Alpha virt. eigenvalues --    3.45997   3.78496   3.80615   3.84579   3.95368
 Alpha virt. eigenvalues --    3.98351   4.02904
          Condensed to atoms (all electrons):
               1          2          3          4          5          6
     1  O    8.125133  -0.000079  -0.003021   0.316639   0.311239   0.000003
     2  O   -0.000079   8.168393   0.000000  -0.000012   0.001626   0.315091
     3  O   -0.003021   0.000000   8.093838   0.000225   0.000151   0.000000
     4  H    0.316639  -0.000012   0.000225   0.311814  -0.020543   0.000000
     5  H    0.311239   0.001626   0.000151  -0.020543   0.323054  -0.000034
     6  H    0.000003   0.315091   0.000000   0.000000  -0.000034   0.292493
     7  H    0.000015   0.317073   0.000000   0.000000  -0.000069  -0.019899
     8  H    0.000062   0.000000   0.309235  -0.000003  -0.000001  -0.000000
     9  H    0.013978  -0.000000   0.308927  -0.000809  -0.000590   0.000000
               7          8          9
     1  O    0.000015   0.000062   0.013978
     2  O    0.317073   0.000000  -0.000000
     3  O    0.000000   0.309235   0.308927
     4  H    0.000000  -0.000003  -0.000809
     5  H   -0.000069  -0.000001  -0.000590
     6  H   -0.019899  -0.000000   0.000000
     7  H    0.311182  -0.000000   0.000000
     8  H   -0.000000   0.386197  -0.025397
     9  H    0.000000  -0.025397   0.340287
 Mulliken charges:
               1
     1  O   -0.763967
     2  O   -0.802091
     3  O   -0.709355
     4  H    0.392689
     5  H    0.385168
     6  H    0.412345
     7  H    0.391698
     8  H    0.329908
     9  H    0.363604
 Sum of Mulliken charges =  -0.00000
 Mulliken charges with hydrogens summed into heavy atoms:
               1
     1  O    0.013891
     2  O    0.001952
     3  O   -0.015843
 Electronic spatial extent (au):  <R**2>=          31404.2830
 Charge=             -0.0000 electrons
 Dipole moment (field-independent basis, Debye):
    X=              0.5635    Y=             -0.5820    Z=              2.1068  Tot=              2.2571
 Quadrupole moment (field-independent basis, Debye-Ang):
   XX=            -13.4013   YY=             -6.2646   ZZ=            -60.2969
   XY=             -7.3657   XZ=              0.9600   YZ=            -14.7210
 Traceless Quadrupole moment (field-independent basis, Debye-Ang):
   XX=             13.2529   YY=             20.3897   ZZ=            -33.6426
   XY=             -7.3657   XZ=              0.9600   YZ=            -14.7210
 Octapole moment (field-independent basis, Debye-Ang**2):
  XXX=           -295.4526  YYY=            418.1112  ZZZ=           1275.0689  XYY=            -26.5942
  XXY=            122.6456  XXZ=            190.4537  XZZ=           -156.2683  YZZ=            518.8544
  YYZ=            310.8195  XYZ=             12.3012
 Hexadecapole moment (field-independent basis, Debye-Ang**3):
 XXXX=          -3868.3385 YYYY=         -11105.7244 ZZZZ=         -23755.6854 XXXY=           2847.6549
 XXXZ=           3711.6138 YYYX=           2805.4728 YYYZ=          -7585.8591 ZZZX=           4325.4520
 ZZZY=         -11391.7052 XXYY=          -1946.8786 XXZZ=          -2959.9526 YYZZ=          -7293.6408
 XXYZ=          -1704.4198 YYXZ=           1124.1981 ZZXY=           1212.1421
 N-N= 5.232208507014D+01 E-N=-6.760171755416D+02  KE= 2.276851398016D+02
 No NMR shielding tensors so no spin-rotation constants.
 Leave Link  601 at Fri May 15 22:36:08 2020, MaxMem=   134217728 cpu:               0.6 elap:               0.2
 (Enter /home/soft/g16/l607.exe)
 ******************************Gaussian NBO Version 3.1******************************
             N A T U R A L   A T O M I C   O R B I T A L   A N D
          N A T U R A L   B O N D   O R B I T A L   A N A L Y S I S
 ******************************Gaussian NBO Version 3.1******************************
       /RESON  / : Allow strongly delocalized NBO set

 Analyzing the SCF density

 Job title: Atom number=9                                                   

 Storage needed:     15894 in NPA ( 134217269 available)
 GSVD:  LWork=        2304 too small for GESVD, short by        3132 words or        3132 for optimal perf.


 NATURAL POPULATIONS:  Natural atomic orbital occupancies 
                                                          
   NAO  Atom  No  lang   Type(AO)    Occupancy      Energy
 ----------------------------------------------------------
     1    O    1  S      Cor( 1S)     1.99986     -20.37118
     2    O    1  S      Val( 2S)     1.75886      -1.13926
     3    O    1  S      Ryd( 3S)     0.00096       1.72681
     4    O    1  px     Val( 2p)     1.98331      -0.46967
     5    O    1  px     Ryd( 3p)     0.00078       1.22032
     6    O    1  py     Val( 2p)     1.74247      -0.39678
     7    O    1  py     Ryd( 3p)     0.00034       1.29331
     8    O    1  pz     Val( 2p)     1.54659      -0.32568
     9    O    1  pz     Ryd( 3p)     0.00172       1.31983
    10    O    1  dxy    Ryd( 3d)     0.00148       2.28367
    11    O    1  dxz    Ryd( 3d)     0.00012       2.33734
    12    O    1  dyz    Ryd( 3d)     0.00172       3.04009
    13    O    1  dx2y2  Ryd( 3d)     0.00187       2.51413
    14    O    1  dz2    Ryd( 3d)     0.00050       2.74302

    15    O    2  S      Cor( 1S)     1.99987     -20.36152
    16    O    2  S      Val( 2S)     1.76064      -1.13374
    17    O    2  S      Ryd( 3S)     0.00090       1.72122
    18    O    2  px     Val( 2p)     1.58817      -0.33110
    19    O    2  px     Ryd( 3p)     0.00166       1.31866
    20    O    2  py     Val( 2p)     1.94554      -0.45159
    21    O    2  py     Ryd( 3p)     0.00086       1.19998
    22    O    2  pz     Val( 2p)     1.75728      -0.39534
    23    O    2  pz     Ryd( 3p)     0.00044       1.23830
    24    O    2  dxy    Ryd( 3d)     0.00026       2.37427
    25    O    2  dxz    Ryd( 3d)     0.00139       2.74034
    26    O    2  dyz    Ryd( 3d)     0.00149       2.45593
    27    O    2  dx2y2  Ryd( 3d)     0.00072       2.73252
    28    O    2  dz2    Ryd( 3d)     0.00173       2.62499

    29    O    3  S      Cor( 1S)     1.99985     -20.31699
    30    O    3  S      Val( 2S)     1.75404      -1.07929
    31    O    3  S      Ryd( 3S)     0.00113       1.83501
    32    O    3  px     Val( 2p)     1.65261      -0.31221
    33    O    3  px     Ryd( 3p)     0.00100       1.32860
    34    O    3  py     Val( 2p)     1.64593      -0.30218
    35    O    3  py     Ryd( 3p)     0.00128       1.32985
    36    O    3  pz     Val( 2p)     1.92409      -0.39574
    37    O    3  pz     Ryd( 3p)     0.00079       1.25570
    38    O    3  dxy    Ryd( 3d)     0.00120       2.54545
    39    O    3  dxz    Ryd( 3d)     0.00113       2.36290
    40    O    3  dyz    Ryd( 3d)     0.00117       2.62616
    41    O    3  dx2y2  Ryd( 3d)     0.00183       3.12788
    42    O    3  dz2    Ryd( 3d)     0.00123       2.52543

    43    H    4  S      Val( 1S)     0.46892       0.41171
    44    H    4  S      Ryd( 2S)     0.00053       0.76653
    45    H    4  px     Ryd( 2p)     0.00074       2.65470
    46    H    4  py     Ryd( 2p)     0.00074       2.80109
    47    H    4  pz     Ryd( 2p)     0.00143       3.33015

    48    H    5  S      Val( 1S)     0.47759       0.40139
    49    H    5  S      Ryd( 2S)     0.00086       0.77646
    50    H    5  px     Ryd( 2p)     0.00084       2.64066
    51    H    5  py     Ryd( 2p)     0.00146       3.16895
    52    H    5  pz     Ryd( 2p)     0.00081       2.97281

    53    H    6  S      Val( 1S)     0.45791       0.44226
    54    H    6  S      Ryd( 2S)     0.00065       0.77841
    55    H    6  px     Ryd( 2p)     0.00172       3.42625
    56    H    6  py     Ryd( 2p)     0.00068       2.65454
    57    H    6  pz     Ryd( 2p)     0.00060       2.73721

    58    H    7  S      Val( 1S)     0.47338       0.41479
    59    H    7  S      Ryd( 2S)     0.00059       0.76931
    60    H    7  px     Ryd( 2p)     0.00066       2.84645
    61    H    7  py     Ryd( 2p)     0.00097       2.74505
    62    H    7  pz     Ryd( 2p)     0.00139       3.19444

    63    H    8  S      Val( 1S)     0.51990       0.38574
    64    H    8  S      Ryd( 2S)     0.00109       0.80080
    65    H    8  px     Ryd( 2p)     0.00063       2.72411
    66    H    8  py     Ryd( 2p)     0.00149       3.31856
    67    H    8  pz     Ryd( 2p)     0.00112       2.80037

    68    H    9  S      Val( 1S)     0.49027       0.43100
    69    H    9  S      Ryd( 2S)     0.00104       0.88293
    70    H    9  px     Ryd( 2p)     0.00162       3.48308
    71    H    9  py     Ryd( 2p)     0.00071       2.76689
    72    H    9  pz     Ryd( 2p)     0.00084       2.68469


 Summary of Natural Population Analysis:                  
                                                          
                                       Natural Population 
                Natural  -----------------------------------------------
    Atom  No    Charge         Core      Valence    Rydberg      Total
 -----------------------------------------------------------------------
      O    1   -1.04057      1.99986     7.03123    0.00948     9.04057
      O    2   -1.06095      1.99987     7.05163    0.00945     9.06095
      O    3   -0.98730      1.99985     6.97668    0.01077     8.98730
      H    4    0.52763      0.00000     0.46892    0.00345     0.47237
      H    5    0.51844      0.00000     0.47759    0.00397     0.48156
      H    6    0.53844      0.00000     0.45791    0.00365     0.46156
      H    7    0.52302      0.00000     0.47338    0.00360     0.47698
      H    8    0.47577      0.00000     0.51990    0.00432     0.52423
      H    9    0.50552      0.00000     0.49027    0.00421     0.49448
 =======================================================================
   * Total *    0.00000      5.99959    23.94752    0.05289    30.00000

                                 Natural Population      
 --------------------------------------------------------
   Core                       5.99959 ( 99.9931% of   6)
   Valence                   23.94752 ( 99.7813% of  24)
   Natural Minimal Basis     29.94711 ( 99.8237% of  30)
   Natural Rydberg Basis      0.05289 (  0.1763% of  30)
 --------------------------------------------------------

    Atom  No          Natural Electron Configuration
 ----------------------------------------------------------------------------
      O    1      [core]2S( 1.76)2p( 5.27)3d( 0.01)
      O    2      [core]2S( 1.76)2p( 5.29)3d( 0.01)
      O    3      [core]2S( 1.75)2p( 5.22)3d( 0.01)
      H    4            1S( 0.47)
      H    5            1S( 0.48)
      H    6            1S( 0.46)
      H    7            1S( 0.47)
      H    8            1S( 0.52)
      H    9            1S( 0.49)


 NBO analysis skipped by request.
 Leave Link  607 at Fri May 15 22:36:08 2020, MaxMem=   134217728 cpu:               0.7 elap:               0.2
 (Enter /home/soft/g16/l9999.exe)

 Test job not archived.
 1\1\GINC-MASTER\SP\RHF\6-31G(d,p)\H6O3\LIWEI01\15-May-2020\0\\#p hf/6-
 31g** 5d 7f pop=npa charge nosymm\\Atom number=9\\0,1\O,0,7.250284,-9.
 859627,-13.103456\O,0,5.570392,-12.760041,-10.733807\O,0,4.641258,-8.1
 38278,-12.671145\H,0,7.12066,-10.221473,-13.980096\H,0,7.341484,-10.62
 6744,-12.538261\H,0,4.642708,-12.827827,-10.507888\H,0,5.983752,-12.40
 517,-9.946767\H,0,4.597809,-7.272042,-12.266198\H,0,5.576498,-8.338407
 ,-12.709967\\Version=ES64L-G16RevA.03\HF=-242.2142432\RMSD=4.160e-09\D
 ipole=0.2216933,-0.2289738,0.828866\Quadrupole=9.8532387,15.1592144,-2
 5.0124531,-5.4762358,0.7137451,-10.9447343\PG=C01 [X(H6O3)]\\@


 TO ERR IS HUMAN - AND TO BLAME IT ON A COMPUTER IS EVEN MORE SO.
 Job cpu time:       0 days  0 hours  0 minutes  5.5 seconds.
 Elapsed time:       0 days  0 hours  0 minutes  1.6 seconds.
 File lengths (MBytes):  RWF=     72 Int=      0 D2E=      0 Chk=      8 Scr=      8
 Normal termination of Gaussian 16 at Fri May 15 22:36:08 2020.
