Atom number=18                                                          
SP        RHF                                                         6-31G(d,p)          
Number of atoms                            I               18
Info1-9                                    I   N=           9
         107         106           0           0           0         111
           1           1           2
Full Title                                 C   N=           2
Atom number=18          
Route                                      C   N=           4
#p hf/6-31g** 5d 7f pop=npa charge nosymm       
Charge                                     I                0
Multiplicity                               I                1
Number of electrons                        I               60
Number of alpha electrons                  I               30
Number of beta electrons                   I               30
Number of basis functions                  I              144
Number of independent functions            I              144
Number of point charges in /Mol/           I                0
Number of translation vectors              I                0
Atomic numbers                             I   N=          18
           8           8           8           8           8           8
           1           1           1           1           1           1
           1           1           1           1           1           1
Nuclear charges                            R   N=          18
  8.00000000E+00  8.00000000E+00  8.00000000E+00  8.00000000E+00  8.00000000E+00
  8.00000000E+00  1.00000000E+00  1.00000000E+00  1.00000000E+00  1.00000000E+00
  1.00000000E+00  1.00000000E+00  1.00000000E+00  1.00000000E+00  1.00000000E+00
  1.00000000E+00  1.00000000E+00  1.00000000E+00
Current cartesian coordinates              R   N=          54
  1.37010511E+01 -1.86319947E+01 -2.47619431E+01  1.90577217E+01 -1.81470343E+01
 -2.58786843E+01  1.59711829E+01 -2.00983315E+01 -2.96421136E+01  1.60474257E+01
 -2.67578000E+01 -2.96895325E+01  2.01732119E+01 -2.25352958E+01 -2.98939423E+01
  1.00906745E+01 -2.11880666E+01 -2.92426009E+01  1.34560972E+01 -1.93157846E+01
 -2.64185526E+01  1.38733941E+01 -2.00816358E+01 -2.36938794E+01  1.85910557E+01
 -1.86665521E+01 -2.75472898E+01  1.75122961E+01 -1.81949823E+01 -2.49399156E+01
  1.53540909E+01 -1.96661077E+01 -3.12865930E+01  1.75030005E+01 -2.10073446E+01
 -2.99570119E+01  1.67126282E+01 -2.84285107E+01 -2.98848829E+01  1.68532352E+01
 -2.61200080E+01 -2.82009707E+01  2.10617025E+01 -2.31675113E+01 -2.84507471E+01
  2.03511466E+01 -2.38337078E+01 -3.11406929E+01  1.11117370E+01 -1.97640295E+01
 -2.96914619E+01  1.03737593E+01 -2.23851288E+01 -3.05688107E+01
Number of symbols in /Mol/                 I                0
Force Field                                I                0
Atom Types                                 C   N=          18
                                                            
                                                            
                                                            
                                    
Int Atom Types                             I   N=          18
           0           0           0           0           0           0
           0           0           0           0           0           0
           0           0           0           0           0           0
MM charges                                 R   N=          18
  0.00000000E+00  0.00000000E+00  0.00000000E+00  0.00000000E+00  0.00000000E+00
  0.00000000E+00  0.00000000E+00  0.00000000E+00  0.00000000E+00  0.00000000E+00
  0.00000000E+00  0.00000000E+00  0.00000000E+00  0.00000000E+00  0.00000000E+00
  0.00000000E+00  0.00000000E+00  0.00000000E+00
Integer atomic weights                     I   N=          18
          16          16          16          16          16          16
           1           1           1           1           1           1
           1           1           1           1           1           1
Real atomic weights                        R   N=          18
  1.59949146E+01  1.59949146E+01  1.59949146E+01  1.59949146E+01  1.59949146E+01
  1.59949146E+01  1.00782504E+00  1.00782504E+00  1.00782504E+00  1.00782504E+00
  1.00782504E+00  1.00782504E+00  1.00782504E+00  1.00782504E+00  1.00782504E+00
  1.00782504E+00  1.00782504E+00  1.00782504E+00
Atom fragment info                         I   N=          18
           0           0           0           0           0           0
           0           0           0           0           0           0
           0           0           0           0           0           0
Atom residue num                           I   N=          18
           0           0           0           0           0           0
           0           0           0           0           0           0
           0           0           0           0           0           0
Nuclear spins                              I   N=          18
           0           0           0           0           0           0
           1           1           1           1           1           1
           1           1           1           1           1           1
Nuclear ZEff                               R   N=          18
 -5.60000000E+00 -5.60000000E+00 -5.60000000E+00 -5.60000000E+00 -5.60000000E+00
 -5.60000000E+00 -1.00000000E+00 -1.00000000E+00 -1.00000000E+00 -1.00000000E+00
 -1.00000000E+00 -1.00000000E+00 -1.00000000E+00 -1.00000000E+00 -1.00000000E+00
 -1.00000000E+00 -1.00000000E+00 -1.00000000E+00
Nuclear ZNuc                               R   N=          18
  8.00000000E+00  8.00000000E+00  8.00000000E+00  8.00000000E+00  8.00000000E+00
  8.00000000E+00  1.00000000E+00  1.00000000E+00  1.00000000E+00  1.00000000E+00
  1.00000000E+00  1.00000000E+00  1.00000000E+00  1.00000000E+00  1.00000000E+00
  1.00000000E+00  1.00000000E+00  1.00000000E+00
Nuclear QMom                               R   N=          18
  0.00000000E+00  0.00000000E+00  0.00000000E+00  0.00000000E+00  0.00000000E+00
  0.00000000E+00  0.00000000E+00  0.00000000E+00  0.00000000E+00  0.00000000E+00
  0.00000000E+00  0.00000000E+00  0.00000000E+00  0.00000000E+00  0.00000000E+00
  0.00000000E+00  0.00000000E+00  0.00000000E+00
Nuclear GFac                               R   N=          18
  0.00000000E+00  0.00000000E+00  0.00000000E+00  0.00000000E+00  0.00000000E+00
  0.00000000E+00  2.79284600E+00  2.79284600E+00  2.79284600E+00  2.79284600E+00
  2.79284600E+00  2.79284600E+00  2.79284600E+00  2.79284600E+00  2.79284600E+00
  2.79284600E+00  2.79284600E+00  2.79284600E+00
MicOpt                                     I   N=          18
          -1          -1          -1          -1          -1          -1
          -1          -1          -1          -1          -1          -1
          -1          -1          -1          -1          -1          -1
Number of residues                         I                0
Number of secondary structures             I                0
Number of contracted shells                I               60
Number of primitive shells                 I              126
Pure/Cartesian d shells                    I                0
Pure/Cartesian f shells                    I                0
Highest angular momentum                   I                2
Largest degree of contraction              I                6
Shell types                                I   N=          60
           0          -1          -1          -2           0          -1
          -1          -2           0          -1          -1          -2
           0          -1          -1          -2           0          -1
          -1          -2           0          -1          -1          -2
           0           0           1           0           0           1
           0           0           1           0           0           1
           0           0           1           0           0           1
           0           0           1           0           0           1
           0           0           1           0           0           1
           0           0           1           0           0           1
Number of primitives per shell             I   N=          60
           6           3           1           1           6           3
           1           1           6           3           1           1
           6           3           1           1           6           3
           1           1           6           3           1           1
           3           1           1           3           1           1
           3           1           1           3           1           1
           3           1           1           3           1           1
           3           1           1           3           1           1
           3           1           1           3           1           1
           3           1           1           3           1           1
Shell to atom map                          I   N=          60
           1           1           1           1           2           2
           2           2           3           3           3           3
           4           4           4           4           5           5
           5           5           6           6           6           6
           7           7           7           8           8           8
           9           9           9          10          10          10
          11          11          11          12          12          12
          13          13          13          14          14          14
          15          15          15          16          16          16
          17          17          17          18          18          18
Primitive exponents                        R   N=         126
  5.48467166E+03  8.25234946E+02  1.88046958E+02  5.29645000E+01  1.68975704E+01
  5.79963534E+00  1.55396162E+01  3.59993359E+00  1.01376175E+00  2.70005823E-01
  8.00000000E-01  5.48467166E+03  8.25234946E+02  1.88046958E+02  5.29645000E+01
  1.68975704E+01  5.79963534E+00  1.55396162E+01  3.59993359E+00  1.01376175E+00
  2.70005823E-01  8.00000000E-01  5.48467166E+03  8.25234946E+02  1.88046958E+02
  5.29645000E+01  1.68975704E+01  5.79963534E+00  1.55396162E+01  3.59993359E+00
  1.01376175E+00  2.70005823E-01  8.00000000E-01  5.48467166E+03  8.25234946E+02
  1.88046958E+02  5.29645000E+01  1.68975704E+01  5.79963534E+00  1.55396162E+01
  3.59993359E+00  1.01376175E+00  2.70005823E-01  8.00000000E-01  5.48467166E+03
  8.25234946E+02  1.88046958E+02  5.29645000E+01  1.68975704E+01  5.79963534E+00
  1.55396162E+01  3.59993359E+00  1.01376175E+00  2.70005823E-01  8.00000000E-01
  5.48467166E+03  8.25234946E+02  1.88046958E+02  5.29645000E+01  1.68975704E+01
  5.79963534E+00  1.55396162E+01  3.59993359E+00  1.01376175E+00  2.70005823E-01
  8.00000000E-01  1.87311370E+01  2.82539436E+00  6.40121692E-01  1.61277759E-01
  1.10000000E+00  1.87311370E+01  2.82539436E+00  6.40121692E-01  1.61277759E-01
  1.10000000E+00  1.87311370E+01  2.82539436E+00  6.40121692E-01  1.61277759E-01
  1.10000000E+00  1.87311370E+01  2.82539436E+00  6.40121692E-01  1.61277759E-01
  1.10000000E+00  1.87311370E+01  2.82539436E+00  6.40121692E-01  1.61277759E-01
  1.10000000E+00  1.87311370E+01  2.82539436E+00  6.40121692E-01  1.61277759E-01
  1.10000000E+00  1.87311370E+01  2.82539436E+00  6.40121692E-01  1.61277759E-01
  1.10000000E+00  1.87311370E+01  2.82539436E+00  6.40121692E-01  1.61277759E-01
  1.10000000E+00  1.87311370E+01  2.82539436E+00  6.40121692E-01  1.61277759E-01
  1.10000000E+00  1.87311370E+01  2.82539436E+00  6.40121692E-01  1.61277759E-01
  1.10000000E+00  1.87311370E+01  2.82539436E+00  6.40121692E-01  1.61277759E-01
  1.10000000E+00  1.87311370E+01  2.82539436E+00  6.40121692E-01  1.61277759E-01
  1.10000000E+00
Contraction coefficients                   R   N=         126
  1.83107443E-03  1.39501722E-02  6.84450781E-02  2.32714336E-01  4.70192898E-01
  3.58520853E-01 -1.10777550E-01 -1.48026263E-01  1.13076702E+00  1.00000000E+00
  1.00000000E+00  1.83107443E-03  1.39501722E-02  6.84450781E-02  2.32714336E-01
  4.70192898E-01  3.58520853E-01 -1.10777550E-01 -1.48026263E-01  1.13076702E+00
  1.00000000E+00  1.00000000E+00  1.83107443E-03  1.39501722E-02  6.84450781E-02
  2.32714336E-01  4.70192898E-01  3.58520853E-01 -1.10777550E-01 -1.48026263E-01
  1.13076702E+00  1.00000000E+00  1.00000000E+00  1.83107443E-03  1.39501722E-02
  6.84450781E-02  2.32714336E-01  4.70192898E-01  3.58520853E-01 -1.10777550E-01
 -1.48026263E-01  1.13076702E+00  1.00000000E+00  1.00000000E+00  1.83107443E-03
  1.39501722E-02  6.84450781E-02  2.32714336E-01  4.70192898E-01  3.58520853E-01
 -1.10777550E-01 -1.48026263E-01  1.13076702E+00  1.00000000E+00  1.00000000E+00
  1.83107443E-03  1.39501722E-02  6.84450781E-02  2.32714336E-01  4.70192898E-01
  3.58520853E-01 -1.10777550E-01 -1.48026263E-01  1.13076702E+00  1.00000000E+00
  1.00000000E+00  3.34946043E-02  2.34726953E-01  8.13757326E-01  1.00000000E+00
  1.00000000E+00  3.34946043E-02  2.34726953E-01  8.13757326E-01  1.00000000E+00
  1.00000000E+00  3.34946043E-02  2.34726953E-01  8.13757326E-01  1.00000000E+00
  1.00000000E+00  3.34946043E-02  2.34726953E-01  8.13757326E-01  1.00000000E+00
  1.00000000E+00  3.34946043E-02  2.34726953E-01  8.13757326E-01  1.00000000E+00
  1.00000000E+00  3.34946043E-02  2.34726953E-01  8.13757326E-01  1.00000000E+00
  1.00000000E+00  3.34946043E-02  2.34726953E-01  8.13757326E-01  1.00000000E+00
  1.00000000E+00  3.34946043E-02  2.34726953E-01  8.13757326E-01  1.00000000E+00
  1.00000000E+00  3.34946043E-02  2.34726953E-01  8.13757326E-01  1.00000000E+00
  1.00000000E+00  3.34946043E-02  2.34726953E-01  8.13757326E-01  1.00000000E+00
  1.00000000E+00  3.34946043E-02  2.34726953E-01  8.13757326E-01  1.00000000E+00
  1.00000000E+00  3.34946043E-02  2.34726953E-01  8.13757326E-01  1.00000000E+00
  1.00000000E+00
P(S=P) Contraction coefficients            R   N=         126
  0.00000000E+00  0.00000000E+00  0.00000000E+00  0.00000000E+00  0.00000000E+00
  0.00000000E+00  7.08742682E-02  3.39752839E-01  7.27158577E-01  1.00000000E+00
  0.00000000E+00  0.00000000E+00  0.00000000E+00  0.00000000E+00  0.00000000E+00
  0.00000000E+00  0.00000000E+00  7.08742682E-02  3.39752839E-01  7.27158577E-01
  1.00000000E+00  0.00000000E+00  0.00000000E+00  0.00000000E+00  0.00000000E+00
  0.00000000E+00  0.00000000E+00  0.00000000E+00  7.08742682E-02  3.39752839E-01
  7.27158577E-01  1.00000000E+00  0.00000000E+00  0.00000000E+00  0.00000000E+00
  0.00000000E+00  0.00000000E+00  0.00000000E+00  0.00000000E+00  7.08742682E-02
  3.39752839E-01  7.27158577E-01  1.00000000E+00  0.00000000E+00  0.00000000E+00
  0.00000000E+00  0.00000000E+00  0.00000000E+00  0.00000000E+00  0.00000000E+00
  7.08742682E-02  3.39752839E-01  7.27158577E-01  1.00000000E+00  0.00000000E+00
  0.00000000E+00  0.00000000E+00  0.00000000E+00  0.00000000E+00  0.00000000E+00
  0.00000000E+00  7.08742682E-02  3.39752839E-01  7.27158577E-01  1.00000000E+00
  0.00000000E+00  0.00000000E+00  0.00000000E+00  0.00000000E+00  0.00000000E+00
  0.00000000E+00  0.00000000E+00  0.00000000E+00  0.00000000E+00  0.00000000E+00
  0.00000000E+00  0.00000000E+00  0.00000000E+00  0.00000000E+00  0.00000000E+00
  0.00000000E+00  0.00000000E+00  0.00000000E+00  0.00000000E+00  0.00000000E+00
  0.00000000E+00  0.00000000E+00  0.00000000E+00  0.00000000E+00  0.00000000E+00
  0.00000000E+00  0.00000000E+00  0.00000000E+00  0.00000000E+00  0.00000000E+00
  0.00000000E+00  0.00000000E+00  0.00000000E+00  0.00000000E+00  0.00000000E+00
  0.00000000E+00  0.00000000E+00  0.00000000E+00  0.00000000E+00  0.00000000E+00
  0.00000000E+00  0.00000000E+00  0.00000000E+00  0.00000000E+00  0.00000000E+00
  0.00000000E+00  0.00000000E+00  0.00000000E+00  0.00000000E+00  0.00000000E+00
  0.00000000E+00  0.00000000E+00  0.00000000E+00  0.00000000E+00  0.00000000E+00
  0.00000000E+00  0.00000000E+00  0.00000000E+00  0.00000000E+00  0.00000000E+00
  0.00000000E+00
Coordinates of each shell                  R   N=         180
  1.37010511E+01 -1.86319947E+01 -2.47619431E+01  1.37010511E+01 -1.86319947E+01
 -2.47619431E+01  1.37010511E+01 -1.86319947E+01 -2.47619431E+01  1.37010511E+01
 -1.86319947E+01 -2.47619431E+01  1.90577217E+01 -1.81470343E+01 -2.58786843E+01
  1.90577217E+01 -1.81470343E+01 -2.58786843E+01  1.90577217E+01 -1.81470343E+01
 -2.58786843E+01  1.90577217E+01 -1.81470343E+01 -2.58786843E+01  1.59711829E+01
 -2.00983315E+01 -2.96421136E+01  1.59711829E+01 -2.00983315E+01 -2.96421136E+01
  1.59711829E+01 -2.00983315E+01 -2.96421136E+01  1.59711829E+01 -2.00983315E+01
 -2.96421136E+01  1.60474257E+01 -2.67578000E+01 -2.96895325E+01  1.60474257E+01
 -2.67578000E+01 -2.96895325E+01  1.60474257E+01 -2.67578000E+01 -2.96895325E+01
  1.60474257E+01 -2.67578000E+01 -2.96895325E+01  2.01732119E+01 -2.25352958E+01
 -2.98939423E+01  2.01732119E+01 -2.25352958E+01 -2.98939423E+01  2.01732119E+01
 -2.25352958E+01 -2.98939423E+01  2.01732119E+01 -2.25352958E+01 -2.98939423E+01
  1.00906745E+01 -2.11880666E+01 -2.92426009E+01  1.00906745E+01 -2.11880666E+01
 -2.92426009E+01  1.00906745E+01 -2.11880666E+01 -2.92426009E+01  1.00906745E+01
 -2.11880666E+01 -2.92426009E+01  1.34560972E+01 -1.93157846E+01 -2.64185526E+01
  1.34560972E+01 -1.93157846E+01 -2.64185526E+01  1.34560972E+01 -1.93157846E+01
 -2.64185526E+01  1.38733941E+01 -2.00816358E+01 -2.36938794E+01  1.38733941E+01
 -2.00816358E+01 -2.36938794E+01  1.38733941E+01 -2.00816358E+01 -2.36938794E+01
  1.85910557E+01 -1.86665521E+01 -2.75472898E+01  1.85910557E+01 -1.86665521E+01
 -2.75472898E+01  1.85910557E+01 -1.86665521E+01 -2.75472898E+01  1.75122961E+01
 -1.81949823E+01 -2.49399156E+01  1.75122961E+01 -1.81949823E+01 -2.49399156E+01
  1.75122961E+01 -1.81949823E+01 -2.49399156E+01  1.53540909E+01 -1.96661077E+01
 -3.12865930E+01  1.53540909E+01 -1.96661077E+01 -3.12865930E+01  1.53540909E+01
 -1.96661077E+01 -3.12865930E+01  1.75030005E+01 -2.10073446E+01 -2.99570119E+01
  1.75030005E+01 -2.10073446E+01 -2.99570119E+01  1.75030005E+01 -2.10073446E+01
 -2.99570119E+01  1.67126282E+01 -2.84285107E+01 -2.98848829E+01  1.67126282E+01
 -2.84285107E+01 -2.98848829E+01  1.67126282E+01 -2.84285107E+01 -2.98848829E+01
  1.68532352E+01 -2.61200080E+01 -2.82009707E+01  1.68532352E+01 -2.61200080E+01
 -2.82009707E+01  1.68532352E+01 -2.61200080E+01 -2.82009707E+01  2.10617025E+01
 -2.31675113E+01 -2.84507471E+01  2.10617025E+01 -2.31675113E+01 -2.84507471E+01
  2.10617025E+01 -2.31675113E+01 -2.84507471E+01  2.03511466E+01 -2.38337078E+01
 -3.11406929E+01  2.03511466E+01 -2.38337078E+01 -3.11406929E+01  2.03511466E+01
 -2.38337078E+01 -3.11406929E+01  1.11117370E+01 -1.97640295E+01 -2.96914619E+01
  1.11117370E+01 -1.97640295E+01 -2.96914619E+01  1.11117370E+01 -1.97640295E+01
 -2.96914619E+01  1.03737593E+01 -2.23851288E+01 -3.05688107E+01  1.03737593E+01
 -2.23851288E+01 -3.05688107E+01  1.03737593E+01 -2.23851288E+01 -3.05688107E+01
Num ILSW                                   I              100
ILSW                                       I   N=         100
           0           0           0           0           2           0
           0           0           0           0           0          -1
           5           0           0           0           0           0
           0           0           0           0           0           0
           1           1           0           0           0           0
           0           0      100000           0          -1           0
           0           0           0           0           0           0
           0           0           0           1           0           0
           0 -2000000000           1           0           0           0
           0           0           4          52           0           0
           0           1           0           0           0           0
           0           0           0          18           0           1
           0           0           0           0           0           0
           0           0           0           0           0           0
           0           0           0           0           0           0
           0           0           0           0           0           0
           0           0           0           0
Num RLSW                                   I               52
RLSW                                       R   N=          52
  1.00000000E+00  1.00000000E+00  1.00000000E+00  1.00000000E+00  1.00000000E+00
  0.00000000E+00  0.00000000E+00  1.00000000E+00  0.00000000E+00  0.00000000E+00
  0.00000000E+00  0.00000000E+00  1.00000000E+00  0.00000000E+00  0.00000000E+00
  0.00000000E+00  0.00000000E+00  1.00000000E+00  0.00000000E+00  0.00000000E+00
  0.00000000E+00  0.00000000E+00  1.00000000E+00  0.00000000E+00  0.00000000E+00
  0.00000000E+00  0.00000000E+00  1.00000000E+00  0.00000000E+00  0.00000000E+00
  0.00000000E+00  0.00000000E+00  1.00000000E+00  0.00000000E+00  0.00000000E+00
  0.00000000E+00  0.00000000E+00  0.00000000E+00  1.00000000E+00  1.00000000E+00
  0.00000000E+00  1.00000000E+00  0.00000000E+00  0.00000000E+00  0.00000000E+00
  0.00000000E+00  0.00000000E+00  0.00000000E+00  0.00000000E+00  0.00000000E+00
  0.00000000E+00  0.00000000E+00
MxBond                                     I                2
NBond                                      I   N=          18
           2           2           2           2           2           2
           1           1           1           1           1           1
           1           1           1           1           1           1
IBond                                      I   N=          36
           7           8           9          10          11          12
          13          14          15          16          17          18
           1           0           1           0           2           0
           2           0           3           0           3           0
           4           0           4           0           5           0
           5           0           6           0           6           0
RBond                                      R   N=          36
  1.00000000E+00  1.00000000E+00  1.00000000E+00  1.00000000E+00  1.00000000E+00
  1.00000000E+00  1.00000000E+00  1.00000000E+00  1.00000000E+00  1.00000000E+00
  1.00000000E+00  1.00000000E+00  1.00000000E+00  0.00000000E+00  1.00000000E+00
  0.00000000E+00  1.00000000E+00  0.00000000E+00  1.00000000E+00  0.00000000E+00
  1.00000000E+00  0.00000000E+00  1.00000000E+00  0.00000000E+00  1.00000000E+00
  0.00000000E+00  1.00000000E+00  0.00000000E+00  1.00000000E+00  0.00000000E+00
  1.00000000E+00  0.00000000E+00  1.00000000E+00  0.00000000E+00  1.00000000E+00
  0.00000000E+00
Virial Ratio                               R      2.029219627956489E+00
SCF Energy                                 R     -4.688476299826870E+02
Total Energy                               R     -4.688476299826870E+02
RMS Density                                R      7.644001943920860E-09
Job Status                                 I                1
Nuclear derivative order                   I                0
External E-field                           R   N=          35
  0.00000000E+00  0.00000000E+00  0.00000000E+00  0.00000000E+00  0.00000000E+00
  0.00000000E+00  0.00000000E+00  0.00000000E+00  0.00000000E+00  0.00000000E+00
  0.00000000E+00  0.00000000E+00  0.00000000E+00  0.00000000E+00  0.00000000E+00
  0.00000000E+00  0.00000000E+00  0.00000000E+00  0.00000000E+00  0.00000000E+00
  0.00000000E+00  0.00000000E+00  0.00000000E+00  0.00000000E+00  0.00000000E+00
  0.00000000E+00  0.00000000E+00  0.00000000E+00  0.00000000E+00  0.00000000E+00
  0.00000000E+00  0.00000000E+00  0.00000000E+00  0.00000000E+00  0.00000000E+00
IOpCl                                      I                0
IROHF                                      I                0
Alpha Orbital Energies                     R   N=         144
 -2.05913215E+01 -2.05425761E+01 -2.05396932E+01 -2.05292362E+01 -2.05289037E+01
 -2.05030591E+01 -1.38042009E+00 -1.33268042E+00 -1.32392089E+00 -1.31429794E+00
 -1.31060746E+00 -1.28860169E+00 -7.37836142E-01 -7.25631085E-01 -6.92226851E-01
 -6.76027576E-01 -6.74134521E-01 -6.54803499E-01 -6.11858183E-01 -5.66176751E-01
 -5.57185954E-01 -5.51930414E-01 -5.41594552E-01 -5.32442639E-01 -5.23235769E-01
 -4.84299190E-01 -4.74932629E-01 -4.66804441E-01 -4.63580372E-01 -4.50026412E-01
  1.81303757E-01  2.14653019E-01  2.69796875E-01  2.82605876E-01  2.93252256E-01
  2.95891313E-01  3.37904587E-01  3.60492986E-01  3.82722542E-01  4.31672368E-01
  4.57098423E-01  5.08194885E-01  9.49196229E-01  9.70452123E-01  1.02383613E+00
  1.02873205E+00  1.04880040E+00  1.05429935E+00  1.07269758E+00  1.08611617E+00
  1.10180757E+00  1.10808216E+00  1.12679613E+00  1.13605945E+00  1.15524565E+00
  1.16250582E+00  1.17495869E+00  1.19848823E+00  1.22194614E+00  1.24021977E+00
  1.25655912E+00  1.27553946E+00  1.29779234E+00  1.31235724E+00  1.32826029E+00
  1.34140006E+00  1.34577063E+00  1.36930668E+00  1.38954487E+00  1.42262528E+00
  1.44032714E+00  1.52611408E+00  1.61264498E+00  1.63317868E+00  1.64329188E+00
  1.69865790E+00  1.74457903E+00  1.77551309E+00  1.79649572E+00  1.80370686E+00
  1.82268417E+00  1.83506053E+00  1.84833718E+00  1.85610318E+00  1.86455739E+00
  1.86512120E+00  1.88437975E+00  1.90263101E+00  1.94079345E+00  1.94310702E+00
  1.95297771E+00  1.95513815E+00  1.97166291E+00  2.01496257E+00  2.06639876E+00
  2.08589688E+00  2.52097578E+00  2.56475924E+00  2.59275561E+00  2.60589288E+00
  2.61033088E+00  2.61164896E+00  2.62053126E+00  2.62407429E+00  2.64304483E+00
  2.68361433E+00  2.69381572E+00  2.75401705E+00  2.79145819E+00  2.84286332E+00
  2.84935851E+00  2.85801865E+00  2.87717221E+00  2.91689376E+00  2.95156211E+00
  2.98414334E+00  2.99646204E+00  3.00678397E+00  3.01272834E+00  3.02687295E+00
  3.02944014E+00  3.04727387E+00  3.05432461E+00  3.06089842E+00  3.08104228E+00
  3.16899132E+00  3.36061587E+00  3.39508425E+00  3.41110688E+00  3.41532938E+00
  3.42439429E+00  3.51047685E+00  3.74016566E+00  3.77595784E+00  3.79122773E+00
  3.80720768E+00  3.85275799E+00  3.86955577E+00  3.90991733E+00  3.95280341E+00
  3.96778478E+00  4.04682452E+00  4.06033007E+00  4.15137985E+00
Alpha MO coefficients                      R   N=       20736
 -2.15550850E-05 -4.71428825E-05  5.42489481E-06 -2.39718988E-06  2.28374456E-06
  1.93643390E-04 -2.03528886E-05 -2.60157894E-05 -9.51332449E-05  1.66339739E-05
  3.98103862E-06  1.02948936E-05 -3.00331458E-06  2.28914786E-06  4.05504642E-06
  3.11188299E-05  3.11942290E-06 -7.89428872E-06  6.54586511E-06 -8.70213972E-05
  1.64569659E-05  6.20165792E-05  7.04695609E-05 -1.61230802E-05 -1.65930496E-05
 -2.13746767E-05  3.67579140E-06 -8.99553308E-06  1.24107365E-04  4.22171253E-04
  8.39088391E-05 -6.16052348E-05 -2.31509305E-05 -1.61370944E-03 -7.96792439E-04
  5.09927348E-04  1.51615716E-04  3.71653871E-05 -1.25747689E-06  2.51753839E-06
 -4.32937244E-05  1.01465544E-04 -3.86871100E-06  3.81483234E-05 -7.81094965E-06
  1.51529604E-05 -9.26153238E-06 -7.76805970E-05 -9.97199151E-06 -1.34808074E-04
 -2.56834953E-05 -7.19892923E-06 -3.85027591E-06 -2.58022659E-06 -2.19309952E-06
 -2.23143610E-05  9.95699519E-01  2.23370741E-02  7.12400436E-04 -1.64930252E-03
  1.83202468E-04 -6.49125738E-03  5.03858112E-04  2.02198258E-04  5.26630891E-05
  3.58375590E-04  2.56334430E-04  1.24536695E-04 -1.91229660E-04 -8.69235317E-05
  2.01412650E-06  6.77566326E-06 -3.72836798E-06  5.00112905E-07 -5.46566358E-06
 -5.64955500E-05 -5.50282947E-07 -8.48976791E-06  3.48281518E-05 -2.69464353E-07
  6.26266996E-06 -1.26417716E-06  4.42703749E-06  1.62900739E-06 -7.48887125E-06
 -2.64274985E-04 -1.73962522E-05 -1.53186529E-05 -2.04766498E-05 -1.04536384E-05
  3.65075378E-05  2.34998841E-06  1.40642575E-07  7.51039411E-07 -1.64428818E-05
 -1.21115483E-05 -1.33653168E-06  3.28346902E-05  6.46859745E-05  2.13304371E-05
 -3.67829421E-05 -8.25025632E-06 -6.92832674E-06 -4.21242564E-06  1.80037805E-04
 -4.50716847E-04  9.95388865E-06 -9.82179583E-06 -6.76805932E-06  2.70220480E-04
  2.47387109E-03  9.82427657E-05 -8.06436851E-05  7.66202648E-05 -1.16199772E-05
 -1.09218868E-04  7.07899671E-06 -1.92607827E-05 -5.03832617E-06 -4.90602707E-06
  1.06631843E-04 -1.96711964E-05 -8.09947081E-06 -2.65978027E-05 -6.58395987E-04
  9.52879381E-04  5.56557839E-04 -4.38363784E-04  9.89615666E-04 -5.05262886E-04
  1.00676173E-03  5.85560723E-05 -8.49100030E-04 -8.20539100E-04 -1.02072252E-05
  9.34000578E-05 -3.99348502E-06 -7.22695977E-06  8.64220422E-07  1.25308623E-05
  7.56360239E-06 -1.59339314E-06  5.40568888E-06  2.63702028E-06  8.41017249E-05
  7.83806928E-05 -7.15500370E-06  1.24995813E-05 -1.59205467E-06 -3.12273209E-04
  5.93128345E-05  2.87014394E-05  2.37479678E-04 -4.68628962E-05 -1.69242393E-05
 -5.39117313E-05  2.28573481E-06 -8.49566997E-06 -5.48253937E-06 -6.08733578E-06
  7.63033038E-07  6.17425413E-08  7.68942173E-07  1.86277097E-05 -8.27895124E-06
  5.23472367E-07  7.91985451E-06 -7.28935228E-07 -2.96965582E-06 -1.31513274E-07
  1.29204804E-06 -1.17218876E-07 -1.06433668E-04  1.46248677E-05 -3.52550174E-05
  1.04908910E-05  1.93292513E-05  1.13588778E-04  1.81604338E-04 -4.44025694E-05
 -1.61535412E-04  5.01114194E-06  3.80918681E-06  2.43705713E-06 -1.29254045E-05
 -1.97146644E-05  5.45833031E-06 -1.04144544E-06 -5.99361284E-06  3.06510018E-06
 -1.31182170E-06  2.42628097E-05  2.50755228E-05 -2.26076306E-05  6.61110482E-06
 -2.61138801E-06  1.56376826E-06  5.33009784E-07 -3.96292653E-06 -3.94117711E-06
 -1.10540173E-06  1.27040030E-06 -1.22923657E-06  1.56155071E-06  8.36332918E-07
  1.05521374E-06  1.86733088E-06 -6.14386689E-06 -6.33214630E-06  9.03908013E-07