#INFO: **** input file is /home/liwei01/wsr/dftpart/test_2body/w32/gfea_c8.py ****
from dftpart import gfea3
from pyscf import lib

par = 8
with lib.with_omp_threads(par):
    fr0 = gfea3.GFEA()
    fr0.inputstyle = 'frg'
    fr0.method = ['hf', '6-31gss','charge']
    fr0.gjfname = 'w32'
    fr0.output = 'w32'
    fr0.verbose = 9
    fr0.showinter = True
    #fr0.do_deriv = True
    fr0.kernel()

#INFO: ******************** input file end ********************


System: uname_result(system='Linux', node='master', release='3.10.0-693.el7.x86_64', version='#1 SMP Tue Aug 22 21:09:27 UTC 2017', machine='x86_64', processor='x86_64')  Threads 8
Python 3.7.6 (default, Jan  8 2020, 19:59:22) 
[GCC 7.3.0]
numpy 1.18.1  scipy 1.4.1
Date: Tue Jun 16 20:57:50 2020
PySCF version 1.6.1
PySCF path  /home/liwei01/zcheng/pyscf/pyscf
GIT HEAD      ref: refs/heads/master
GIT master branch  3adc7fd25839fe674469a52b764c3661e32d7318

[CONFIG] DEBUG = False
[CONFIG] MAX_MEMORY = 4000
[CONFIG] TMPDIR = .
[CONFIG] UNIT = angstrom
[CONFIG] VERBOSE = 3
[CONFIG] conf_file = None
[INPUT] verbose = 9
[INPUT] max_memory = 4000 
[INPUT] num. atoms = 12
[INPUT] num. electrons = 40
[INPUT] charge = 0
[INPUT] spin (= nelec alpha-beta = 2S) = 0
[INPUT] symmetry False subgroup None
[INPUT] Mole.unit = angstrom
[INPUT]  1 O     10.706017000000 -10.848862000000 -10.091512000000 AA   20.231440014938 -20.501377943201 -19.070193862762 Bohr
[INPUT]  2 O      9.473772000000  -7.997188000000 -10.918041000000 AA   17.902834446573 -15.112495086658 -20.632107306772 Bohr
[INPUT]  3 O      8.801253000000 -12.425877000000  -6.497294000000 AA   16.631957723007 -23.481504387532 -12.278106210780 Bohr
[INPUT]  4 O     10.552310000000  -9.060178000000  -7.765728000000 AA   19.940975881509 -17.121255059810 -14.675099077866 Bohr
[INPUT]  5 H     11.521407000000 -11.320280000000  -9.920812000000 AA   21.772303799647 -21.392228853391 -18.747617613299 Bohr
[INPUT]  6 H     10.567797000000 -10.316883000000  -9.307849000000 AA   19.970242070000 -19.496083329181 -17.589285418807 Bohr
[INPUT]  7 H      9.997520000000  -8.795627000000 -10.851588000000 AA   18.892574724862 -16.621326123830 -20.506529336617 Bohr
[INPUT]  8 H      9.623390000000  -7.542356000000 -10.089201000000 AA   18.185571489878 -14.252987173970 -19.065826705688 Bohr
[INPUT]  9 H      9.055634000000 -11.748983000000  -5.870127000000 AA   17.112668144300 -22.202360112171 -11.092932346415 Bohr
[INPUT] 10 H      8.939496000000 -13.249901000000  -6.030278000000 AA   16.893199131645 -25.038684067601 -11.395573874990 Bohr
[INPUT] 11 H     10.029560000000  -9.452633000000  -7.066484000000 AA   18.953121549893 -17.862887526026 -13.353719423621 Bohr
[INPUT] 12 H     10.057649000000  -8.283933000000  -8.028378000000 AA   19.006202067006 -15.654364604247 -15.171435644483 Bohr
[INPUT] ---------------- BASIS SET ---------------- 
[INPUT] l, kappa, [nprim/nctr], expnt,             c_1 c_2 ...
[INPUT] H
[INPUT] 0    0    [3    /1   ]  18.731137         0.0334946
                                2.8253937         0.23472695
                                0.6401217         0.81375733
[INPUT] 0    0    [1    /1   ]  0.1612778            1
[INPUT] 1    0    [1    /1   ]  1.1                  1
[INPUT] O
[INPUT] 0    0    [6    /1   ]  5484.6717         0.0018311
                                825.23495         0.0139501
                                188.04696         0.0684451
                                52.9645           0.2327143
                                16.89757          0.470193
                                5.7996353         0.3585209
[INPUT] 0    0    [3    /1   ]  15.539616         -0.1107775
                                3.5999336         -0.1480263
                                1.0137618         1.130767
[INPUT] 0    0    [1    /1   ]  0.2700058            1
[INPUT] 1    0    [3    /1   ]  15.539616         0.0708743
                                3.5999336         0.3397528
                                1.0137618         0.7271586
[INPUT] 1    0    [1    /1   ]  0.2700058            1
[INPUT] 2    0    [1    /1   ]  0.8                  1

nuclear repulsion = 120.99452318866
number of shells = 48
number of NR pGTOs = 164
number of NR cGTOs = 96
basis = 6-31gss
ecp = {}
bas 0, expnt(s) = [5484.6717     825.23495    188.04696     52.9645      16.89757
    5.7996353]
bas 1, expnt(s) = [15.539616   3.5999336  1.0137618]
bas 2, expnt(s) = [0.2700058]
bas 3, expnt(s) = [15.539616   3.5999336  1.0137618]
bas 4, expnt(s) = [0.2700058]
bas 5, expnt(s) = [0.8]
bas 6, expnt(s) = [5484.6717     825.23495    188.04696     52.9645      16.89757
    5.7996353]
bas 7, expnt(s) = [15.539616   3.5999336  1.0137618]
bas 8, expnt(s) = [0.2700058]
bas 9, expnt(s) = [15.539616   3.5999336  1.0137618]
bas 10, expnt(s) = [0.2700058]
bas 11, expnt(s) = [0.8]
bas 12, expnt(s) = [5484.6717     825.23495    188.04696     52.9645      16.89757
    5.7996353]
bas 13, expnt(s) = [15.539616   3.5999336  1.0137618]
bas 14, expnt(s) = [0.2700058]
bas 15, expnt(s) = [15.539616   3.5999336  1.0137618]
bas 16, expnt(s) = [0.2700058]
bas 17, expnt(s) = [0.8]
bas 18, expnt(s) = [5484.6717     825.23495    188.04696     52.9645      16.89757
    5.7996353]
bas 19, expnt(s) = [15.539616   3.5999336  1.0137618]
bas 20, expnt(s) = [0.2700058]
bas 21, expnt(s) = [15.539616   3.5999336  1.0137618]
bas 22, expnt(s) = [0.2700058]
bas 23, expnt(s) = [0.8]
bas 24, expnt(s) = [18.731137   2.8253937  0.6401217]
bas 25, expnt(s) = [0.1612778]
bas 26, expnt(s) = [1.1]
bas 27, expnt(s) = [18.731137   2.8253937  0.6401217]
bas 28, expnt(s) = [0.1612778]
bas 29, expnt(s) = [1.1]
bas 30, expnt(s) = [18.731137   2.8253937  0.6401217]
bas 31, expnt(s) = [0.1612778]
bas 32, expnt(s) = [1.1]
bas 33, expnt(s) = [18.731137   2.8253937  0.6401217]
bas 34, expnt(s) = [0.1612778]
bas 35, expnt(s) = [1.1]
bas 36, expnt(s) = [18.731137   2.8253937  0.6401217]
bas 37, expnt(s) = [0.1612778]
bas 38, expnt(s) = [1.1]
bas 39, expnt(s) = [18.731137   2.8253937  0.6401217]
bas 40, expnt(s) = [0.1612778]
bas 41, expnt(s) = [1.1]
bas 42, expnt(s) = [18.731137   2.8253937  0.6401217]
bas 43, expnt(s) = [0.1612778]
bas 44, expnt(s) = [1.1]
bas 45, expnt(s) = [18.731137   2.8253937  0.6401217]
bas 46, expnt(s) = [0.1612778]
bas 47, expnt(s) = [1.1]
CPU time:       718.16
arg.atm = [[ 8 20  1 23  0  0]
 [ 8 24  1 27  0  0]
 [ 8 28  1 31  0  0]
 [ 8 32  1 35  0  0]
 [ 1 36  1 39  0  0]
 [ 1 40  1 43  0  0]
 [ 1 44  1 47  0  0]
 [ 1 48  1 51  0  0]
 [ 1 52  1 55  0  0]
 [ 1 56  1 59  0  0]
 [ 1 60  1 63  0  0]
 [ 1 64  1 67  0  0]]
arg.bas = [[  0   0   6   1   0  78  84   0]
 [  0   0   3   1   0  90  93   0]
 [  0   0   1   1   0  96  97   0]
 [  0   1   3   1   0  98 101   0]
 [  0   1   1   1   0 104 105   0]
 [  0   2   1   1   0 106 107   0]
 [  1   0   6   1   0  78  84   0]
 [  1   0   3   1   0  90  93   0]
 [  1   0   1   1   0  96  97   0]
 [  1   1   3   1   0  98 101   0]
 [  1   1   1   1   0 104 105   0]
 [  1   2   1   1   0 106 107   0]
 [  2   0   6   1   0  78  84   0]
 [  2   0   3   1   0  90  93   0]
 [  2   0   1   1   0  96  97   0]
 [  2   1   3   1   0  98 101   0]
 [  2   1   1   1   0 104 105   0]
 [  2   2   1   1   0 106 107   0]
 [  3   0   6   1   0  78  84   0]
 [  3   0   3   1   0  90  93   0]
 [  3   0   1   1   0  96  97   0]
 [  3   1   3   1   0  98 101   0]
 [  3   1   1   1   0 104 105   0]
 [  3   2   1   1   0 106 107   0]
 [  4   0   3   1   0  68  71   0]
 [  4   0   1   1   0  74  75   0]
 [  4   1   1   1   0  76  77   0]
 [  5   0   3   1   0  68  71   0]
 [  5   0   1   1   0  74  75   0]
 [  5   1   1   1   0  76  77   0]
 [  6   0   3   1   0  68  71   0]
 [  6   0   1   1   0  74  75   0]
 [  6   1   1   1   0  76  77   0]
 [  7   0   3   1   0  68  71   0]
 [  7   0   1   1   0  74  75   0]
 [  7   1   1   1   0  76  77   0]
 [  8   0   3   1   0  68  71   0]
 [  8   0   1   1   0  74  75   0]
 [  8   1   1   1   0  76  77   0]
 [  9   0   3   1   0  68  71   0]
 [  9   0   1   1   0  74  75   0]
 [  9   1   1   1   0  76  77   0]
 [ 10   0   3   1   0  68  71   0]
 [ 10   0   1   1   0  74  75   0]
 [ 10   1   1   1   0  76  77   0]
 [ 11   0   3   1   0  68  71   0]
 [ 11   0   1   1   0  74  75   0]
 [ 11   1   1   1   0  76  77   0]]
arg.env = [ 1.37036000e+02  0.00000000e+00  0.00000000e+00  0.00000000e+00
  0.00000000e+00  0.00000000e+00  0.00000000e+00  0.00000000e+00
  0.00000000e+00  0.00000000e+00  0.00000000e+00  0.00000000e+00
  0.00000000e+00  0.00000000e+00  0.00000000e+00  0.00000000e+00
  0.00000000e+00  0.00000000e+00  0.00000000e+00  0.00000000e+00
  2.02314400e+01 -2.05013779e+01 -1.90701939e+01  0.00000000e+00
  1.79028344e+01 -1.51124951e+01 -2.06321073e+01  0.00000000e+00
  1.66319577e+01 -2.34815044e+01 -1.22781062e+01  0.00000000e+00
  1.99409759e+01 -1.71212551e+01 -1.46750991e+01  0.00000000e+00
  2.17723038e+01 -2.13922289e+01 -1.87476176e+01  0.00000000e+00
  1.99702421e+01 -1.94960833e+01 -1.75892854e+01  0.00000000e+00
  1.88925747e+01 -1.66213261e+01 -2.05065293e+01  0.00000000e+00
  1.81855715e+01 -1.42529872e+01 -1.90658267e+01  0.00000000e+00
  1.71126681e+01 -2.22023601e+01 -1.10929323e+01  0.00000000e+00
  1.68931991e+01 -2.50386841e+01 -1.13955739e+01  0.00000000e+00
  1.89531215e+01 -1.78628875e+01 -1.33537194e+01  0.00000000e+00
  1.90062021e+01 -1.56543646e+01 -1.51714356e+01  0.00000000e+00
  1.87311370e+01  2.82539370e+00  6.40121700e-01  7.61926220e-01
  1.29237100e+00  1.47131900e+00  1.61277800e-01  6.42977783e-01
  1.10000000e+00  3.28643653e+00  5.48467170e+03  8.25234950e+02
  1.88046960e+02  5.29645000e+01  1.68975700e+01  5.79963530e+00
  2.94842455e+00  5.42657124e+00  8.78126489e+00  1.15432129e+01
  9.90055015e+00  3.38516599e+00  1.55396160e+01  3.59993360e+00
  1.01376180e+00 -2.19051792e+00 -9.77405528e-01  2.88629094e+00
  2.70005800e-01  9.46334873e-01  1.55396160e+01  3.59993360e+00
  1.01376180e+00  6.37930734e+00  4.91490975e+00  2.15791055e+00
  2.70005800e-01  5.67807022e-01  8.00000000e-01  1.76578110e+00]
ecpbas  = []


******** <class 'pyscf.qmmm.itrf.mm_charge.<locals>.QMMM'> ********
method = QMMM-RHF
initial guess = minao
damping factor = 0
level shift factor = 0
DIIS = <class 'pyscf.scf.diis.CDIIS'>
DIIS start cycle = 1
DIIS space = 8
SCF tol = 1e-09
SCF gradient tol = None
max. SCF cycles = 50
direct_scf = True
direct_scf_tol = 1e-13
chkfile to save SCF result = /home/liwei01/wsr/dftpart/test_2body/w32/tmp2porekl0
max_memory 4000 MB (current use 328 MB)
** Add background charges for <class 'pyscf.scf.hf.RHF'> **
Charge      Location
-1.056075    [ 15.8591958  -22.32322322 -21.16584533]
0.523264    [ 15.44903263 -23.69303655 -20.05800473]
0.517699    [ 17.48403712 -21.75849557 -20.60647128]
-1.009926    [ 16.42785407 -26.58707085 -18.04142885]
0.499922    [ 15.53371882 -25.95112132 -16.60336995]
0.507893    [ 16.16245338 -28.37548309 -17.98600129]
-1.024266    [ 13.70105109 -18.63199472 -24.76194313]
0.515186    [ 13.45609723 -19.31578456 -26.41855264]
0.515422    [ 13.87339411 -20.08163576 -23.69387937]
-1.050024    [ 10.52651529 -24.11298283 -20.2839555 ]
0.521386    [  8.7734466  -24.2410798  -19.85703047]
0.506414    [ 11.30765248 -23.44237383 -18.79666545]
-1.032359    [ 13.1641969  -17.47579981 -19.41562257]
0.514165    [ 13.18112696 -18.60438393 -20.82910748]
0.518479    [ 14.52136419 -16.32434621 -19.73837456]
-1.052762    [ 13.11969196 -22.35429031 -15.81898054]
0.521035    [ 14.16458201 -22.84877684 -14.42771692]
0.525545    [ 13.80909996 -20.77345693 -16.36451423]
-1.002885    [ 18.40539199 -27.51482622 -24.72543362]
0.521542    [ 17.83274639 -26.30664305 -23.50711585]
0.49877    [ 20.13069872 -27.06649815 -25.03241585]
-1.054902    [ 19.05772167 -18.14703431 -25.87868434]
0.517977    [ 18.59105569 -18.66655214 -27.54728983]
0.522623    [ 17.51229609 -18.19498233 -24.93991564]
-1.032188    [ 15.97118286 -20.09833149 -29.6421136 ]
0.47982    [ 15.3540909  -19.66610766 -31.28659296]
0.534069    [ 17.50300052 -21.00734455 -29.95701189]
-0.992133    [  7.63287216 -21.21078113 -24.19682809]
0.480184    [  8.55071592 -22.76668147 -24.10379498]
0.504586    [  8.37549106 -20.32880248 -25.59058803]
-1.012936    [ 10.55365553 -29.46492154 -21.67488842]
0.504954    [  8.84108934 -29.00412127 -22.03084479]
0.525721    [ 11.34418277 -27.91794449 -21.17105153]
-0.982261    [ 16.04742575 -26.75780005 -29.6895325 ]
0.479882    [ 16.71262824 -28.42851069 -29.88488293]
0.495008    [ 16.8532352  -26.12000803 -28.20097066]
-0.983713    [ 20.17321188 -22.53529584 -29.89394228]
0.505479    [ 21.06170253 -23.16751127 -28.4507471 ]
0.512532    [ 20.35114661 -23.83370776 -31.14069287]
-1.011239    [ 14.66303696 -31.18986921 -25.03135193]
0.492592    [ 13.80996545 -30.6346091  -23.53606456]
0.497341    [ 16.13314373 -30.14067248 -25.13086491]
-0.999332    [ 25.43111026 -22.24828235 -18.47023794]
0.512801    [ 26.28398524 -20.77981964 -19.09325419]
0.507583    [ 26.7410892  -23.47726762 -18.25698991]
-1.016163    [ 10.56617686 -29.35403808 -16.44102735]
0.483053    [ 11.92280935 -30.36927076 -15.8079521 ]
0.523726    [ 10.34862781 -29.90290525 -18.15080431]
-0.976012    [ 10.09067452 -21.18806662 -29.24260093]
0.486289    [ 11.11173701 -19.76402949 -29.69146191]
0.496485    [ 10.37375928 -22.38512875 -30.56881072]
-0.977833    [ 24.5589393  -27.80514674 -21.18389789]
0.50587    [ 23.21796885 -28.65180829 -20.31390388]
0.463809    [ 25.76766104 -27.42438582 -19.8931866 ]
-0.989717    [  8.77070649 -15.37911655 -23.94499373]
0.487556    [  8.68859978 -13.74216775 -23.17975481]
0.496916    [ 10.53805395 -15.75730555 -24.01835668]
-0.992057    [ 16.93410036 -32.15697813 -17.52810554]
0.50918    [ 16.39069828 -32.53931319 -15.84570882]
0.510293    [ 15.6895513  -32.92540692 -18.59231236]
-0.998393    [ 24.35861321 -18.31258187 -25.98586582]
0.466984    [ 25.48944989 -18.60606579 -24.60492389]
0.51604    [ 22.70911474 -18.4111103  -25.25008395]
-1.010464    [  9.27281806 -14.9477601  -17.25327322]
0.476424    [  7.6789399  -15.16789619 -18.07972415]
0.517552    [ 10.24747455 -16.38576609 -17.75736144]
-0.991473    [  5.5836248  -24.00414405 -18.66237963]
0.501887    [  5.79022289 -25.52045085 -17.69798247]
0.510487    [  5.17491673 -22.73885336 -17.43603619]
-1.029267    [  7.95719829 -25.19119252 -14.2761212 ]
0.497876    [  9.38018663 -24.0850659  -14.1227926 ]
0.519667    [  8.66153702 -26.76190075 -14.83174226]
-1.001943    [ 16.13613705 -11.83176802 -24.46883904]
0.509813    [ 16.78082846 -12.94299123 -23.1954641 ]
0.477312    [ 17.5304658  -11.57071369 -25.59117007]
-1.019724    [ 21.67798379 -29.0173418  -14.20699124]
0.475311    [ 20.53074618 -29.01816194 -15.60548117]
0.514632    [ 22.50198564 -27.40961194 -14.29731259]
-0.9959    [ 24.21450458 -24.60133719 -13.9203349 ]
0.499354    [ 23.58737251 -23.46499007 -12.66043371]
0.511038    [ 23.91476757 -23.75039163 -15.48812918]
-1.001922    [ 21.40011279 -32.14724982 -20.33868764]
0.487648    [ 22.14106118 -33.75675602 -19.97480576]
0.509505    [ 19.73399418 -32.24696878 -19.64152988]
Set gradient conv threshold to 3.16228e-05
Nelec from initial guess = 39.949360606392496
cond(S) = 132.71830595571635
E1 = -657.137934653745  E_coul = 230.20065617524648
init E= -303.437799317785
    CPU time for initialize scf      1.07 sec, wall time      0.13 sec
  HOMO = -0.522971054284541  LUMO = 0.0149323941729422
  mo_energy =
[-2.09005538e+01 -2.08745326e+01 -2.08725624e+01 -2.08452670e+01
 -1.71015591e+00 -1.70721704e+00 -1.67893211e+00 -1.65892922e+00
 -8.39243805e-01 -8.30961057e-01 -8.09576372e-01 -7.96141197e-01
 -6.94549168e-01 -6.77418992e-01 -6.62391488e-01 -6.28413440e-01
 -5.70635183e-01 -5.49997377e-01 -5.48004513e-01 -5.22971054e-01
  1.49323942e-02  5.57127372e-02  1.15150500e-01  1.27732923e-01
  1.76513504e-01  2.09473047e-01  2.54099419e-01  2.84577893e-01
  8.45863265e-01  8.83661481e-01  8.85066545e-01  8.99613962e-01
  9.22123372e-01  9.25768517e-01  9.33092935e-01  9.52858996e-01
  9.75686163e-01  9.81819387e-01  9.99956951e-01  1.01605674e+00
  1.03592041e+00  1.05791246e+00  1.08643719e+00  1.09636868e+00
  1.14032018e+00  1.16114148e+00  1.20322479e+00  1.26213428e+00
  1.40356376e+00  1.44125140e+00  1.51010581e+00  1.59988299e+00
  1.63592560e+00  1.63812397e+00  1.65521143e+00  1.66271605e+00
  1.67474179e+00  1.68536691e+00  1.69719163e+00  1.71650662e+00
  1.72416561e+00  1.75060689e+00  1.80283293e+00  1.88507162e+00
  2.40310632e+00  2.42539246e+00  2.43935887e+00  2.48789626e+00
  2.49604063e+00  2.50606678e+00  2.51310658e+00  2.53167710e+00
  2.64329877e+00  2.65061135e+00  2.68571367e+00  2.70988763e+00
  2.83330783e+00  2.84857310e+00  2.86029778e+00  2.86375441e+00
  2.87734586e+00  2.88345957e+00  2.90038004e+00  2.92117107e+00
  3.24033317e+00  3.26534578e+00  3.26971814e+00  3.29310296e+00
  3.61320642e+00  3.65725752e+00  3.66737553e+00  3.68586841e+00
  3.75545971e+00  3.80935242e+00  3.82944360e+00  3.86401093e+00]
E1 = -667.068594750103  E_coul = 239.55007056043516
cycle= 1 E= -304.019045028955  delta_E= -0.581  |g|= 0.889  |ddm|= 2.36
    CPU time for cycle= 1      0.16 sec, wall time      0.02 sec
diis-norm(errvec)=1.61785
diis-c [-2.61743543  1.        ]
  HOMO = -0.458053130545784  LUMO = 0.0928144565673202
  mo_energy =
[-20.45638309 -20.40794918 -20.35402584 -20.35257172  -1.38673608
  -1.36843442  -1.31343659  -1.30750972  -0.76669547  -0.75009079
  -0.70083121  -0.68436003  -0.6079065   -0.59804775  -0.54803812
  -0.53750329  -0.51440515  -0.51255198  -0.45954569  -0.45805313
   0.09281446   0.13622111   0.19935131   0.23196547   0.26181516
   0.30750162   0.36104521   0.40534006   0.89577922   0.95359218
   0.98194967   0.99839245   1.0178952    1.03194783   1.08912658
   1.10047829   1.1319913    1.13318462   1.15442157   1.18500337
   1.19774172   1.22173844   1.24109255   1.25401938   1.2803837
   1.29728996   1.36577541   1.43243479   1.53745593   1.57425851
   1.65456521   1.71779125   1.73860385   1.73989123   1.77015329
   1.78453539   1.79781776   1.81855499   1.83232842   1.86669253
   1.88394308   1.92428476   1.97882801   2.01983087   2.46415654
   2.46821809   2.51404822   2.5322174    2.53661267   2.55234585
   2.61231345   2.66305397   2.73462407   2.7553255    2.79730134
   2.84969466   2.89212734   2.89757794   2.90710933   2.91960033
   2.94832402   2.96520896   2.97800876   3.00109571   3.29265022
   3.29884064   3.36141251   3.37423181   3.66444844   3.70506464
   3.7583536    3.77050958   3.8689624    3.88316511   3.97426573
   4.01574035]
E1 = -660.7992728501088  E_coul = 233.16435970803158
cycle= 2 E= -304.135433981364  delta_E= -0.116  |g|= 0.437  |ddm|= 0.704
    CPU time for cycle= 2      0.16 sec, wall time      0.02 sec
diis-norm(errvec)=0.729448
diis-c [-0.11404063  0.2901004   0.7098996 ]
  HOMO = -0.547800325258881  LUMO = 0.0923617226761268
  mo_energy =
[-20.68804148 -20.67682767 -20.63404537 -20.62660452  -1.44793707
  -1.44257617  -1.39648975  -1.3909013   -0.81065303  -0.80429927
  -0.76388343  -0.74946459  -0.68500997  -0.67160277  -0.63014484
  -0.62646959  -0.60237771  -0.58714655  -0.55224716  -0.54780033
   0.09236172   0.13409619   0.1934549    0.21783064   0.25523022
   0.29544331   0.34483473   0.38075654   0.8835908    0.94062682
   0.96211602   0.97585383   0.99884072   1.01381692   1.05502987
   1.05962687   1.06610785   1.0761371    1.08457002   1.11680314
   1.12271965   1.15607603   1.18205632   1.19210055   1.23044858
   1.24325844   1.30703522   1.37169221   1.48982607   1.52792655
   1.60721499   1.67925408   1.70219809   1.71481449   1.72160152
   1.74726253   1.75505352   1.77333034   1.78575438   1.81532072
   1.82894862   1.86879109   1.92206501   1.97066714   2.4779622
   2.48052532   2.48652604   2.48858802   2.5295935    2.54359061
   2.56926209   2.61124862   2.70318781   2.72402454   2.75214551
   2.80632953   2.87840341   2.88069543   2.8911839    2.9198646
   2.93095855   2.94036109   2.9516343    2.97258449   3.27409178
   3.29169256   3.3352321    3.34797166   3.64122897   3.69109176
   3.72687484   3.73707886   3.82005546   3.85243049   3.92113806
   3.96190678]
E1 = -663.6070017150263  E_coul = 235.93904308303038
cycle= 3 E= -304.168479471283  delta_E= -0.033  |g|= 0.0624  |ddm|= 0.28
    CPU time for cycle= 3      0.16 sec, wall time      0.02 sec
diis-norm(errvec)=0.116415
diis-c [-0.00618837 -0.01948245  0.07457408  0.94490837]
  HOMO = -0.538280212790136  LUMO = 0.0993089996466324
  mo_energy =
[-20.65025739 -20.64410761 -20.59853958 -20.59523064  -1.43236385
  -1.42732857  -1.38308031  -1.37823436  -0.79653957  -0.79004765
  -0.75256864  -0.73779147  -0.67373192  -0.66051225  -0.6208344
  -0.61671197  -0.59009785  -0.5760589   -0.54138067  -0.53828021
   0.099309     0.1414984    0.20053104   0.22330144   0.26288291
   0.30203208   0.35237859   0.38769457   0.8939374    0.94984606
   0.97080211   0.98408934   1.01058439   1.02518731   1.06546577
   1.06873633   1.07566704   1.08421126   1.0937407    1.12546495
   1.13083195   1.1627578    1.19217367   1.20287516   1.24123245
   1.25322392   1.31634685   1.38110471   1.5012998    1.53974083
   1.6178973    1.69007928   1.71521995   1.72785185   1.73333194
   1.75841095   1.76608985   1.78351203   1.79629985   1.82715241
   1.83816516   1.87900618   1.93109904   1.98006252   2.49025139
   2.49316434   2.49897444   2.50112983   2.53977192   2.55372866
   2.57914966   2.62111074   2.71697198   2.73767758   2.76371361
   2.81689965   2.88982163   2.89248936   2.90280713   2.93242285
   2.94202636   2.94942884   2.96020263   2.98043671   3.28561682
   3.3038829    3.34472844   3.35642559   3.65719805   3.70696527
   3.74059236   3.74944643   3.83402326   3.8665243    3.9322802
   3.97265253]
E1 = -663.2941447657139  E_coul = 235.6253190652047
cycle= 4 E= -304.169346539796  delta_E= -0.000867  |g|= 0.0102  |ddm|= 0.0373
    CPU time for cycle= 4      0.16 sec, wall time      0.02 sec
diis-norm(errvec)=0.0211033
diis-c [-1.04562194e-04 -9.83199101e-03 -4.16928045e-02 -1.77951270e-01
  1.22947607e+00]
  HOMO = -0.539017988269036  LUMO = 0.0994871305937641
  mo_energy =
[-20.65215886 -20.64551663 -20.60056271 -20.5954419   -1.43317672
  -1.42771311  -1.38381759  -1.3787452   -0.79647237  -0.78966503
  -0.75253693  -0.7379056   -0.67416262  -0.6605992   -0.62102027
  -0.61723823  -0.59149517  -0.57726909  -0.54278699  -0.53901799
   0.09948713   0.14162633   0.20085959   0.22330341   0.26313457
   0.30223929   0.3527955    0.38789869   0.89420913   0.94994639
   0.97081218   0.98405847   1.01052349   1.02513744   1.06508352
   1.0682796    1.07548134   1.08407451   1.09327407   1.12446509
   1.13037812   1.16271816   1.19200115   1.20292279   1.24150814
   1.25288395   1.31638996   1.38098214   1.50096228   1.53935053
   1.61765324   1.69026485   1.71507582   1.72803246   1.73321936
   1.75849682   1.7658742    1.78343919   1.79623121   1.82691639
   1.83798615   1.87868225   1.93099623   1.9799706    2.49067275
   2.49377091   2.49910537   2.50126377   2.53992168   2.55382628
   2.57909226   2.62118566   2.71725978   2.73808874   2.76381089
   2.81710155   2.89010911   2.8931413    2.90306248   2.93309804
   2.94225439   2.9496796    2.96030279   2.98048932   3.28601095
   3.30463723   3.34494207   3.35670902   3.65743586   3.70750259
   3.74063362   3.74965767   3.83435659   3.86718252   3.93258892
   3.97291726]
E1 = -663.3051959959353  E_coul = 235.63632427014954
cycle= 5 E= -304.169392565072  delta_E= -4.6e-05  |g|= 0.00176  |ddm|= 0.0124
    CPU time for cycle= 5      0.16 sec, wall time      0.02 sec
diis-norm(errvec)=0.00328859
diis-c [-5.98731036e-06  2.23903630e-03  7.15435242e-03  1.13775468e-02
 -2.16300826e-01  1.19552989e+00]
  HOMO = -0.539606528149969  LUMO = 0.0994973133782775
  mo_energy =
[-20.65169645 -20.64494521 -20.60016897 -20.59663668  -1.43307477
  -1.42755861  -1.38391408  -1.37905267  -0.79623555  -0.78937207
  -0.7526659   -0.73785588  -0.67412619  -0.6605483   -0.62132784
  -0.61732344  -0.59153343  -0.57738166  -0.54287255  -0.53960653
   0.09949731   0.14165944   0.20089897   0.22316821   0.26316252
   0.30219112   0.3527951    0.38780998   0.89419716   0.94991774
   0.97075454   0.98388062   1.01047579   1.02506982   1.06496268
   1.06822687   1.07526952   1.08401123   1.09323443   1.12436316
   1.13014662   1.16249579   1.19196018   1.20296885   1.24158256
   1.25278615   1.31612182   1.38094723   1.50094772   1.53933707
   1.61762968   1.6901392    1.71508552   1.72807475   1.73323307
   1.7584289    1.76579714   1.78323959   1.79615977   1.82694535
   1.83773672   1.87865208   1.93070975   1.97988748   2.49063401
   2.49374795   2.49910958   2.50127311   2.53983443   2.55374251
   2.57897911   2.62082287   2.7172686    2.73811265   2.76371705
   2.81682829   2.89009656   2.89315425   2.90304149   2.93311713
   2.94228068   2.94943434   2.96011252   2.98028757   3.28598847
   3.30465791   3.34487891   3.35644707   3.65745167   3.70754289
   3.74061125   3.74934179   3.83436924   3.86725468   3.9323846
   3.97270666]
E1 = -663.3031676386245  E_coul = 235.6342944472016
cycle= 6 E= -304.16939403071  delta_E= -1.47e-06  |g|= 0.000683  |ddm|= 0.0026
    CPU time for cycle= 6      0.16 sec, wall time      0.02 sec
diis-norm(errvec)=0.00119607
diis-c [-6.61083314e-07  1.10864748e-03  4.22816505e-03  1.12865362e-02
 -1.17231127e-01  2.71313940e-01  8.29293837e-01]
  HOMO = -0.539434922069884  LUMO = 0.0994898156169574
  mo_energy =
[-20.65186029 -20.64516872 -20.60033246 -20.59595706  -1.43313463
  -1.4276344   -1.38390036  -1.37893387  -0.79625492  -0.7893962
  -0.75256352  -0.73782068  -0.67419806  -0.66060002  -0.62124338
  -0.61736721  -0.5916233   -0.57746891  -0.54296657  -0.53943492
   0.09948982   0.14164879   0.20089924   0.2231869    0.26315859
   0.30219702   0.35281199   0.38782752   0.89417892   0.94989688
   0.9707344    0.98390372   1.01046152   1.02505555   1.06494382
   1.06818676   1.0753052    1.0839934    1.09318477   1.12429993
   1.13017308   1.16253405   1.19195115   1.20294936   1.24156676
   1.2527756    1.31623568   1.38094156   1.50094949   1.5393376
   1.61760605   1.69016189   1.71504774   1.72802849   1.73319097
   1.75842595   1.76577273   1.78327807   1.7961499    1.82690322
   1.83780434   1.87861026   1.9307885    1.97989518   2.49062698
   2.4937397    2.4990695    2.50123455   2.53981677   2.5537255
   2.57896052   2.62092717   2.71723134   2.73807222   2.76369884
   2.8168979    2.89007069   2.89313147   2.90302402   2.93310831
   2.94224505   2.94947965   2.96012603   2.98031949   3.28596735
   3.30463708   3.34484846   3.35650673   3.65742311   3.70751432
   3.74057684   3.74943339   3.83433214   3.86720684   3.93242625
   3.97274293]
E1 = -663.3027147423954  E_coul = 235.63384142460217
cycle= 7 E= -304.16939415708  delta_E= -1.26e-07  |g|= 0.000175  |ddm|= 0.000637
    CPU time for cycle= 7      0.16 sec, wall time      0.02 sec
diis-norm(errvec)=0.000317452
diis-c [-1.62586886e-08 -2.54171764e-04 -7.59073940e-04 -2.28318385e-03
  2.58677448e-02 -1.41392732e-01  5.45731735e-03  1.11336410e+00]
  HOMO = -0.539484246466275  LUMO = 0.0994990425960729
  mo_energy =
[-20.65180101 -20.64508187 -20.60028175 -20.5960517   -1.43311598
  -1.42760268  -1.38390433  -1.37895638  -0.79622658  -0.78935503
  -0.75257036  -0.73781245  -0.67418747  -0.66058274  -0.62126574
  -0.61737054  -0.59161558  -0.57746612  -0.54296873  -0.53948425
   0.09949904   0.14165514   0.20091411   0.22318205   0.2631702
   0.30220343   0.3528196    0.38782998   0.89419805   0.94991126
   0.9707403    0.98390088   1.01047065   1.02506536   1.06494521
   1.06819568   1.07529858   1.08400234   1.09319568   1.12430035
   1.13016475   1.16252709   1.19196012   1.20296976   1.24159203
   1.2527812    1.31622411   1.38094713   1.50095924   1.53934787
   1.61761466   1.69016489   1.71506129   1.72805143   1.73320576
   1.75843456   1.76577373   1.78326905   1.79615562   1.82691752
   1.83779076   1.87861475   1.93077219   1.97989947   2.49063889
   2.49375864   2.49908793   2.50125415   2.53982108   2.55372786
   2.57896157   2.62090699   2.7172521    2.73809529   2.7637039
   2.816887     2.89008316   2.89315322   2.90303644   2.93312888
   2.94224598   2.94947056   2.96012389   2.98031372   3.28598202
   3.30466094   3.344854     3.35649596   3.65744282   3.70754102
   3.74058369   3.74941801   3.83435164   3.86723633   3.93242078
   3.97273919]
E1 = -663.3024453659966  E_coul = 235.6335720368147
cycle= 8 E= -304.169394168469  delta_E= -1.14e-08  |g|= 1.96e-05  |ddm|= 0.000234
    CPU time for cycle= 8      0.16 sec, wall time      0.02 sec
diis-norm(errvec)=3.63049e-05
diis-c [-7.92704339e-10 -2.15668119e-05 -8.05959383e-05 -2.48936747e-04
  2.30086641e-03 -2.42117186e-03 -2.32816478e-02 -3.38126394e-02
  1.05756569e+00]
  HOMO = -0.539482768172606  LUMO = 0.0994995256470699
  mo_energy =
[-20.65179332 -20.64508696 -20.60027662 -20.59604488  -1.43311255
  -1.42760326  -1.38390172  -1.37895403  -0.79622319  -0.78935349
  -0.75256727  -0.73780893  -0.67418546  -0.66058282  -0.62126462
  -0.6173692   -0.5916119   -0.57746714  -0.54296627  -0.53948277
   0.09949953   0.1416564    0.20091452   0.22318208   0.26317096
   0.3022036    0.35282099   0.38783115   0.89419854   0.94991201
   0.97074162   0.98390138   1.01047137   1.02506521   1.06494625
   1.06819736   1.07529887   1.08400276   1.09319718   1.12430154
   1.13016503   1.16252749   1.19196173   1.2029719    1.24159265
   1.25278189   1.31622527   1.38094909   1.50096049   1.53934905
   1.61761575   1.69016556   1.71506308   1.72805165   1.73320759
   1.75843509   1.76577533   1.78327036   1.79615654   1.82691955
   1.83779217   1.87861645   1.93077296   1.97990001   2.4906398
   2.49375943   2.49908921   2.5012553    2.53982224   2.55372937
   2.57896284   2.62090787   2.71725353   2.7380963    2.76370557
   2.81688835   2.89008475   2.89315397   2.90303739   2.93312981
   2.94224926   2.94947068   2.96012385   2.98031487   3.28598346
   3.30466189   3.34485568   3.35649694   3.65744413   3.70754154
   3.74058587   3.74941893   3.83435377   3.86723691   3.93242256
   3.9727406 ]
E1 = -663.3024320996934  E_coul = 235.6335587703229
cycle= 9 E= -304.169394168657  delta_E= -1.89e-10  |g|= 6.49e-06  |ddm|= 3.05e-05
    CPU time for cycle= 9      0.16 sec, wall time      0.02 sec
  HOMO = -0.539482512374614  LUMO = 0.0994994941121802
  mo_energy =
[-20.65179728 -20.64508293 -20.60027856 -20.59604462  -1.43311355
  -1.42760172  -1.38390199  -1.37895404  -0.79622389  -0.78935257
  -0.75256725  -0.73780916  -0.67418676  -0.66058169  -0.62126447
  -0.61736964  -0.59161252  -0.57746569  -0.54296644  -0.53948251
   0.09949949   0.14165611   0.20091444   0.2231821    0.26317078
   0.30220361   0.35282092   0.38783142   0.89419852   0.94991199
   0.97074126   0.98390125   1.01047078   1.02506538   1.06494587
   1.06819676   1.07529903   1.0840033    1.09319671   1.12430137
   1.13016536   1.16252758   1.19196163   1.20297121   1.24159343
   1.25278261   1.31622541   1.38094888   1.5009604    1.53934893
   1.61761583   1.69016616   1.71506241   1.72805239   1.733207
   1.75843573   1.76577504   1.78327038   1.79615686   1.82691888
   1.83779229   1.87861616   1.93077299   1.97990074   2.49063946
   2.49375976   2.49908915   2.50125539   2.53982207   2.55372912
   2.57896261   2.62090801   2.71725325   2.73809657   2.76370531
   2.81688846   2.89008415   2.8931546    2.90303697   2.93313027
   2.94224841   2.94947062   2.9601239    2.98031516   3.28598294
   3.30466243   3.34485531   3.35649702   3.65744362   3.707542
   3.74058531   3.74941889   3.83435291   3.86723773   3.93242241
   3.97274055]
E1 = -663.3024388639583  E_coul = 235.6335655345668
Extra cycle  E= -304.169394168678  delta_E= -2.1e-11  |g|= 3.19e-06  |ddm|= 9.39e-06
    CPU time for scf_cycle      2.66 sec, wall time      0.33 sec
    CPU time for SCF      2.76 sec, wall time      0.35 sec
converged SCF energy = -304.169394168678
