 Entering Gaussian System, Link 0=g16
 Input=w32_68.gjf
 Output=w32_68.log
 Initial command:
 /home/soft/g16/l1.exe "/tmp/liwei01/gaussian/wsr/Gau-8260.inp" -scrdir="/tmp/liwei01/gaussian/wsr/"
 Entering Link 1 = /home/soft/g16/l1.exe PID=      8261.
  
 Copyright (c) 1988,1990,1992,1993,1995,1998,2003,2009,2016,
            Gaussian, Inc.  All Rights Reserved.
  
 This is part of the Gaussian(R) 16 program.  It is based on
 the Gaussian(R) 09 system (copyright 2009, Gaussian, Inc.),
 the Gaussian(R) 03 system (copyright 2003, Gaussian, Inc.),
 the Gaussian(R) 98 system (copyright 1998, Gaussian, Inc.),
 the Gaussian(R) 94 system (copyright 1995, Gaussian, Inc.),
 the Gaussian 92(TM) system (copyright 1992, Gaussian, Inc.),
 the Gaussian 90(TM) system (copyright 1990, Gaussian, Inc.),
 the Gaussian 88(TM) system (copyright 1988, Gaussian, Inc.),
 the Gaussian 86(TM) system (copyright 1986, Carnegie Mellon
 University), and the Gaussian 82(TM) system (copyright 1983,
 Carnegie Mellon University). Gaussian is a federally registered
 trademark of Gaussian, Inc.
  
 This software contains proprietary and confidential information,
 including trade secrets, belonging to Gaussian, Inc.
  
 This software is provided under written license and may be
 used, copied, transmitted, or stored only in accord with that
 written license.
  
 The following legend is applicable only to US Government
 contracts under FAR:
  
                    RESTRICTED RIGHTS LEGEND
  
 Use, reproduction and disclosure by the US Government is
 subject to restrictions as set forth in subparagraphs (a)
 and (c) of the Commercial Computer Software - Restricted
 Rights clause in FAR 52.227-19.
  
 Gaussian, Inc.
 340 Quinnipiac St., Bldg. 40, Wallingford CT 06492
  
  
 ---------------------------------------------------------------
 Warning -- This program may not be used in any manner that
 competes with the business of Gaussian, Inc. or will provide
 assistance to any competitor of Gaussian, Inc.  The licensee
 of this program is prohibited from giving any competitor of
 Gaussian, Inc. access to this program.  By using this program,
 the user acknowledges that Gaussian, Inc. is engaged in the
 business of creating and licensing software in the field of
 computational chemistry and represents and warrants to the
 licensee that it is not a competitor of Gaussian, Inc. and that
 it will not use this program in any manner prohibited above.
 ---------------------------------------------------------------
  

 Cite this work as:
 Gaussian 16, Revision A.03,
 M. J. Frisch, G. W. Trucks, H. B. Schlegel, G. E. Scuseria, 
 M. A. Robb, J. R. Cheeseman, G. Scalmani, V. Barone, 
 G. A. Petersson, H. Nakatsuji, X. Li, M. Caricato, A. V. Marenich, 
 J. Bloino, B. G. Janesko, R. Gomperts, B. Mennucci, H. P. Hratchian, 
 J. V. Ortiz, A. F. Izmaylov, J. L. Sonnenberg, D. Williams-Young, 
 F. Ding, F. Lipparini, F. Egidi, J. Goings, B. Peng, A. Petrone, 
 T. Henderson, D. Ranasinghe, V. G. Zakrzewski, J. Gao, N. Rega, 
 G. Zheng, W. Liang, M. Hada, M. Ehara, K. Toyota, R. Fukuda, 
 J. Hasegawa, M. Ishida, T. Nakajima, Y. Honda, O. Kitao, H. Nakai, 
 T. Vreven, K. Throssell, J. A. Montgomery, Jr., J. E. Peralta, 
 F. Ogliaro, M. J. Bearpark, J. J. Heyd, E. N. Brothers, K. N. Kudin, 
 V. N. Staroverov, T. A. Keith, R. Kobayashi, J. Normand, 
 K. Raghavachari, A. P. Rendell, J. C. Burant, S. S. Iyengar, 
 J. Tomasi, M. Cossi, J. M. Millam, M. Klene, C. Adamo, R. Cammi, 
 J. W. Ochterski, R. L. Martin, K. Morokuma, O. Farkas, 
 J. B. Foresman, and D. J. Fox, Gaussian, Inc., Wallingford CT, 2016.
 
 ******************************************
 Gaussian 16:  ES64L-G16RevA.03 25-Dec-2016
                15-May-2020 
 ******************************************
 %chk=w32_68.chk
 %nproc=4
 Will use up to    4 processors via shared memory.
 %mem=1gb
 -----------------------------------------
 #p hf/6-31g** 5d 7f pop=npa charge nosymm
 -----------------------------------------
 1/18=10,28=-2,38=1,125=101,172=1/1;
 2/12=2,15=1,17=6,18=5,40=1/2;
 3/5=1,6=6,7=101,8=11,11=9,25=1,30=1/1,2,3;
 4//1;
 5/5=2,38=5/2;
 6/7=2,8=2,9=2,10=2,28=1,40=-1/1,7;
 99/5=1,9=1/99;
 Leave Link    1 at Fri May 15 22:36:12 2020, MaxMem=   134217728 cpu:               0.2 elap:               0.1
 (Enter /home/soft/g16/l101.exe)
 -------------
 Atom number=9
 -------------
 Symbolic Z-matrix:
 Charge =  0 Multiplicity = 1
 o                     10.70602  -10.84886  -10.09151 
 o                     13.45756  -11.77328  -9.77403 
 o                     12.81376  -13.01847  -7.36632 
 h                     11.52141  -11.32028  -9.92081 
 h                     10.5678  -10.31688  -9.30785 
 h                     13.90889  -10.99621  -10.10371 
 h                     14.15077  -12.42364  -9.66118 
 h                     12.4819  -12.41714  -6.69961 
 h                     12.65515  -12.56817  -8.19596 
 
 ITRead=  0  0  0  0  0  0  0  0  0
 MicOpt= -1 -1 -1 -1 -1 -1 -1 -1 -1
 NAtoms=      9 NQM=        9 NQMF=       0 NMMI=      0 NMMIF=      0
                NMic=       0 NMicF=      0.
                    Isotopes and Nuclear Properties:
 (Nuclear quadrupole moments (NQMom) in fm**2, nuclear magnetic moments (NMagM)
  in nuclear magnetons)

  Atom         1           2           3           4           5           6           7           8           9
 IAtWgt=          16          16          16           1           1           1           1           1           1
 AtmWgt=  15.9949146  15.9949146  15.9949146   1.0078250   1.0078250   1.0078250   1.0078250   1.0078250   1.0078250
 NucSpn=           0           0           0           1           1           1           1           1           1
 AtZEff=  -0.0000000  -0.0000000  -0.0000000  -0.0000000  -0.0000000  -0.0000000  -0.0000000  -0.0000000  -0.0000000
 NQMom=    0.0000000   0.0000000   0.0000000   0.0000000   0.0000000   0.0000000   0.0000000   0.0000000   0.0000000
 NMagM=    0.0000000   0.0000000   0.0000000   2.7928460   2.7928460   2.7928460   2.7928460   2.7928460   2.7928460
 AtZNuc=   8.0000000   8.0000000   8.0000000   1.0000000   1.0000000   1.0000000   1.0000000   1.0000000   1.0000000
 Background charge distribution read from input stream:
 Point Charges:
 XYZ=    8.3923  -11.8129  -11.2005 Q=   -1.0561 A=    0.0000 R=    0.0000 C=    0.0000
 XYZ=    8.1753  -12.5378  -10.6142 Q=    0.5233 A=    0.0000 R=    0.0000 C=    0.0000
 XYZ=    9.2522  -11.5141  -10.9045 Q=    0.5177 A=    0.0000 R=    0.0000 C=    0.0000
 XYZ=    8.6932  -14.0693   -9.5471 Q=   -1.0099 A=    0.0000 R=    0.0000 C=    0.0000
 XYZ=    8.2201  -13.7327   -8.7861 Q=    0.4999 A=    0.0000 R=    0.0000 C=    0.0000
 XYZ=    8.5528  -15.0157   -9.5178 Q=    0.5079 A=    0.0000 R=    0.0000 C=    0.0000
 XYZ=    7.2503   -9.8596  -13.1035 Q=   -1.0243 A=    0.0000 R=    0.0000 C=    0.0000
 XYZ=    7.1207  -10.2215  -13.9801 Q=    0.5152 A=    0.0000 R=    0.0000 C=    0.0000
 XYZ=    7.3415  -10.6267  -12.5383 Q=    0.5154 A=    0.0000 R=    0.0000 C=    0.0000
 XYZ=    5.5704  -12.7600  -10.7338 Q=   -1.0500 A=    0.0000 R=    0.0000 C=    0.0000
 XYZ=    4.6427  -12.8278  -10.5079 Q=    0.5214 A=    0.0000 R=    0.0000 C=    0.0000
 XYZ=    5.9838  -12.4052   -9.9468 Q=    0.5064 A=    0.0000 R=    0.0000 C=    0.0000
 XYZ=    6.9662   -9.2478  -10.2743 Q=   -1.0324 A=    0.0000 R=    0.0000 C=    0.0000
 XYZ=    6.9752   -9.8450  -11.0223 Q=    0.5142 A=    0.0000 R=    0.0000 C=    0.0000
 XYZ=    7.6844   -8.6385  -10.4451 Q=    0.5185 A=    0.0000 R=    0.0000 C=    0.0000
 XYZ=    6.9426  -11.8294   -8.3710 Q=   -1.0528 A=    0.0000 R=    0.0000 C=    0.0000
 XYZ=    7.4956  -12.0911   -7.6348 Q=    0.5210 A=    0.0000 R=    0.0000 C=    0.0000
 XYZ=    7.3075  -10.9928   -8.6597 Q=    0.5255 A=    0.0000 R=    0.0000 C=    0.0000
 XYZ=    9.7397  -14.5602  -13.0841 Q=   -1.0029 A=    0.0000 R=    0.0000 C=    0.0000
 XYZ=    9.4367  -13.9209  -12.4394 Q=    0.5215 A=    0.0000 R=    0.0000 C=    0.0000
 XYZ=   10.6527  -14.3230  -13.2466 Q=    0.4988 A=    0.0000 R=    0.0000 C=    0.0000
 XYZ=   10.0849   -9.6030  -13.6944 Q=   -1.0549 A=    0.0000 R=    0.0000 C=    0.0000
 XYZ=    9.8380   -9.8779  -14.5774 Q=    0.5180 A=    0.0000 R=    0.0000 C=    0.0000
 XYZ=    9.2671   -9.6284  -13.1976 Q=    0.5226 A=    0.0000 R=    0.0000 C=    0.0000
 XYZ=    9.4738   -7.9972  -10.9180 Q=   -0.9971 A=    0.0000 R=    0.0000 C=    0.0000
 XYZ=    9.9975   -8.7956  -10.8516 Q=    0.5301 A=    0.0000 R=    0.0000 C=    0.0000
 XYZ=    9.6234   -7.5424  -10.0892 Q=    0.4920 A=    0.0000 R=    0.0000 C=    0.0000
 XYZ=    8.4516  -10.6356  -15.6859 Q=   -1.0322 A=    0.0000 R=    0.0000 C=    0.0000
 XYZ=    8.1250  -10.4069  -16.5562 Q=    0.4798 A=    0.0000 R=    0.0000 C=    0.0000
 XYZ=    9.2622  -11.1166  -15.8526 Q=    0.5341 A=    0.0000 R=    0.0000 C=    0.0000
 XYZ=    4.0391  -11.2243  -12.8044 Q=   -0.9921 A=    0.0000 R=    0.0000 C=    0.0000
 XYZ=    4.5248  -12.0476  -12.7552 Q=    0.4802 A=    0.0000 R=    0.0000 C=    0.0000
 XYZ=    4.4321  -10.7575  -13.5420 Q=    0.5046 A=    0.0000 R=    0.0000 C=    0.0000
 XYZ=    5.5848  -15.5922  -11.4699 Q=   -1.0129 A=    0.0000 R=    0.0000 C=    0.0000
 XYZ=    4.6785  -15.3483  -11.6582 Q=    0.5050 A=    0.0000 R=    0.0000 C=    0.0000
 XYZ=    6.0031  -14.7735  -11.2032 Q=    0.5257 A=    0.0000 R=    0.0000 C=    0.0000
 XYZ=    8.8013  -12.4259   -6.4973 Q=   -0.9852 A=    0.0000 R=    0.0000 C=    0.0000
 XYZ=    9.0556  -11.7490   -5.8701 Q=    0.5006 A=    0.0000 R=    0.0000 C=    0.0000
 XYZ=    8.9395  -13.2499   -6.0303 Q=    0.5083 A=    0.0000 R=    0.0000 C=    0.0000
 XYZ=   10.5523   -9.0602   -7.7657 Q=   -0.9799 A=    0.0000 R=    0.0000 C=    0.0000
 XYZ=   10.0296   -9.4526   -7.0665 Q=    0.5003 A=    0.0000 R=    0.0000 C=    0.0000
 XYZ=   10.0576   -8.2839   -8.0284 Q=    0.4937 A=    0.0000 R=    0.0000 C=    0.0000
 XYZ=    8.4919  -14.1596  -15.7110 Q=   -0.9823 A=    0.0000 R=    0.0000 C=    0.0000
 XYZ=    8.8439  -15.0437  -15.8144 Q=    0.4799 A=    0.0000 R=    0.0000 C=    0.0000
 XYZ=    8.9183  -13.8221  -14.9233 Q=    0.4950 A=    0.0000 R=    0.0000 C=    0.0000
 XYZ=   10.6752  -11.9252  -15.8192 Q=   -0.9837 A=    0.0000 R=    0.0000 C=    0.0000
 XYZ=   11.1454  -12.2597  -15.0555 Q=    0.5055 A=    0.0000 R=    0.0000 C=    0.0000
 XYZ=   10.7694  -12.6123  -16.4789 Q=    0.5125 A=    0.0000 R=    0.0000 C=    0.0000
 XYZ=    7.7593  -16.5050  -13.2460 Q=   -1.0112 A=    0.0000 R=    0.0000 C=    0.0000
 XYZ=    7.3079  -16.2111  -12.4547 Q=    0.4926 A=    0.0000 R=    0.0000 C=    0.0000
 XYZ=    8.5373  -15.9498  -13.2987 Q=    0.4973 A=    0.0000 R=    0.0000 C=    0.0000
 XYZ=    5.5914  -15.5335   -8.7002 Q=   -1.0162 A=    0.0000 R=    0.0000 C=    0.0000
 XYZ=    6.3093  -16.0707   -8.3652 Q=    0.4831 A=    0.0000 R=    0.0000 C=    0.0000
 XYZ=    5.4763  -15.8239   -9.6050 Q=    0.5237 A=    0.0000 R=    0.0000 C=    0.0000
 XYZ=    5.3398  -11.2122  -15.4745 Q=   -0.9760 A=    0.0000 R=    0.0000 C=    0.0000
 XYZ=    5.8801  -10.4587  -15.7120 Q=    0.4863 A=    0.0000 R=    0.0000 C=    0.0000
 XYZ=    5.4896  -11.8457  -16.1763 Q=    0.4965 A=    0.0000 R=    0.0000 C=    0.0000
 XYZ=   12.9960  -14.7139  -11.2100 Q=   -0.9778 A=    0.0000 R=    0.0000 C=    0.0000
 XYZ=   12.2864  -15.1619  -10.7497 Q=    0.5059 A=    0.0000 R=    0.0000 C=    0.0000
 XYZ=   13.6357  -14.5124  -10.5270 Q=    0.4638 A=    0.0000 R=    0.0000 C=    0.0000
 XYZ=    4.6413   -8.1383  -12.6711 Q=   -0.9897 A=    0.0000 R=    0.0000 C=    0.0000
 XYZ=    4.5978   -7.2720  -12.2662 Q=    0.4876 A=    0.0000 R=    0.0000 C=    0.0000
 XYZ=    5.5765   -8.3384  -12.7100 Q=    0.4969 A=    0.0000 R=    0.0000 C=    0.0000
 XYZ=    8.9611  -17.0167   -9.2755 Q=   -0.9921 A=    0.0000 R=    0.0000 C=    0.0000
 XYZ=    8.6736  -17.2191   -8.3852 Q=    0.5092 A=    0.0000 R=    0.0000 C=    0.0000
 XYZ=    8.3026  -17.4234   -9.8386 Q=    0.5103 A=    0.0000 R=    0.0000 C=    0.0000
 XYZ=   12.8900   -9.6906  -13.7511 Q=   -0.9984 A=    0.0000 R=    0.0000 C=    0.0000
 XYZ=   13.4884   -9.8459  -13.0204 Q=    0.4670 A=    0.0000 R=    0.0000 C=    0.0000
 XYZ=   12.0171   -9.7427  -13.3618 Q=    0.5160 A=    0.0000 R=    0.0000 C=    0.0000
 XYZ=    4.9070   -7.9100   -9.1300 Q=   -1.0105 A=    0.0000 R=    0.0000 C=    0.0000
 XYZ=    4.0635   -8.0265   -9.5674 Q=    0.4764 A=    0.0000 R=    0.0000 C=    0.0000
 XYZ=    5.4227   -8.6710   -9.3968 Q=    0.5176 A=    0.0000 R=    0.0000 C=    0.0000
 XYZ=    2.9547  -12.7024   -9.8757 Q=   -0.9915 A=    0.0000 R=    0.0000 C=    0.0000
 XYZ=    3.0641  -13.5048   -9.3654 Q=    0.5019 A=    0.0000 R=    0.0000 C=    0.0000
 XYZ=    2.7384  -12.0329   -9.2268 Q=    0.5105 A=    0.0000 R=    0.0000 C=    0.0000
 XYZ=    4.2108  -13.3306   -7.5546 Q=   -1.0293 A=    0.0000 R=    0.0000 C=    0.0000
 XYZ=    4.9638  -12.7453   -7.4735 Q=    0.4979 A=    0.0000 R=    0.0000 C=    0.0000
 XYZ=    4.5835  -14.1618   -7.8486 Q=    0.5197 A=    0.0000 R=    0.0000 C=    0.0000
 XYZ=    8.5389   -6.2611  -12.9484 Q=   -1.0019 A=    0.0000 R=    0.0000 C=    0.0000
 XYZ=    8.8800   -6.8491  -12.2745 Q=    0.5098 A=    0.0000 R=    0.0000 C=    0.0000
 XYZ=    9.2767   -6.1230  -13.5423 Q=    0.4773 A=    0.0000 R=    0.0000 C=    0.0000
 XYZ=   11.4715  -15.3553   -7.5180 Q=   -1.0197 A=    0.0000 R=    0.0000 C=    0.0000
 XYZ=   10.8644  -15.3558   -8.2581 Q=    0.4753 A=    0.0000 R=    0.0000 C=    0.0000
 XYZ=   11.9075  -14.5045   -7.5658 Q=    0.5146 A=    0.0000 R=    0.0000 C=    0.0000
 XYZ=   11.3245  -17.0116  -10.7628 Q=   -1.0019 A=    0.0000 R=    0.0000 C=    0.0000
 XYZ=   11.7165  -17.8633  -10.5702 Q=    0.4876 A=    0.0000 R=    0.0000 C=    0.0000
 XYZ=   10.4428  -17.0644  -10.3939 Q=    0.5095 A=    0.0000 R=    0.0000 C=    0.0000
 Pt Chg Charge=             -0.0361 electrons
 Pt Chg Dipole moment (Debye):
    X=             11.1609    Y=             -7.9841    Z=             16.2782  Tot=             21.2906
 Pt Chg Quadrupole moment (Debye-Ang):
   XX=            146.0107   YY=            220.6616   ZZ=           -266.9247
   XY=           -190.5074   XZ=              1.4475   YZ=            -93.0735
 Pt Chg Traceless Quadrupole moment (Debye-Ang):
   XX=            112.7615   YY=            187.4124   ZZ=           -300.1740
   XY=           -190.5074   XZ=              1.4475   YZ=            -93.0735
 Pt Chg Octapole moment (Debye-Ang**2):
  XXX=           1395.5304  YYY=          -4527.1700  ZZZ=           3069.4644  XYY=           3048.1384
  XXY=          -2092.0451  XXZ=           -462.8873  XZZ=           -746.6416  YZZ=           2174.3300
  YYZ=             81.7792  XYZ=            644.3763
 Pt Chg Hexadecapole moment (Debye-Ang**3):
 XXXX=          11824.4413 YYYY=          86574.5989 ZZZZ=         -21801.1924 XXXY=         -19198.9792
 XXXZ=          -4236.0583 YYYX=         -49095.0633 YYYZ=          12031.6137 ZZZX=           9052.3393
 ZZZY=         -26652.9157 XXYY=          30222.6385 XXZZ=          -2214.4661 YYZZ=         -18447.7175
 XXYZ=          10907.3732 YYXZ=         -14694.4427 ZZXY=           1104.0488
 Leave Link  101 at Fri May 15 22:36:12 2020, MaxMem=   134217728 cpu:               0.5 elap:               0.1
 (Enter /home/soft/g16/l202.exe)
                          Input orientation:                          
 ---------------------------------------------------------------------
 Center     Atomic      Atomic             Coordinates (Angstroms)
 Number     Number       Type             X           Y           Z
 ---------------------------------------------------------------------
      1          8           0       10.706017  -10.848862  -10.091512
      2          8           0       13.457564  -11.773284   -9.774029
      3          8           0       12.813764  -13.018467   -7.366324
      4          1           0       11.521407  -11.320280   -9.920812
      5          1           0       10.567797  -10.316883   -9.307849
      6          1           0       13.908886  -10.996207  -10.103715
      7          1           0       14.150775  -12.423635   -9.661183
      8          1           0       12.481900  -12.417138   -6.699613
      9          1           0       12.655150  -12.568166   -8.195965
 ---------------------------------------------------------------------
                    Distance matrix (angstroms):
                    1          2          3          4          5
     1  O    0.000000
     2  O    2.919994   0.000000
     3  O    4.071417   2.786037   0.000000
     4  H    0.957201   1.993856   3.328578   0.000000
     5  H    0.957201   3.269431   4.014031   1.513903   0.000000
     6  H    3.206280   0.957201   3.575211   2.416306   3.501108
     7  H    3.812014   0.957200   2.721728   2.863281   4.171448
     8  H    4.137418   3.289149   0.957201   3.535784   3.857169
     9  H    3.216866   1.940616   0.957201   2.411989   3.265211
                    6          7          8          9
     6  H    0.000000
     7  H    1.513901   0.000000
     8  H    3.955154   3.399424   0.000000
     9  H    2.771718   2.098725   1.513900   0.000000
 Symmetry turned off by external request.
 Stoichiometry    H6O3
 Framework group  C1[X(H6O3)]
 Deg. of freedom    21
 Full point group                 C1      NOp   1
 Rotational constants (GHZ):           9.3169085           3.4706191           2.5706875
 Leave Link  202 at Fri May 15 22:36:12 2020, MaxMem=   134217728 cpu:               0.0 elap:               0.0
 (Enter /home/soft/g16/l301.exe)
 Standard basis: 6-31G(d,p) (5D, 7F)
 Ernie: Thresh=  0.10000D-02 Tol=  0.10000D-05 Strict=F.
    72 basis functions,   126 primitive gaussians,    75 cartesian basis functions
    15 alpha electrons       15 beta electrons
       nuclear repulsion energy        78.4631455715 Hartrees.
 IExCor=    0 DFT=F Ex=HF Corr=None ExCW=0 ScaHFX=  1.000000
 ScaDFX=  1.000000  1.000000  1.000000  1.000000 ScalE2=  1.000000  1.000000
 IRadAn=      5 IRanWt=     -1 IRanGd=            0 ICorTp=0 IEmpDi=  4
 NAtoms=    9 NActive=    9 NUniq=    9 SFac= 1.00D+00 NAtFMM=   60 NAOKFM=F Big=F
 Integral buffers will be    131072 words long.
 Raffenetti 1 integral format.
 Two-electron integral symmetry is turned off.
 Background charge distribution read from rwf.
 PtFMM for NChg=        96 BoxLen=    40.00 Levels= 1 LMax=20 SMax=    22.2 ICnFMM=     1:
 Self energy of the charges =       -14.0939446351 a.u.
 MM   energy of the charges =         0.0000000000 a.u.
 Nuclei-charges interaction =         1.6957178185 a.u.
 Nuclear repulsion after external point charges =       66.0649187549 Hartrees.
 Leave Link  301 at Fri May 15 22:36:13 2020, MaxMem=   134217728 cpu:               0.2 elap:               0.1
 (Enter /home/soft/g16/l302.exe)
 NPDir=0 NMtPBC=     1 NCelOv=     1 NCel=       1 NClECP=     1 NCelD=      1
         NCelK=      1 NCelE2=     1 NClLst=     1 CellRange=     0.0.
 One-electron integrals computed using PRISM.
 NBasis=    72 RedAO= T EigKep=  2.28D-02  NBF=    72
 NBsUse=    72 1.00D-06 EigRej= -1.00D+00 NBFU=    72
 Leave Link  302 at Fri May 15 22:36:13 2020, MaxMem=   134217728 cpu:               0.5 elap:               0.1
 (Enter /home/soft/g16/l303.exe)
 DipDrv:  MaxL=1.
 Leave Link  303 at Fri May 15 22:36:13 2020, MaxMem=   134217728 cpu:               0.1 elap:               0.0
 (Enter /home/soft/g16/l401.exe)
 ExpMin= 1.61D-01 ExpMax= 5.48D+03 ExpMxC= 8.25D+02 IAcc=3 IRadAn=         5 AccDes= 0.00D+00
 Harris functional with IExCor=  205 and IRadAn=       5 diagonalized for initial guess.
 HarFok:  IExCor=  205 AccDes= 0.00D+00 IRadAn=         5 IDoV= 1 UseB2=F ITyADJ=14
 ICtDFT=  3500011 ScaDFX=  1.000000  1.000000  1.000000  1.000000
 FoFCou: FMM=F IPFlag=           0 FMFlag=      100000 FMFlg1=           0
         NFxFlg=           0 DoJE=T BraDBF=F KetDBF=T FulRan=T
         wScrn=  0.000000 ICntrl=       500 IOpCl=  0 I1Cent=   200000004 NGrid=           0
         NMat0=    1 NMatS0=      1 NMatT0=    0 NMatD0=    1 NMtDS0=    0 NMtDT0=    0
 Symmetry not used in FoFCou.
 Harris En= -242.489982019536    
 JPrj=0 DoOrth=F DoCkMO=F.
 Leave Link  401 at Fri May 15 22:36:13 2020, MaxMem=   134217728 cpu:               1.2 elap:               0.3
 (Enter /home/soft/g16/l502.exe)
 Keep R1 ints in memory in canonical form, NReq=4307857.
 FoFCou: FMM=F IPFlag=           0 FMFlag=           0 FMFlg1=           0
         NFxFlg=           0 DoJE=F BraDBF=F KetDBF=F FulRan=T
         wScrn=  0.000000 ICntrl=       600 IOpCl=  0 I1Cent=           0 NGrid=           0
         NMat0=    1 NMatS0=   2628 NMatT0=    0 NMatD0=    1 NMtDS0=    0 NMtDT0=    0
 Symmetry not used in FoFCou.
 Two-electron integral symmetry not used.
 Closed shell SCF:
 Using DIIS extrapolation, IDIIS=  1040.
 NGot=   134217728 LenX=   130750732 LenY=   130744666
 Requested convergence on RMS density matrix=1.00D-08 within 128 cycles.
 Requested convergence on MAX density matrix=1.00D-06.
 Requested convergence on             energy=1.00D-06.
 No special actions if energy rises.

 Cycle   1  Pass 1  IDiag  1:
 E= -241.982450316192    
 DIIS: error= 5.55D-02 at cycle   1 NSaved=   1.
 NSaved= 1 IEnMin= 1 EnMin= -241.982450316192     IErMin= 1 ErrMin= 5.55D-02
 ErrMax= 5.55D-02  0.00D+00 EMaxC= 1.00D-01 BMatC= 3.51D-01 BMatP= 3.51D-01
 IDIUse=3 WtCom= 4.45D-01 WtEn= 5.55D-01
 Coeff-Com:  0.100D+01
 Coeff-En:   0.100D+01
 Coeff:      0.100D+01
 Gap=     0.646 Goal=   None    Shift=    0.000
 GapD=    0.646 DampG=2.000 DampE=0.500 DampFc=1.0000 IDamp=-1.
 RMSDP=6.69D-03 MaxDP=1.26D-01              OVMax= 1.23D-01

 Cycle   2  Pass 1  IDiag  1:
 E= -242.145084652271     Delta-E=       -0.162634336080 Rises=F Damp=F
 DIIS: error= 3.02D-02 at cycle   2 NSaved=   2.
 NSaved= 2 IEnMin= 2 EnMin= -242.145084652271     IErMin= 2 ErrMin= 3.02D-02
 ErrMax= 3.02D-02  0.00D+00 EMaxC= 1.00D-01 BMatC= 1.04D-01 BMatP= 3.51D-01
 IDIUse=3 WtCom= 6.98D-01 WtEn= 3.02D-01
 Coeff-Com:  0.340D+00 0.660D+00
 Coeff-En:   0.673D-01 0.933D+00
 Coeff:      0.258D+00 0.742D+00
 Gap=     0.694 Goal=   None    Shift=    0.000
 RMSDP=3.00D-03 MaxDP=5.23D-02 DE=-1.63D-01 OVMax= 4.65D-02

 Cycle   3  Pass 1  IDiag  1:
 E= -242.213898466309     Delta-E=       -0.068813814038 Rises=F Damp=F
 DIIS: error= 5.36D-03 at cycle   3 NSaved=   3.
 NSaved= 3 IEnMin= 3 EnMin= -242.213898466309     IErMin= 3 ErrMin= 5.36D-03
 ErrMax= 5.36D-03  0.00D+00 EMaxC= 1.00D-01 BMatC= 2.93D-03 BMatP= 1.04D-01
 IDIUse=3 WtCom= 9.46D-01 WtEn= 5.36D-02
 Coeff-Com: -0.324D-01 0.991D-01 0.933D+00
 Coeff-En:   0.000D+00 0.000D+00 0.100D+01
 Coeff:     -0.306D-01 0.938D-01 0.937D+00
 Gap=     0.679 Goal=   None    Shift=    0.000
 RMSDP=4.45D-04 MaxDP=8.24D-03 DE=-6.88D-02 OVMax= 9.08D-03

 Cycle   4  Pass 1  IDiag  1:
 E= -242.216146817695     Delta-E=       -0.002248351385 Rises=F Damp=F
 DIIS: error= 4.80D-04 at cycle   4 NSaved=   4.
 NSaved= 4 IEnMin= 4 EnMin= -242.216146817695     IErMin= 4 ErrMin= 4.80D-04
 ErrMax= 4.80D-04  0.00D+00 EMaxC= 1.00D-01 BMatC= 2.21D-05 BMatP= 2.93D-03
 IDIUse=3 WtCom= 9.95D-01 WtEn= 4.80D-03
 Coeff-Com:  0.724D-02-0.477D-01-0.308D+00 0.135D+01
 Coeff-En:   0.000D+00 0.000D+00 0.000D+00 0.100D+01
 Coeff:      0.721D-02-0.475D-01-0.306D+00 0.135D+01
 Gap=     0.681 Goal=   None    Shift=    0.000
 RMSDP=1.01D-04 MaxDP=1.00D-03 DE=-2.25D-03 OVMax= 2.11D-03

 Cycle   5  Pass 1  IDiag  1:
 E= -242.216187278677     Delta-E=       -0.000040460982 Rises=F Damp=F
 DIIS: error= 8.32D-05 at cycle   5 NSaved=   5.
 NSaved= 5 IEnMin= 5 EnMin= -242.216187278677     IErMin= 5 ErrMin= 8.32D-05
 ErrMax= 8.32D-05  0.00D+00 EMaxC= 1.00D-01 BMatC= 5.90D-07 BMatP= 2.21D-05
 IDIUse=1 WtCom= 1.00D+00 WtEn= 0.00D+00
 Coeff-Com:  0.679D-03-0.126D-02-0.126D-01-0.720D-01 0.109D+01
 Coeff:      0.679D-03-0.126D-02-0.126D-01-0.720D-01 0.109D+01
 Gap=     0.681 Goal=   None    Shift=    0.000
 RMSDP=1.87D-05 MaxDP=2.84D-04 DE=-4.05D-05 OVMax= 3.99D-04

 Cycle   6  Pass 1  IDiag  1:
 E= -242.216188450389     Delta-E=       -0.000001171713 Rises=F Damp=F
 DIIS: error= 2.95D-05 at cycle   6 NSaved=   6.
 NSaved= 6 IEnMin= 6 EnMin= -242.216188450389     IErMin= 6 ErrMin= 2.95D-05
 ErrMax= 2.95D-05  0.00D+00 EMaxC= 1.00D-01 BMatC= 7.24D-08 BMatP= 5.90D-07
 IDIUse=1 WtCom= 1.00D+00 WtEn= 0.00D+00
 Coeff-Com: -0.314D-03 0.278D-02 0.175D-01-0.108D+00 0.218D+00 0.870D+00
 Coeff:     -0.314D-03 0.278D-02 0.175D-01-0.108D+00 0.218D+00 0.870D+00
 Gap=     0.682 Goal=   None    Shift=    0.000
 RMSDP=4.88D-06 MaxDP=7.97D-05 DE=-1.17D-06 OVMax= 9.16D-05

 Cycle   7  Pass 1  IDiag  1:
 E= -242.216188545112     Delta-E=       -0.000000094723 Rises=F Damp=F
 DIIS: error= 5.54D-06 at cycle   7 NSaved=   7.
 NSaved= 7 IEnMin= 7 EnMin= -242.216188545112     IErMin= 7 ErrMin= 5.54D-06
 ErrMax= 5.54D-06  0.00D+00 EMaxC= 1.00D-01 BMatC= 4.66D-09 BMatP= 7.24D-08
 IDIUse=1 WtCom= 1.00D+00 WtEn= 0.00D+00
 Coeff-Com: -0.919D-04 0.384D-03 0.293D-02-0.329D-02-0.864D-01 0.858D-01
 Coeff-Com:  0.100D+01
 Coeff:     -0.919D-04 0.384D-03 0.293D-02-0.329D-02-0.864D-01 0.858D-01
 Coeff:      0.100D+01
 Gap=     0.682 Goal=   None    Shift=    0.000
 RMSDP=1.41D-06 MaxDP=2.52D-05 DE=-9.47D-08 OVMax= 2.81D-05

 Cycle   8  Pass 1  IDiag  1:
 E= -242.216188552161     Delta-E=       -0.000000007048 Rises=F Damp=F
 DIIS: error= 1.26D-06 at cycle   8 NSaved=   8.
 NSaved= 8 IEnMin= 8 EnMin= -242.216188552161     IErMin= 8 ErrMin= 1.26D-06
 ErrMax= 1.26D-06  0.00D+00 EMaxC= 1.00D-01 BMatC= 1.74D-10 BMatP= 4.66D-09
 IDIUse=1 WtCom= 1.00D+00 WtEn= 0.00D+00
 Coeff-Com:  0.399D-04-0.241D-03-0.169D-02 0.606D-02 0.165D-01-0.622D-01
 Coeff-Com: -0.285D+00 0.133D+01
 Coeff:      0.399D-04-0.241D-03-0.169D-02 0.606D-02 0.165D-01-0.622D-01
 Coeff:     -0.285D+00 0.133D+01
 Gap=     0.682 Goal=   None    Shift=    0.000
 RMSDP=3.10D-07 MaxDP=5.54D-06 DE=-7.05D-09 OVMax= 6.45D-06

 Cycle   9  Pass 1  IDiag  1:
 E= -242.216188552554     Delta-E=       -0.000000000394 Rises=F Damp=F
 DIIS: error= 3.26D-07 at cycle   9 NSaved=   9.
 NSaved= 9 IEnMin= 9 EnMin= -242.216188552554     IErMin= 9 ErrMin= 3.26D-07
 ErrMax= 3.26D-07  0.00D+00 EMaxC= 1.00D-01 BMatC= 7.96D-12 BMatP= 1.74D-10
 IDIUse=1 WtCom= 1.00D+00 WtEn= 0.00D+00
 Coeff-Com:  0.493D-05-0.228D-04-0.166D-03 0.260D-03 0.453D-02-0.573D-02
 Coeff-Com: -0.533D-01 0.484D-01 0.101D+01
 Coeff:      0.493D-05-0.228D-04-0.166D-03 0.260D-03 0.453D-02-0.573D-02
 Coeff:     -0.533D-01 0.484D-01 0.101D+01
 Gap=     0.682 Goal=   None    Shift=    0.000
 RMSDP=5.17D-08 MaxDP=7.07D-07 DE=-3.94D-10 OVMax= 1.06D-06

 Cycle  10  Pass 1  IDiag  1:
 E= -242.216188552569     Delta-E=       -0.000000000015 Rises=F Damp=F
 DIIS: error= 1.26D-07 at cycle  10 NSaved=  10.
 NSaved=10 IEnMin=10 EnMin= -242.216188552569     IErMin=10 ErrMin= 1.26D-07
 ErrMax= 1.26D-07  0.00D+00 EMaxC= 1.00D-01 BMatC= 1.13D-12 BMatP= 7.96D-12
 IDIUse=1 WtCom= 1.00D+00 WtEn= 0.00D+00
 Coeff-Com: -0.287D-05 0.191D-04 0.133D-03-0.575D-03-0.540D-03 0.503D-02
 Coeff-Com:  0.167D-01-0.119D+00 0.204D+00 0.894D+00
 Coeff:     -0.287D-05 0.191D-04 0.133D-03-0.575D-03-0.540D-03 0.503D-02
 Coeff:      0.167D-01-0.119D+00 0.204D+00 0.894D+00
 Gap=     0.682 Goal=   None    Shift=    0.000
 RMSDP=1.67D-08 MaxDP=2.30D-07 DE=-1.46D-11 OVMax= 3.44D-07

 Cycle  11  Pass 1  IDiag  1:
 E= -242.216188552570     Delta-E=       -0.000000000001 Rises=F Damp=F
 DIIS: error= 2.68D-08 at cycle  11 NSaved=  11.
 NSaved=11 IEnMin=11 EnMin= -242.216188552570     IErMin=11 ErrMin= 2.68D-08
 ErrMax= 2.68D-08  0.00D+00 EMaxC= 1.00D-01 BMatC= 5.46D-14 BMatP= 1.13D-12
 IDIUse=1 WtCom= 1.00D+00 WtEn= 0.00D+00
 Coeff-Com: -0.326D-06 0.138D-05 0.103D-04-0.583D-05-0.364D-03 0.248D-03
 Coeff-Com:  0.377D-02 0.908D-03-0.933D-01-0.448D-01 0.113D+01
 Coeff:     -0.326D-06 0.138D-05 0.103D-04-0.583D-05-0.364D-03 0.248D-03
 Coeff:      0.377D-02 0.908D-03-0.933D-01-0.448D-01 0.113D+01
 Gap=     0.682 Goal=   None    Shift=    0.000
 RMSDP=6.24D-09 MaxDP=7.43D-08 DE=-1.48D-12 OVMax= 1.36D-07

 SCF Done:  E(RHF) =  -242.216188553     A.U. after   11 cycles
            NFock= 11  Conv=0.62D-08     -V/T= 2.0636
 KE= 2.277319329122D+02 PE=-7.003653129691D+02 EE= 1.643522727496D+02
 Leave Link  502 at Fri May 15 22:36:13 2020, MaxMem=   134217728 cpu:               0.8 elap:               0.3
 (Enter /home/soft/g16/l601.exe)
 Copying SCF densities to generalized density rwf, IOpCl= 0 IROHF=0.

 **********************************************************************

            Population analysis using the SCF density.

 **********************************************************************

 Alpha  occ. eigenvalues --  -20.64351 -20.60914 -20.60276  -1.42877  -1.39291
 Alpha  occ. eigenvalues --   -1.38677  -0.79702  -0.76232  -0.74673  -0.66730
 Alpha  occ. eigenvalues --   -0.62674  -0.61888  -0.58184  -0.55235  -0.54737
 Alpha virt. eigenvalues --    0.13422   0.19678   0.22543   0.24336   0.30869
 Alpha virt. eigenvalues --    0.40353   0.92705   0.96219   0.99251   1.00761
 Alpha virt. eigenvalues --    1.02028   1.05736   1.07003   1.11675   1.13978
 Alpha virt. eigenvalues --    1.14863   1.17226   1.25056   1.29342   1.30258
 Alpha virt. eigenvalues --    1.34048   1.50688   1.63781   1.67672   1.72099
 Alpha virt. eigenvalues --    1.74892   1.76389   1.78430   1.78950   1.83189
 Alpha virt. eigenvalues --    1.87305   1.91105   1.99671   2.47564   2.49835
 Alpha virt. eigenvalues --    2.54176   2.54706   2.60123   2.60953   2.72844
 Alpha virt. eigenvalues --    2.78020   2.79617   2.87613   2.91491   2.93153
 Alpha virt. eigenvalues --    2.94400   2.97988   3.02771   3.30484   3.33967
 Alpha virt. eigenvalues --    3.36147   3.68857   3.72652   3.74427   3.87602
 Alpha virt. eigenvalues --    3.91691   3.97883
          Condensed to atoms (all electrons):
               1          2          3          4          5          6
     1  O    8.168206  -0.006727  -0.000101   0.315035   0.317009   0.000883
     2  O   -0.006727   8.065745  -0.010749   0.015565   0.000414   0.312272
     3  O   -0.000101  -0.010749   8.138244   0.000172  -0.000005   0.000433
     4  H    0.315035   0.015565   0.000172   0.290919  -0.024374  -0.001826
     5  H    0.317009   0.000414  -0.000005  -0.024374   0.329394   0.000005
     6  H    0.000883   0.312272   0.000433  -0.001826   0.000005   0.338647
     7  H    0.000238   0.310075   0.003025  -0.000492  -0.000015  -0.019425
     8  H   -0.000021   0.000661   0.315874   0.000073   0.000006  -0.000024
     9  H    0.001112   0.015750   0.300713   0.002043   0.000206  -0.000513
               7          8          9
     1  O    0.000238  -0.000021   0.001112
     2  O    0.310075   0.000661   0.015750
     3  O    0.003025   0.315874   0.300713
     4  H   -0.000492   0.000073   0.002043
     5  H   -0.000015   0.000006   0.000206
     6  H   -0.019425  -0.000024  -0.000513
     7  H    0.342436  -0.000084  -0.004910
     8  H   -0.000084   0.359307  -0.024838
     9  H   -0.004910  -0.024838   0.332179
 Mulliken charges:
               1
     1  O   -0.795633
     2  O   -0.703006
     3  O   -0.747606
     4  H    0.402884
     5  H    0.377359
     6  H    0.369547
     7  H    0.369152
     8  H    0.349047
     9  H    0.378257
 Sum of Mulliken charges =  -0.00000
 Mulliken charges with hydrogens summed into heavy atoms:
               1
     1  O   -0.015390
     2  O    0.035693
     3  O   -0.020303
 Electronic spatial extent (au):  <R**2>=          40635.8113
 Charge=             -0.0000 electrons
 Dipole moment (field-independent basis, Debye):
    X=              3.3337    Y=              2.5652    Z=              1.0248  Tot=              4.3294
 Quadrupole moment (field-independent basis, Debye-Ang):
   XX=             64.2820   YY=            -81.5840   ZZ=            -39.6971
   XY=             -6.0762   XZ=            -27.0146   YZ=            -29.2951
 Traceless Quadrupole moment (field-independent basis, Debye-Ang):
   XX=             83.2817   YY=            -62.5843   ZZ=            -20.6974
   XY=             -6.0762   XZ=            -27.0146   YZ=            -29.2951
 Octapole moment (field-independent basis, Debye-Ang**2):
  XXX=            877.6663  YYY=           1830.5250  ZZZ=            839.3070  XYY=           -580.9285
  XXY=           -326.2621  XXZ=           -657.9281  XZZ=            -39.5437  YZZ=            574.5951
  YYZ=            732.4875  XYZ=             88.1060
 Hexadecapole moment (field-independent basis, Debye-Ang**3):
 XXXX=           9478.7293 YYYY=         -35213.4717 ZZZZ=         -14074.7966 XXXY=          -4689.4376
 XXXZ=         -10338.7902 YYYX=          17836.4533 YYYZ=         -15430.2505 ZZZX=           5361.0206
 ZZZY=         -10393.6871 XXYY=          -4504.8191 XXZZ=           3486.3897 YYZZ=          -9702.1192
 XXYZ=           4700.3073 YYXZ=           3932.8343 ZZXY=           2005.6713
 N-N= 6.606491875486D+01 E-N=-7.003653130263D+02  KE= 2.277319329122D+02
 No NMR shielding tensors so no spin-rotation constants.
 Leave Link  601 at Fri May 15 22:36:13 2020, MaxMem=   134217728 cpu:               0.6 elap:               0.2
 (Enter /home/soft/g16/l607.exe)
 ******************************Gaussian NBO Version 3.1******************************
             N A T U R A L   A T O M I C   O R B I T A L   A N D
          N A T U R A L   B O N D   O R B I T A L   A N A L Y S I S
 ******************************Gaussian NBO Version 3.1******************************
       /RESON  / : Allow strongly delocalized NBO set

 Analyzing the SCF density

 Job title: Atom number=9                                                   

 Storage needed:     15894 in NPA ( 134217269 available)
 GSVD:  LWork=        2304 too small for GESVD, short by        3132 words or        3132 for optimal perf.


 NATURAL POPULATIONS:  Natural atomic orbital occupancies 
                                                          
   NAO  Atom  No  lang   Type(AO)    Occupancy      Energy
 ----------------------------------------------------------
     1    O    1  S      Cor( 1S)     1.99985     -20.43297
     2    O    1  S      Val( 2S)     1.75078      -1.20944
     3    O    1  S      Ryd( 3S)     0.00069       1.85700
     4    O    1  px     Val( 2p)     1.74481      -0.47034
     5    O    1  px     Ryd( 3p)     0.00122       1.18133
     6    O    1  py     Val( 2p)     1.78435      -0.47324
     7    O    1  py     Ryd( 3p)     0.00124       1.20590
     8    O    1  pz     Val( 2p)     1.75802      -0.47141
     9    O    1  pz     Ryd( 3p)     0.00067       1.17302
    10    O    1  dxy    Ryd( 3d)     0.00069       2.60158
    11    O    1  dxz    Ryd( 3d)     0.00120       2.37425
    12    O    1  dyz    Ryd( 3d)     0.00132       2.64247
    13    O    1  dx2y2  Ryd( 3d)     0.00050       2.40157
    14    O    1  dz2    Ryd( 3d)     0.00163       2.55998

    15    O    2  S      Cor( 1S)     1.99986     -20.48288
    16    O    2  S      Val( 2S)     1.75191      -1.24345
    17    O    2  S      Ryd( 3S)     0.00116       1.62115
    18    O    2  px     Val( 2p)     1.74563      -0.50894
    19    O    2  px     Ryd( 3p)     0.00058       1.33165
    20    O    2  py     Val( 2p)     1.55913      -0.43741
    21    O    2  py     Ryd( 3p)     0.00166       1.25618
    22    O    2  pz     Val( 2p)     1.94278      -0.56275
    23    O    2  pz     Ryd( 3p)     0.00051       1.19542
    24    O    2  dxy    Ryd( 3d)     0.00167       3.02859
    25    O    2  dxz    Ryd( 3d)     0.00139       2.22529
    26    O    2  dyz    Ryd( 3d)     0.00025       2.36216
    27    O    2  dx2y2  Ryd( 3d)     0.00082       2.40613
    28    O    2  dz2    Ryd( 3d)     0.00096       2.39756

    29    O    3  S      Cor( 1S)     1.99985     -20.43824
    30    O    3  S      Val( 2S)     1.75052      -1.21229
    31    O    3  S      Ryd( 3S)     0.00106       1.79309
    32    O    3  px     Val( 2p)     1.94194      -0.53109
    33    O    3  px     Ryd( 3p)     0.00064       1.13512
    34    O    3  py     Val( 2p)     1.79881      -0.49662
    35    O    3  py     Ryd( 3p)     0.00051       1.13268
    36    O    3  pz     Val( 2p)     1.51432      -0.38641
    37    O    3  pz     Ryd( 3p)     0.00232       1.28352
    38    O    3  dxy    Ryd( 3d)     0.00199       2.31008
    39    O    3  dxz    Ryd( 3d)     0.00053       2.39713
    40    O    3  dyz    Ryd( 3d)     0.00145       2.98230
    41    O    3  dx2y2  Ryd( 3d)     0.00177       2.25446
    42    O    3  dz2    Ryd( 3d)     0.00038       2.61291

    43    H    4  S      Val( 1S)     0.47231       0.33771
    44    H    4  S      Ryd( 2S)     0.00092       0.82382
    45    H    4  px     Ryd( 2p)     0.00141       3.19245
    46    H    4  py     Ryd( 2p)     0.00084       2.79775
    47    H    4  pz     Ryd( 2p)     0.00064       2.63885

    48    H    5  S      Val( 1S)     0.48382       0.32070
    49    H    5  S      Ryd( 2S)     0.00053       0.69056
    50    H    5  px     Ryd( 2p)     0.00055       2.61614
    51    H    5  py     Ryd( 2p)     0.00105       2.81576
    52    H    5  pz     Ryd( 2p)     0.00148       3.10389

    53    H    6  S      Val( 1S)     0.48007       0.28470
    54    H    6  S      Ryd( 2S)     0.00093       0.65404
    55    H    6  px     Ryd( 2p)     0.00080       2.77187
    56    H    6  py     Ryd( 2p)     0.00123       3.09775
    57    H    6  pz     Ryd( 2p)     0.00098       2.62024

    58    H    7  S      Val( 1S)     0.48074       0.28082
    59    H    7  S      Ryd( 2S)     0.00113       0.68336
    60    H    7  px     Ryd( 2p)     0.00118       2.97121
    61    H    7  py     Ryd( 2p)     0.00099       2.95228
    62    H    7  pz     Ryd( 2p)     0.00083       2.54535

    63    H    8  S      Val( 1S)     0.50176       0.28499
    64    H    8  S      Ryd( 2S)     0.00081       0.67777
    65    H    8  px     Ryd( 2p)     0.00094       2.63780
    66    H    8  py     Ryd( 2p)     0.00110       2.87687
    67    H    8  pz     Ryd( 2p)     0.00104       2.97440

    68    H    9  S      Val( 1S)     0.48582       0.30947
    69    H    9  S      Ryd( 2S)     0.00173       0.81408
    70    H    9  px     Ryd( 2p)     0.00082       2.64452
    71    H    9  py     Ryd( 2p)     0.00091       2.76727
    72    H    9  pz     Ryd( 2p)     0.00131       3.22897


 Summary of Natural Population Analysis:                  
                                                          
                                       Natural Population 
                Natural  -----------------------------------------------
    Atom  No    Charge         Core      Valence    Rydberg      Total
 -----------------------------------------------------------------------
      O    1   -1.04698      1.99985     7.03796    0.00917     9.04698
      O    2   -1.00830      1.99986     6.99945    0.00900     9.00830
      O    3   -1.01608      1.99985     7.00559    0.01064     9.01608
      H    4    0.52389      0.00000     0.47231    0.00380     0.47611
      H    5    0.51257      0.00000     0.48382    0.00361     0.48743
      H    6    0.51599      0.00000     0.48007    0.00394     0.48401
      H    7    0.51513      0.00000     0.48074    0.00413     0.48487
      H    8    0.49436      0.00000     0.50176    0.00388     0.50564
      H    9    0.50942      0.00000     0.48582    0.00476     0.49058
 =======================================================================
   * Total *   -0.00000      5.99956    23.94751    0.05293    30.00000

                                 Natural Population      
 --------------------------------------------------------
   Core                       5.99956 ( 99.9926% of   6)
   Valence                   23.94751 ( 99.7813% of  24)
   Natural Minimal Basis     29.94707 ( 99.8236% of  30)
   Natural Rydberg Basis      0.05293 (  0.1764% of  30)
 --------------------------------------------------------

    Atom  No          Natural Electron Configuration
 ----------------------------------------------------------------------------
      O    1      [core]2S( 1.75)2p( 5.29)3d( 0.01)
      O    2      [core]2S( 1.75)2p( 5.25)3d( 0.01)
      O    3      [core]2S( 1.75)2p( 5.26)3d( 0.01)
      H    4            1S( 0.47)
      H    5            1S( 0.48)
      H    6            1S( 0.48)
      H    7            1S( 0.48)
      H    8            1S( 0.50)
      H    9            1S( 0.49)


 NBO analysis skipped by request.
 Leave Link  607 at Fri May 15 22:36:14 2020, MaxMem=   134217728 cpu:               0.6 elap:               0.2
 (Enter /home/soft/g16/l9999.exe)

 Test job not archived.
 1\1\GINC-MASTER\SP\RHF\6-31G(d,p)\H6O3\LIWEI01\15-May-2020\0\\#p hf/6-
 31g** 5d 7f pop=npa charge nosymm\\Atom number=9\\0,1\O,0,10.706017,-1
 0.848862,-10.091512\O,0,13.457564,-11.773284,-9.774029\O,0,12.813764,-
 13.018467,-7.366324\H,0,11.521407,-11.32028,-9.920812\H,0,10.567797,-1
 0.316883,-9.307849\H,0,13.908886,-10.996207,-10.103715\H,0,14.150775,-
 12.423635,-9.661183\H,0,12.4819,-12.417138,-6.699613\H,0,12.65515,-12.
 568166,-8.195965\\Version=ES64L-G16RevA.03\HF=-242.2161886\RMSD=6.243e
 -09\Dipole=1.3115594,1.0092322,0.4031919\Quadrupole=61.9179109,-46.529
 8828,-15.3880281,-4.5175069,-20.0846872,-21.7802017\PG=C01 [X(H6O3)]\\
 @


 The chemist is a guest at the physicist's table and
 frequently dines well.
                   -- Richard Bersohn
 Job cpu time:       0 days  0 hours  0 minutes  5.0 seconds.
 Elapsed time:       0 days  0 hours  0 minutes  1.4 seconds.
 File lengths (MBytes):  RWF=     72 Int=      0 D2E=      0 Chk=      8 Scr=      8
 Normal termination of Gaussian 16 at Fri May 15 22:36:14 2020.
