 Entering Gaussian System, Link 0=g16
 Input=w19_2.gjf
 Output=w19_2.log
 Initial command:
 /home/soft/g16/l1.exe "/tmp/liwei01/gaussian/liaokang/Gau-179743.inp" -scrdir="/tmp/liwei01/gaussian/liaokang/"
 Entering Link 1 = /home/soft/g16/l1.exe PID=    179745.
  
 Copyright (c) 1988,1990,1992,1993,1995,1998,2003,2009,2016,
            Gaussian, Inc.  All Rights Reserved.
  
 This is part of the Gaussian(R) 16 program.  It is based on
 the Gaussian(R) 09 system (copyright 2009, Gaussian, Inc.),
 the Gaussian(R) 03 system (copyright 2003, Gaussian, Inc.),
 the Gaussian(R) 98 system (copyright 1998, Gaussian, Inc.),
 the Gaussian(R) 94 system (copyright 1995, Gaussian, Inc.),
 the Gaussian 92(TM) system (copyright 1992, Gaussian, Inc.),
 the Gaussian 90(TM) system (copyright 1990, Gaussian, Inc.),
 the Gaussian 88(TM) system (copyright 1988, Gaussian, Inc.),
 the Gaussian 86(TM) system (copyright 1986, Carnegie Mellon
 University), and the Gaussian 82(TM) system (copyright 1983,
 Carnegie Mellon University). Gaussian is a federally registered
 trademark of Gaussian, Inc.
  
 This software contains proprietary and confidential information,
 including trade secrets, belonging to Gaussian, Inc.
  
 This software is provided under written license and may be
 used, copied, transmitted, or stored only in accord with that
 written license.
  
 The following legend is applicable only to US Government
 contracts under FAR:
  
                    RESTRICTED RIGHTS LEGEND
  
 Use, reproduction and disclosure by the US Government is
 subject to restrictions as set forth in subparagraphs (a)
 and (c) of the Commercial Computer Software - Restricted
 Rights clause in FAR 52.227-19.
  
 Gaussian, Inc.
 340 Quinnipiac St., Bldg. 40, Wallingford CT 06492
  
  
 ---------------------------------------------------------------
 Warning -- This program may not be used in any manner that
 competes with the business of Gaussian, Inc. or will provide
 assistance to any competitor of Gaussian, Inc.  The licensee
 of this program is prohibited from giving any competitor of
 Gaussian, Inc. access to this program.  By using this program,
 the user acknowledges that Gaussian, Inc. is engaged in the
 business of creating and licensing software in the field of
 computational chemistry and represents and warrants to the
 licensee that it is not a competitor of Gaussian, Inc. and that
 it will not use this program in any manner prohibited above.
 ---------------------------------------------------------------
  

 Cite this work as:
 Gaussian 16, Revision A.03,
 M. J. Frisch, G. W. Trucks, H. B. Schlegel, G. E. Scuseria, 
 M. A. Robb, J. R. Cheeseman, G. Scalmani, V. Barone, 
 G. A. Petersson, H. Nakatsuji, X. Li, M. Caricato, A. V. Marenich, 
 J. Bloino, B. G. Janesko, R. Gomperts, B. Mennucci, H. P. Hratchian, 
 J. V. Ortiz, A. F. Izmaylov, J. L. Sonnenberg, D. Williams-Young, 
 F. Ding, F. Lipparini, F. Egidi, J. Goings, B. Peng, A. Petrone, 
 T. Henderson, D. Ranasinghe, V. G. Zakrzewski, J. Gao, N. Rega, 
 G. Zheng, W. Liang, M. Hada, M. Ehara, K. Toyota, R. Fukuda, 
 J. Hasegawa, M. Ishida, T. Nakajima, Y. Honda, O. Kitao, H. Nakai, 
 T. Vreven, K. Throssell, J. A. Montgomery, Jr., J. E. Peralta, 
 F. Ogliaro, M. J. Bearpark, J. J. Heyd, E. N. Brothers, K. N. Kudin, 
 V. N. Staroverov, T. A. Keith, R. Kobayashi, J. Normand, 
 K. Raghavachari, A. P. Rendell, J. C. Burant, S. S. Iyengar, 
 J. Tomasi, M. Cossi, J. M. Millam, M. Klene, C. Adamo, R. Cammi, 
 J. W. Ochterski, R. L. Martin, K. Morokuma, O. Farkas, 
 J. B. Foresman, and D. J. Fox, Gaussian, Inc., Wallingford CT, 2016.
 
 ******************************************
 Gaussian 16:  ES64L-G16RevA.03 25-Dec-2016
                 9-May-2020 
 ******************************************
 %chk=w19_2.chk
 %nproc=6
 Will use up to    6 processors via shared memory.
 %mem=1gb
 -----------------------------------------------
 #p hf/6-31g(d) pop=npa charge nosymm Guess=read
 -----------------------------------------------
 1/18=10,28=-2,38=1,125=101,172=1/1;
 2/12=2,15=1,17=6,18=5,40=1/2;
 3/5=1,6=6,7=1,11=9,25=1,30=1,116=-2/1,2,3;
 4/5=1/1;
 5/5=2,38=6/2;
 6/7=2,8=2,9=2,10=2,28=1,40=-1/1,7;
 99/5=1,9=1/99;
 Leave Link    1 at Sat May  9 20:43:29 2020, MaxMem=   134217728 cpu:               0.5 elap:               0.1
 (Enter /home/soft/g16/l101.exe)
 --------------
 Atom number=30
 --------------
 Symbolic Z-matrix:
 Charge =  0 Multiplicity = 1
 o                    -2.75537   0.86053  -1.83712 
 o                    -3.65414  -1.40138  -0.7285 
 o                    -2.32649   0.48763   0.77299 
 o                    -5.24593   0.61138  -1.49703 
 o                    -1.18083  -1.23365  -1.13367 
 o                     0.031    -0.09685   1.14007 
 o                    -0.46073   1.40158  -1.13733 
 o                     2.04622   1.21305  -0.2748 
 o                     1.23054  -1.30525  -0.79027 
 o                     2.62569   0.09878   1.88272 
 h                    -2.42222   1.74671  -1.67805 
 h                    -2.01843   0.24914  -1.90573 
 h                    -0.58753  -0.50357  -1.32492 
 h                    -0.67503  -2.04632  -1.06057 
 h                    -3.30192  -0.9164   -1.47839 
 h                    -2.93985  -1.85957  -0.27967 
 h                    -2.70324   0.08324  -0.01194 
 h                    -3.02461   0.89989   1.28706 
 h                    -0.46162  -0.67207   0.55011 
 h                    -0.58163   0.41754   1.6708 
 h                    -0.51762   1.14089  -0.21516 
 h                     0.43937   1.66682  -1.33995 
 h                    -4.67507   0.3496   -0.77095 
 h                    -4.70923   0.84342  -2.25842 
 h                     2.83359   0.66559  -0.31877 
 h                     1.62974   1.10625   0.58354 
 h                     1.43571  -0.59562  -0.17714 
 h                     2.04548  -1.71394  -1.091 
 h                     3.31286  -0.38562   2.34614 
 h                     1.76644  -0.2542    2.12498 
 
 ITRead=  0  0  0  0  0  0  0  0  0  0  0  0  0  0  0  0  0  0  0  0
 ITRead=  0  0  0  0  0  0  0  0  0  0
 MicOpt= -1 -1 -1 -1 -1 -1 -1 -1 -1 -1 -1 -1 -1 -1 -1 -1 -1 -1 -1 -1
 MicOpt= -1 -1 -1 -1 -1 -1 -1 -1 -1 -1
 NAtoms=     30 NQM=       30 NQMF=       0 NMMI=      0 NMMIF=      0
                NMic=       0 NMicF=      0.
                    Isotopes and Nuclear Properties:
 (Nuclear quadrupole moments (NQMom) in fm**2, nuclear magnetic moments (NMagM)
  in nuclear magnetons)

  Atom         1           2           3           4           5           6           7           8           9          10
 IAtWgt=          16          16          16          16          16          16          16          16          16          16
 AtmWgt=  15.9949146  15.9949146  15.9949146  15.9949146  15.9949146  15.9949146  15.9949146  15.9949146  15.9949146  15.9949146
 NucSpn=           0           0           0           0           0           0           0           0           0           0
 AtZEff=  -0.0000000  -0.0000000  -0.0000000  -0.0000000  -0.0000000  -0.0000000  -0.0000000  -0.0000000  -0.0000000  -0.0000000
 NQMom=    0.0000000   0.0000000   0.0000000   0.0000000   0.0000000   0.0000000   0.0000000   0.0000000   0.0000000   0.0000000
 NMagM=    0.0000000   0.0000000   0.0000000   0.0000000   0.0000000   0.0000000   0.0000000   0.0000000   0.0000000   0.0000000
 AtZNuc=   8.0000000   8.0000000   8.0000000   8.0000000   8.0000000   8.0000000   8.0000000   8.0000000   8.0000000   8.0000000

  Atom        11          12          13          14          15          16          17          18          19          20
 IAtWgt=           1           1           1           1           1           1           1           1           1           1
 AtmWgt=   1.0078250   1.0078250   1.0078250   1.0078250   1.0078250   1.0078250   1.0078250   1.0078250   1.0078250   1.0078250
 NucSpn=           1           1           1           1           1           1           1           1           1           1
 AtZEff=  -0.0000000  -0.0000000  -0.0000000  -0.0000000  -0.0000000  -0.0000000  -0.0000000  -0.0000000  -0.0000000  -0.0000000
 NQMom=    0.0000000   0.0000000   0.0000000   0.0000000   0.0000000   0.0000000   0.0000000   0.0000000   0.0000000   0.0000000
 NMagM=    2.7928460   2.7928460   2.7928460   2.7928460   2.7928460   2.7928460   2.7928460   2.7928460   2.7928460   2.7928460
 AtZNuc=   1.0000000   1.0000000   1.0000000   1.0000000   1.0000000   1.0000000   1.0000000   1.0000000   1.0000000   1.0000000

  Atom        21          22          23          24          25          26          27          28          29          30
 IAtWgt=           1           1           1           1           1           1           1           1           1           1
 AtmWgt=   1.0078250   1.0078250   1.0078250   1.0078250   1.0078250   1.0078250   1.0078250   1.0078250   1.0078250   1.0078250
 NucSpn=           1           1           1           1           1           1           1           1           1           1
 AtZEff=  -0.0000000  -0.0000000  -0.0000000  -0.0000000  -0.0000000  -0.0000000  -0.0000000  -0.0000000  -0.0000000  -0.0000000
 NQMom=    0.0000000   0.0000000   0.0000000   0.0000000   0.0000000   0.0000000   0.0000000   0.0000000   0.0000000   0.0000000
 NMagM=    2.7928460   2.7928460   2.7928460   2.7928460   2.7928460   2.7928460   2.7928460   2.7928460   2.7928460   2.7928460
 AtZNuc=   1.0000000   1.0000000   1.0000000   1.0000000   1.0000000   1.0000000   1.0000000   1.0000000   1.0000000   1.0000000
 Background charge distribution read from input stream:
 Point Charges:
 XYZ=   -5.5722   -1.5938   -0.7083 Q=    0.5168 A=    0.0000 R=    0.0000 C=    0.0000
 XYZ=   -6.3748   -1.2993   -0.2715 Q=   -1.0423 A=    0.0000 R=    0.0000 C=    0.0000
 XYZ=   -6.8131   -0.6421   -0.8170 Q=    0.5265 A=    0.0000 R=    0.0000 C=    0.0000
 XYZ=   -6.2895    0.6678    0.1586 Q=    0.5250 A=    0.0000 R=    0.0000 C=    0.0000
 XYZ=   -7.1359    1.1077    0.0512 Q=   -1.0433 A=    0.0000 R=    0.0000 C=    0.0000
 XYZ=   -7.1286    1.6224   -0.7592 Q=    0.4995 A=    0.0000 R=    0.0000 C=    0.0000
 XYZ=   -5.6552    0.3934    1.7511 Q=    0.5318 A=    0.0000 R=    0.0000 C=    0.0000
 XYZ=   -4.8528    0.2311    1.2497 Q=   -1.0440 A=    0.0000 R=    0.0000 C=    0.0000
 XYZ=   -4.8822   -0.6527    0.8760 Q=    0.5211 A=    0.0000 R=    0.0000 C=    0.0000
 XYZ=   -7.7736    0.3503    1.6826 Q=    0.5141 A=    0.0000 R=    0.0000 C=    0.0000
 XYZ=   -7.3955   -0.4437    2.0677 Q=   -1.0330 A=    0.0000 R=    0.0000 C=    0.0000
 XYZ=   -7.3173   -1.1211    1.3919 Q=    0.5171 A=    0.0000 R=    0.0000 C=    0.0000
 XYZ=    3.8251   -0.5316    0.5034 Q=    0.5011 A=    0.0000 R=    0.0000 C=    0.0000
 XYZ=    3.7457   -1.0465   -0.3029 Q=   -1.0119 A=    0.0000 R=    0.0000 C=    0.0000
 XYZ=    4.6052   -1.4010   -0.5421 Q=    0.5166 A=    0.0000 R=    0.0000 C=    0.0000
 XYZ=    4.8448    0.3322   -1.1745 Q=    0.5186 A=    0.0000 R=    0.0000 C=    0.0000
 XYZ=    5.7767    0.1994   -0.9860 Q=   -1.0556 A=    0.0000 R=    0.0000 C=    0.0000
 XYZ=    6.0647    0.8388   -0.3304 Q=    0.5417 A=    0.0000 R=    0.0000 C=    0.0000
 XYZ=    4.0961    1.2037    1.4306 Q=    0.4976 A=    0.0000 R=    0.0000 C=    0.0000
 XYZ=    4.3340    1.5346    0.5614 Q=   -1.0119 A=    0.0000 R=    0.0000 C=    0.0000
 XYZ=    3.6980    2.1992    0.2869 Q=    0.5231 A=    0.0000 R=    0.0000 C=    0.0000
 XYZ=    7.1672   -0.6365    0.1161 Q=    0.5107 A=    0.0000 R=    0.0000 C=    0.0000
 XYZ=    7.4577   -0.1334    0.8804 Q=   -1.0193 A=    0.0000 R=    0.0000 C=    0.0000
 XYZ=    8.3641    0.1541    0.7486 Q=    0.5017 A=    0.0000 R=    0.0000 C=    0.0000
 XYZ=    7.4967   -0.2912   -1.7057 Q=    0.5170 A=    0.0000 R=    0.0000 C=    0.0000
 XYZ=    8.3866   -0.3824   -1.3573 Q=   -1.0080 A=    0.0000 R=    0.0000 C=    0.0000
 XYZ=    9.0078   -0.4661   -2.0844 Q=    0.4822 A=    0.0000 R=    0.0000 C=    0.0000
 Pt Chg Charge=             -0.0071 electrons
 Pt Chg Dipole moment (Debye):
    X=             -0.2503    Y=              2.2300    Z=             -7.1406  Tot=              7.4849
 Pt Chg Quadrupole moment (Debye-Ang):
   XX=            -11.3516   YY=             11.0975   ZZ=              5.7185
   XY=              4.8174   XZ=             23.3379   YZ=              2.5623
 Pt Chg Traceless Quadrupole moment (Debye-Ang):
   XX=            -13.1731   YY=              9.2760   ZZ=              3.8971
   XY=              4.8174   XZ=             23.3379   YZ=              2.5623
 Pt Chg Octapole moment (Debye-Ang**2):
  XXX=            155.3449  YYY=             13.5481  ZZZ=            -39.5356  XYY=             12.3113
  XXY=             50.0676  XXZ=           -436.3934  XZZ=             86.7342  YZZ=              6.9859
  YYZ=             -3.5913  XYZ=             10.9199
 Pt Chg Hexadecapole moment (Debye-Ang**3):
 XXXX=            883.8394 YYYY=             58.5178 ZZZZ=             10.1901 XXXY=           -340.0087
 XXXZ=            192.2631 YYYX=             18.4797 YYYZ=             -2.3424 ZZZX=              3.4590
 ZZZY=             34.9393 XXYY=            284.7050 XXZZ=            287.1470 YYZZ=             18.6801
 XXYZ=            162.4113 YYXZ=             16.6623 ZZXY=            -63.7959
 Leave Link  101 at Sat May  9 20:43:29 2020, MaxMem=   134217728 cpu:               0.9 elap:               0.2
 (Enter /home/soft/g16/l202.exe)
                          Input orientation:                          
 ---------------------------------------------------------------------
 Center     Atomic      Atomic             Coordinates (Angstroms)
 Number     Number       Type             X           Y           Z
 ---------------------------------------------------------------------
      1          8           0       -2.755374    0.860532   -1.837118
      2          8           0       -3.654142   -1.401377   -0.728501
      3          8           0       -2.326485    0.487626    0.772991
      4          8           0       -5.245927    0.611377   -1.497032
      5          8           0       -1.180829   -1.233655   -1.133670
      6          8           0        0.031004   -0.096852    1.140068
      7          8           0       -0.460735    1.401579   -1.137332
      8          8           0        2.046218    1.213048   -0.274797
      9          8           0        1.230535   -1.305251   -0.790270
     10          8           0        2.625694    0.098783    1.882723
     11          1           0       -2.422221    1.746708   -1.678052
     12          1           0       -2.018428    0.249139   -1.905735
     13          1           0       -0.587529   -0.503573   -1.324916
     14          1           0       -0.675029   -2.046319   -1.060568
     15          1           0       -3.301917   -0.916397   -1.478389
     16          1           0       -2.939855   -1.859571   -0.279668
     17          1           0       -2.703240    0.083236   -0.011945
     18          1           0       -3.024611    0.899887    1.287056
     19          1           0       -0.461618   -0.672070    0.550113
     20          1           0       -0.581631    0.417540    1.670802
     21          1           0       -0.517622    1.140889   -0.215158
     22          1           0        0.439372    1.666823   -1.339949
     23          1           0       -4.675073    0.349604   -0.770946
     24          1           0       -4.709229    0.843422   -2.258419
     25          1           0        2.833593    0.665593   -0.318771
     26          1           0        1.629741    1.106249    0.583539
     27          1           0        1.435706   -0.595624   -0.177136
     28          1           0        2.045481   -1.713938   -1.091000
     29          1           0        3.312860   -0.385621    2.346140
     30          1           0        1.766440   -0.254196    2.124979
 ---------------------------------------------------------------------
                    Distance matrix (angstroms):
                    1          2          3          4          5
     1  O    0.000000
     2  O    2.674518   0.000000
     3  O    2.671268   2.754176   0.000000
     4  O    2.525983   2.678731   3.700197   0.000000
     5  O    2.712867   2.511886   2.812596   4.478972   0.000000
     6  O    4.188570   4.332856   2.456443   5.941539   2.816158
     7  O    2.459228   4.268672   2.822352   4.863319   2.731851
     8  O    5.061660   6.287700   4.554627   7.418304   4.139789
     9  O    4.655532   4.886014   4.279088   6.790989   2.436745
    10  O    6.585847   6.964576   5.089871   8.581836   5.036233
    11  H    0.960000   3.511369   2.757184   3.048779   3.274136
    12  H    0.960000   2.604927   2.706908   3.273378   1.869849
    13  H    2.612027   3.250520   2.899597   4.793059   0.960000
    14  H    3.657957   3.066160   3.536965   5.305370   0.960000
    15  H    1.893376   0.960000   2.826918   2.472573   2.172211
    16  H    3.139848   0.960000   2.644551   3.592427   2.053111
    17  H    1.984480   1.903088   0.960000   2.991601   2.304388
    18  H    3.136000   3.123234   0.960000   3.573322   3.716375
    19  H    3.648158   3.515530   2.207329   5.359818   1.915142
    20  H    4.150530   4.301795   1.963541   5.641666   3.309162
    21  H    2.777928   4.069938   2.162215   4.927519   2.630963
    22  H    3.332219   5.152143   3.674913   5.784571   3.328720
    23  H    2.254554   2.027322   2.814011   0.960000   3.853313
    24  H    1.998834   2.914272   3.872145   0.960000   4.246047
    25  H    5.794819   6.821360   5.277312   8.165162   4.515173
    26  H    5.014897   5.994085   4.008779   7.200589   4.040206
    27  H    4.737202   5.182644   4.028679   6.916877   2.858023
    28  H    5.498436   5.719686   5.237885   7.663979   3.262142
    29  H    7.475026   7.682727   5.919424   9.434872   5.746432
    30  H    6.114543   6.232262   4.373809   7.939866   4.501615
                    6          7          8          9         10
     6  O    0.000000
     7  O    2.770136   0.000000
     8  O    2.789044   2.657879   0.000000
     9  O    2.573968   3.210573   2.696828   0.000000
    10  O    2.705962   4.510438   2.496452   3.326060   0.000000
    11  H    4.166392   2.063715   4.713901   4.842028   6.393451
    12  H    3.687383   2.084459   4.484464   3.770431   5.995239
    13  H    2.573743   1.918559   3.314537   2.057642   4.580020
    14  H    3.023525   3.455403   4.318112   2.062381   4.915201
    15  H    4.316982   3.682615   5.880962   4.600852   6.889430
    16  H    3.734814   4.185299   5.856785   4.237940   6.283822
    17  H    2.972483   2.834317   4.889060   4.243615   5.655753
    18  H    3.217433   3.564100   5.315144   5.223426   5.737816
    19  H    0.960000   2.673479   3.243977   2.249650   3.449864
    20  H    0.960000   2.978014   3.365082   3.508395   3.230086
    21  H    1.915628   0.960000   2.565549   3.061113   3.920144
    22  H    3.070472   0.960000   1.980509   3.124310   4.198139
    23  H    5.098868   4.359076   6.794664   6.133118   7.772135
    24  H    5.907930   4.429230   7.050350   6.484833   8.456042
    25  H    3.250236   3.473372   0.960000   2.583860   2.282777
    26  H    2.076809   2.723730   0.960000   2.803935   1.922183
    27  H    1.989218   2.916724   1.911427   0.960000   2.478163
    28  H    3.413320   3.998714   3.038656   0.960000   3.530671
    29  H    3.508358   5.437709   3.321060   3.875418   0.960000
    30  H    2.001636   4.283056   2.826660   3.144931   0.960000
                   11         12         13         14         15
    11  H    0.000000
    12  H    1.567673   0.000000
    13  H    2.924819   1.717963   0.000000
    14  H    4.221494   2.790726   1.567673   0.000000
    15  H    2.811736   1.785622   2.749888   2.889955   0.000000
    16  H    3.902393   2.817762   2.909418   2.402939   1.567673
    17  H    2.371080   2.020627   2.558216   3.122219   1.873003
    18  H    3.141948   3.410248   3.838159   4.439819   3.320161
    19  H    3.828729   3.050159   1.886790   2.128003   3.498831
    20  H    4.045896   3.858026   3.134137   3.679634   4.369983
    21  H    2.476806   2.430161   1.985121   3.301179   3.685170
    22  H    2.882605   2.893220   2.401119   3.886819   4.548565
    23  H    2.801800   2.890607   4.212222   4.671689   1.997196
    24  H    2.526491   2.778123   4.435565   5.104921   2.384520
    25  H    5.535344   5.121913   3.752779   4.496127   6.441420
    26  H    4.684376   4.498917   3.339164   4.237185   5.715234
    27  H    4.756350   3.953823   2.327950   2.709275   4.923538
    28  H    5.681642   4.586155   2.907308   2.740908   5.420407
    29  H    7.323394   6.848649   5.357574   5.501530   7.659245
    30  H    6.000962   5.552047   4.183914   4.395474   6.253881
                   16         17         18         19         20
    16  H    0.000000
    17  H    1.975389   0.000000
    18  H    3.174337   1.567673   0.000000
    19  H    2.870601   2.431309   3.095653   0.000000
    20  H    3.814550   2.728483   2.519537   1.567673   0.000000
    21  H    3.856700   2.436565   2.932528   1.968653   2.020935
    22  H    4.997882   3.761296   4.414581   3.139194   3.415813
    23  H    2.851805   2.129592   2.694849   4.532353   4.766866
    24  H    3.788445   3.106207   3.925751   5.312887   5.714649
    25  H    6.301641   5.575822   6.078825   3.660972   3.960264
    26  H    5.515653   4.491757   4.711742   2.745418   2.558638
    27  H    4.555613   4.197500   4.926950   2.033365   2.917367
    28  H    5.053023   5.190813   6.180053   3.172426   4.367204
    29  H    6.940017   6.478723   6.552688   4.189803   4.033387
    30  H    5.523474   4.965717   4.998819   2.760266   2.484139
                   21         22         23         24         25
    21  H    0.000000
    22  H    1.567673   0.000000
    23  H    4.268422   5.311910   0.000000
    24  H    4.672576   5.294305   1.567673   0.000000
    25  H    3.386338   2.788828   7.528903   7.790251   0.000000
    26  H    2.291351   2.330457   6.492906   6.951859   1.567673
    27  H    2.613888   2.731937   6.211899   6.645511   1.888072
    28  H    3.935306   3.751147   7.037506   7.316356   2.622904
    29  H    4.854182   5.104578   8.606036   9.330939   2.904565
    30  H    3.555200   4.178176   7.088304   7.896406   2.820770
                   26         27         28         29         30
    26  H    0.000000
    27  H    1.874206   0.000000
    28  H    3.306112   1.567673   0.000000
    29  H    2.857504   3.151941   3.896743   0.000000
    30  H    2.060469   2.350679   3.542772   1.567673   0.000000
 Symmetry turned off by external request.
 Stoichiometry    H20O10
 Framework group  C1[X(H20O10)]
 Deg. of freedom    84
 Full point group                 C1      NOp   1
 Rotational constants (GHZ):           1.4572229           0.3886835           0.3813124
 Leave Link  202 at Sat May  9 20:43:29 2020, MaxMem=   134217728 cpu:               0.1 elap:               0.0
 (Enter /home/soft/g16/l301.exe)
 Standard basis: 6-31G(d) (6D, 7F)
 Ernie: Thresh=  0.10000D-02 Tol=  0.10000D-05 Strict=F.
   190 basis functions,   360 primitive gaussians,   190 cartesian basis functions
    50 alpha electrons       50 beta electrons
       nuclear repulsion energy       777.3242503789 Hartrees.
 IExCor=    0 DFT=F Ex=HF Corr=None ExCW=0 ScaHFX=  1.000000
 ScaDFX=  1.000000  1.000000  1.000000  1.000000 ScalE2=  1.000000  1.000000
 IRadAn=      5 IRanWt=     -1 IRanGd=            0 ICorTp=0 IEmpDi=  4
 NAtoms=   30 NActive=   30 NUniq=   30 SFac= 1.00D+00 NAtFMM=   60 NAOKFM=F Big=F
 Integral buffers will be    131072 words long.
 Raffenetti 1 integral format.
 Two-electron integral symmetry is turned off.
 Background charge distribution read from rwf.
 PtFMM for NChg=        57 BoxLen=    40.00 Levels= 1 LMax=20 SMax=    31.7 ICnFMM=     1:
 Self energy of the charges =        -4.5855087742 a.u.
 MM   energy of the charges =         0.0000000000 a.u.
 Nuclei-charges interaction =         1.1988777369 a.u.
 Nuclear repulsion after external point charges =      773.9376193416 Hartrees.
 Leave Link  301 at Sat May  9 20:43:29 2020, MaxMem=   134217728 cpu:               0.5 elap:               0.1
 (Enter /home/soft/g16/l302.exe)
 NPDir=0 NMtPBC=     1 NCelOv=     1 NCel=       1 NClECP=     1 NCelD=      1
         NCelK=      1 NCelE2=     1 NClLst=     1 CellRange=     0.0.
 One-electron integrals computed using PRISM.
 NBasis=   190 RedAO= T EigKep=  7.10D-03  NBF=   190
 NBsUse=   190 1.00D-06 EigRej= -1.00D+00 NBFU=   190
 Leave Link  302 at Sat May  9 20:43:29 2020, MaxMem=   134217728 cpu:               0.8 elap:               0.2
 (Enter /home/soft/g16/l303.exe)
 DipDrv:  MaxL=1.
 Leave Link  303 at Sat May  9 20:43:29 2020, MaxMem=   134217728 cpu:               0.2 elap:               0.1
 (Enter /home/soft/g16/l401.exe)
 Initial guess from the checkpoint file:  "w19_2.chk"
 B after Tr=     0.000000    0.000000    0.000000
         Rot=    1.000000    0.000000    0.000000    0.000000 Ang=   0.00 deg.
 Guess basis will be translated and rotated to current coordinates.
 JPrj=2 DoOrth=T DoCkMO=T.
 Leave Link  401 at Sat May  9 20:43:29 2020, MaxMem=   134217728 cpu:               0.9 elap:               0.2
 (Enter /home/soft/g16/l502.exe)
 Two-electron integral symmetry not used.
 Closed shell SCF:
 Using DIIS extrapolation, IDIIS=  1040.
 NGot=   134217728 LenX=   134142456 LenY=   134105915
 Requested convergence on RMS density matrix=1.00D-08 within 128 cycles.
 Requested convergence on MAX density matrix=1.00D-06.
 Requested convergence on             energy=1.00D-06.
 No special actions if energy rises.
 Fock matrices will be formed incrementally for  20 cycles.

 Cycle   1  Pass 1  IDiag  1:
 FoFJK:  IHMeth= 1 ICntrl=       0 DoSepK=F KAlg= 0 I1Cent=           0 FoldK=F
 IRaf= 890000000 NMat=       1 IRICut=       1 DoRegI=T DoRafI=F ISym2E= 0 IDoP0=0 IntGTp=1.
 FoFCou: FMM=F IPFlag=           0 FMFlag=      100000 FMFlg1=           0
         NFxFlg=           0 DoJE=F BraDBF=F KetDBF=F FulRan=T
         wScrn=  0.000000 ICntrl=         0 IOpCl=  0 I1Cent=           0 NGrid=           0
         NMat0=    1 NMatS0=      1 NMatT0=    0 NMatD0=    1 NMtDS0=    0 NMtDT0=    0
 Symmetry not used in FoFCou.
 E= -764.780177453626    
 DIIS: error= 4.27D-03 at cycle   1 NSaved=   1.
 NSaved= 1 IEnMin= 1 EnMin= -764.780177453626     IErMin= 1 ErrMin= 4.27D-03
 ErrMax= 4.27D-03  0.00D+00 EMaxC= 1.00D-01 BMatC= 5.72D-03 BMatP= 5.72D-03
 IDIUse=3 WtCom= 9.57D-01 WtEn= 4.27D-02
 Coeff-Com:  0.100D+01
 Coeff-En:   0.100D+01
 Coeff:      0.100D+01
 Gap=     0.682 Goal=   None    Shift=    0.000
 GapD=    0.682 DampG=2.000 DampE=1.000 DampFc=2.0000 IDamp=-1.
 RMSDP=6.23D-04 MaxDP=1.41D-02              OVMax= 1.38D-02

 Cycle   2  Pass 1  IDiag  1:
 RMSU=  6.23D-04    CP:  9.99D-01
 E= -764.788192764591     Delta-E=       -0.008015310965 Rises=F Damp=F
 DIIS: error= 1.32D-03 at cycle   2 NSaved=   2.
 NSaved= 2 IEnMin= 2 EnMin= -764.788192764591     IErMin= 2 ErrMin= 1.32D-03
 ErrMax= 1.32D-03  0.00D+00 EMaxC= 1.00D-01 BMatC= 4.44D-04 BMatP= 5.72D-03
 IDIUse=3 WtCom= 9.87D-01 WtEn= 1.32D-02
 Coeff-Com:  0.844D-02 0.992D+00
 Coeff-En:   0.000D+00 0.100D+01
 Coeff:      0.832D-02 0.992D+00
 Gap=     0.634 Goal=   None    Shift=    0.000
 RMSDP=1.50D-04 MaxDP=3.93D-03 DE=-8.02D-03 OVMax= 4.47D-03

 Cycle   3  Pass 1  IDiag  1:
 RMSU=  1.10D-04    CP:  9.99D-01  1.16D+00
 E= -764.788823867167     Delta-E=       -0.000631102575 Rises=F Damp=F
 DIIS: error= 4.29D-04 at cycle   3 NSaved=   3.
 NSaved= 3 IEnMin= 3 EnMin= -764.788823867167     IErMin= 3 ErrMin= 4.29D-04
 ErrMax= 4.29D-04  0.00D+00 EMaxC= 1.00D-01 BMatC= 6.37D-05 BMatP= 4.44D-04
 IDIUse=3 WtCom= 9.96D-01 WtEn= 4.29D-03
 Coeff-Com: -0.538D-01 0.102D+00 0.952D+00
 Coeff-En:   0.000D+00 0.000D+00 0.100D+01
 Coeff:     -0.535D-01 0.102D+00 0.952D+00
 Gap=     0.635 Goal=   None    Shift=    0.000
 RMSDP=6.18D-05 MaxDP=1.70D-03 DE=-6.31D-04 OVMax= 1.96D-03

 Cycle   4  Pass 1  IDiag  1:
 RMSU=  3.62D-05    CP:  9.99D-01  1.24D+00  1.18D+00
 E= -764.788927035980     Delta-E=       -0.000103168813 Rises=F Damp=F
 DIIS: error= 2.15D-04 at cycle   4 NSaved=   4.
 NSaved= 4 IEnMin= 4 EnMin= -764.788927035980     IErMin= 4 ErrMin= 2.15D-04
 ErrMax= 2.15D-04  0.00D+00 EMaxC= 1.00D-01 BMatC= 9.15D-06 BMatP= 6.37D-05
 IDIUse=3 WtCom= 9.98D-01 WtEn= 2.15D-03
 Coeff-Com: -0.101D-01-0.103D+00 0.139D+00 0.974D+00
 Coeff-En:   0.000D+00 0.000D+00 0.000D+00 0.100D+01
 Coeff:     -0.101D-01-0.103D+00 0.139D+00 0.974D+00
 Gap=     0.634 Goal=   None    Shift=    0.000
 RMSDP=2.43D-05 MaxDP=6.93D-04 DE=-1.03D-04 OVMax= 8.04D-04

 Cycle   5  Pass 1  IDiag  1:
 RMSU=  8.74D-06    CP:  9.99D-01  1.26D+00  1.35D+00  1.16D+00
 E= -764.788940678489     Delta-E=       -0.000013642509 Rises=F Damp=F
 DIIS: error= 2.29D-05 at cycle   5 NSaved=   5.
 NSaved= 5 IEnMin= 5 EnMin= -764.788940678489     IErMin= 5 ErrMin= 2.29D-05
 ErrMax= 2.29D-05  0.00D+00 EMaxC= 1.00D-01 BMatC= 3.01D-07 BMatP= 9.15D-06
 IDIUse=1 WtCom= 1.00D+00 WtEn= 0.00D+00
 Coeff-Com:  0.426D-02 0.121D-01-0.769D-01-0.133D+00 0.119D+01
 Coeff:      0.426D-02 0.121D-01-0.769D-01-0.133D+00 0.119D+01
 Gap=     0.634 Goal=   None    Shift=    0.000
 RMSDP=6.15D-06 MaxDP=1.54D-04 DE=-1.36D-05 OVMax= 1.89D-04

 Cycle   6  Pass 1  IDiag  1:
 RMSU=  1.76D-06    CP:  9.99D-01  1.26D+00  1.38D+00  1.27D+00  1.33D+00
 E= -764.788941341647     Delta-E=       -0.000000663158 Rises=F Damp=F
 DIIS: error= 4.66D-06 at cycle   6 NSaved=   6.
 NSaved= 6 IEnMin= 6 EnMin= -764.788941341647     IErMin= 6 ErrMin= 4.66D-06
 ErrMax= 4.66D-06  0.00D+00 EMaxC= 1.00D-01 BMatC= 1.85D-08 BMatP= 3.01D-07
 IDIUse=1 WtCom= 1.00D+00 WtEn= 0.00D+00
 Coeff-Com:  0.612D-03 0.410D-02-0.908D-02-0.410D-01 0.677D-01 0.978D+00
 Coeff:      0.612D-03 0.410D-02-0.908D-02-0.410D-01 0.677D-01 0.978D+00
 Gap=     0.634 Goal=   None    Shift=    0.000
 RMSDP=1.05D-06 MaxDP=2.65D-05 DE=-6.63D-07 OVMax= 3.17D-05

 Cycle   7  Pass 1  IDiag  1:
 RMSU=  5.71D-07    CP:  9.99D-01  1.26D+00  1.38D+00  1.28D+00  1.41D+00
                    CP:  1.16D+00
 E= -764.788941370360     Delta-E=       -0.000000028714 Rises=F Damp=F
 DIIS: error= 2.96D-06 at cycle   7 NSaved=   7.
 NSaved= 7 IEnMin= 7 EnMin= -764.788941370360     IErMin= 7 ErrMin= 2.96D-06
 ErrMax= 2.96D-06  0.00D+00 EMaxC= 1.00D-01 BMatC= 2.95D-09 BMatP= 1.85D-08
 IDIUse=1 WtCom= 1.00D+00 WtEn= 0.00D+00
 Coeff-Com: -0.424D-03-0.100D-02 0.806D-02 0.104D-01-0.142D+00 0.172D+00
 Coeff-Com:  0.952D+00
 Coeff:     -0.424D-03-0.100D-02 0.806D-02 0.104D-01-0.142D+00 0.172D+00
 Coeff:      0.952D+00
 Gap=     0.634 Goal=   None    Shift=    0.000
 RMSDP=4.10D-07 MaxDP=8.53D-06 DE=-2.87D-08 OVMax= 1.26D-05

 Cycle   8  Pass 1  IDiag  1:
 RMSU=  1.50D-07    CP:  9.99D-01  1.26D+00  1.38D+00  1.28D+00  1.43D+00
                    CP:  1.31D+00  1.07D+00
 E= -764.788941374520     Delta-E=       -0.000000004160 Rises=F Damp=F
 DIIS: error= 4.71D-07 at cycle   8 NSaved=   8.
 NSaved= 8 IEnMin= 8 EnMin= -764.788941374520     IErMin= 8 ErrMin= 4.71D-07
 ErrMax= 4.71D-07  0.00D+00 EMaxC= 1.00D-01 BMatC= 9.91D-11 BMatP= 2.95D-09
 IDIUse=1 WtCom= 1.00D+00 WtEn= 0.00D+00
 Coeff-Com: -0.205D-04-0.179D-03 0.176D-03 0.215D-02 0.151D-02-0.666D-01
 Coeff-Com: -0.341D-01 0.110D+01
 Coeff:     -0.205D-04-0.179D-03 0.176D-03 0.215D-02 0.151D-02-0.666D-01
 Coeff:     -0.341D-01 0.110D+01
 Gap=     0.634 Goal=   None    Shift=    0.000
 RMSDP=9.45D-08 MaxDP=2.52D-06 DE=-4.16D-09 OVMax= 2.97D-06

 Cycle   9  Pass 1  IDiag  1:
 RMSU=  3.26D-08    CP:  9.99D-01  1.26D+00  1.38D+00  1.29D+00  1.43D+00
                    CP:  1.34D+00  1.17D+00  1.25D+00
 E= -764.788941374715     Delta-E=       -0.000000000195 Rises=F Damp=F
 DIIS: error= 1.22D-07 at cycle   9 NSaved=   9.
 NSaved= 9 IEnMin= 9 EnMin= -764.788941374715     IErMin= 9 ErrMin= 1.22D-07
 ErrMax= 1.22D-07  0.00D+00 EMaxC= 1.00D-01 BMatC= 6.05D-12 BMatP= 9.91D-11
 IDIUse=1 WtCom= 1.00D+00 WtEn= 0.00D+00
 Coeff-Com:  0.181D-04 0.625D-04-0.376D-03-0.571D-03 0.670D-02-0.573D-02
 Coeff-Com: -0.464D-01-0.457D-01 0.109D+01
 Coeff:      0.181D-04 0.625D-04-0.376D-03-0.571D-03 0.670D-02-0.573D-02
 Coeff:     -0.464D-01-0.457D-01 0.109D+01
 Gap=     0.634 Goal=   None    Shift=    0.000
 RMSDP=2.33D-08 MaxDP=7.00D-07 DE=-1.95D-10 OVMax= 9.00D-07

 Cycle  10  Pass 1  IDiag  1:
 RMSU=  1.06D-08    CP:  9.99D-01  1.26D+00  1.38D+00  1.29D+00  1.44D+00
                    CP:  1.34D+00  1.18D+00  1.34D+00  1.26D+00
 E= -764.788941374745     Delta-E=       -0.000000000030 Rises=F Damp=F
 DIIS: error= 4.64D-08 at cycle  10 NSaved=  10.
 NSaved=10 IEnMin=10 EnMin= -764.788941374745     IErMin=10 ErrMin= 4.64D-08
 ErrMax= 4.64D-08  0.00D+00 EMaxC= 1.00D-01 BMatC= 8.86D-13 BMatP= 6.05D-12
 IDIUse=1 WtCom= 1.00D+00 WtEn= 0.00D+00
 Coeff-Com:  0.526D-05 0.283D-04-0.932D-04-0.301D-03 0.134D-02 0.392D-02
 Coeff-Com: -0.762D-02-0.940D-01 0.238D+00 0.859D+00
 Coeff:      0.526D-05 0.283D-04-0.932D-04-0.301D-03 0.134D-02 0.392D-02
 Coeff:     -0.762D-02-0.940D-01 0.238D+00 0.859D+00
 Gap=     0.634 Goal=   None    Shift=    0.000
 RMSDP=6.53D-09 MaxDP=2.02D-07 DE=-3.00D-11 OVMax= 2.66D-07

 SCF Done:  E(RHF) =  -764.788941375     A.U. after   10 cycles
            NFock= 10  Conv=0.65D-08     -V/T= 2.0078
 KE= 7.588597365806D+02 PE=-3.361218275354D+03 EE= 1.063631978057D+03
 Leave Link  502 at Sat May  9 20:43:33 2020, MaxMem=   134217728 cpu:              24.3 elap:               4.1
 (Enter /home/soft/g16/l601.exe)
 Copying SCF densities to generalized density rwf, IOpCl= 0 IROHF=0.

 **********************************************************************

            Population analysis using the SCF density.

 **********************************************************************

 Alpha  occ. eigenvalues --  -20.62071 -20.58054 -20.57602 -20.57142 -20.57107
 Alpha  occ. eigenvalues --  -20.55606 -20.55409 -20.54217 -20.53723 -20.53152
 Alpha  occ. eigenvalues --   -1.41210  -1.39611  -1.37484  -1.36215  -1.35985
 Alpha  occ. eigenvalues --   -1.35280  -1.33500  -1.32449  -1.32021  -1.31541
 Alpha  occ. eigenvalues --   -0.79639  -0.78330  -0.76705  -0.74664  -0.73815
 Alpha  occ. eigenvalues --   -0.72770  -0.72039  -0.70895  -0.70265  -0.69746
 Alpha  occ. eigenvalues --   -0.66270  -0.64721  -0.63346  -0.62870  -0.58979
 Alpha  occ. eigenvalues --   -0.58438  -0.57350  -0.55493  -0.54242  -0.53904
 Alpha  occ. eigenvalues --   -0.53150  -0.52187  -0.51466  -0.51137  -0.50328
 Alpha  occ. eigenvalues --   -0.50009  -0.49471  -0.48273  -0.48139  -0.46710
 Alpha virt. eigenvalues --    0.16726   0.20205   0.24769   0.25456   0.26353
 Alpha virt. eigenvalues --    0.29245   0.29810   0.30742   0.31640   0.32526
 Alpha virt. eigenvalues --    0.33189   0.36338   0.36934   0.38901   0.39421
 Alpha virt. eigenvalues --    0.41164   0.42934   0.44485   0.46598   0.50474
 Alpha virt. eigenvalues --    0.93681   0.95602   0.98440   0.99243   1.00517
 Alpha virt. eigenvalues --    1.02062   1.02684   1.03278   1.04751   1.04928
 Alpha virt. eigenvalues --    1.06268   1.06926   1.08282   1.08605   1.10745
 Alpha virt. eigenvalues --    1.11307   1.12295   1.14045   1.14698   1.15526
 Alpha virt. eigenvalues --    1.16090   1.17195   1.18421   1.20060   1.21692
 Alpha virt. eigenvalues --    1.22072   1.24360   1.26266   1.26550   1.28077
 Alpha virt. eigenvalues --    1.29112   1.31821   1.33420   1.33838   1.35971
 Alpha virt. eigenvalues --    1.36705   1.37591   1.38801   1.39451   1.40652
 Alpha virt. eigenvalues --    1.42808   1.44545   1.45259   1.45648   1.47959
 Alpha virt. eigenvalues --    1.49581   1.51593   1.52479   1.53200   1.54504
 Alpha virt. eigenvalues --    1.57018   1.60281   1.62912   1.65547   1.67700
 Alpha virt. eigenvalues --    1.70401   1.71402   1.78125   1.85653   1.93122
 Alpha virt. eigenvalues --    1.96353   1.98867   1.99543   2.00560   2.00688
 Alpha virt. eigenvalues --    2.01178   2.01793   2.03275   2.04071   2.04843
 Alpha virt. eigenvalues --    2.05256   2.05763   2.05955   2.06379   2.07537
 Alpha virt. eigenvalues --    2.08279   2.09482   2.10146   2.11481   2.12599
 Alpha virt. eigenvalues --    2.13397   2.14255   2.16910   2.17454   2.18534
 Alpha virt. eigenvalues --    2.20032   2.22050   2.26379   2.30247   2.46554
 Alpha virt. eigenvalues --    2.56824   2.62659   2.65505   2.66993   2.68123
 Alpha virt. eigenvalues --    2.69809   2.71798   2.75548   2.76513   2.79536
 Alpha virt. eigenvalues --    2.91280   2.94524   2.95502   2.96475   2.98967
 Alpha virt. eigenvalues --    2.99633   3.02385   3.03444   3.05625   3.08608
 Alpha virt. eigenvalues --    3.98423   4.07897   4.12342   4.15018   4.20507
 Alpha virt. eigenvalues --    4.21082   4.25135   4.29129   4.38662   4.51187
          Condensed to atoms (all electrons):
               1          2          3          4          5          6
     1  O    8.527784  -0.015265  -0.015112  -0.026039  -0.011017  -0.000029
     2  O   -0.015265   8.486704  -0.015290  -0.011253  -0.026817  -0.000011
     3  O   -0.015112  -0.015290   8.602700  -0.000489  -0.003772  -0.037582
     4  O   -0.026039  -0.011253  -0.000489   8.504417  -0.000013  -0.000000
     5  O   -0.011017  -0.026817  -0.003772  -0.000013   8.570600  -0.014111
     6  O   -0.000029  -0.000011  -0.037582  -0.000000  -0.014111   8.544699
     7  O   -0.031653  -0.000023  -0.006743  -0.000001  -0.018293  -0.014814
     8  O   -0.000000  -0.000000  -0.000005  -0.000000  -0.000045  -0.011055
     9  O    0.000001  -0.000001  -0.000020  -0.000000  -0.039293  -0.011056
    10  O   -0.000000  -0.000000  -0.000000  -0.000000  -0.000000  -0.015232
    11  H    0.262962   0.000632   0.002210   0.000995   0.000423   0.000010
    12  H    0.238409   0.001109   0.001071   0.000656   0.018138   0.000036
    13  H   -0.000681   0.000628   0.000102   0.000002   0.214351   0.002942
    14  H    0.000390   0.000838   0.000143   0.000000   0.258024   0.000529
    15  H    0.013796   0.249745   0.000502   0.005159   0.004717   0.000021
    16  H    0.000345   0.263932   0.003451   0.000608   0.007929  -0.000038
    17  H    0.018964   0.030996   0.210391   0.000722  -0.000824   0.001368
    18  H    0.000610   0.000207   0.265362   0.000069   0.000207   0.000881
    19  H    0.000012  -0.000078   0.002870   0.000000   0.039230   0.231370
    20  H    0.000024   0.000013   0.016031   0.000000   0.000112   0.256305
    21  H    0.001184   0.000024   0.013447   0.000000   0.002213   0.029204
    22  H    0.000767   0.000000   0.000258   0.000000   0.000560   0.000019
    23  H    0.001367   0.011767   0.004005   0.259517   0.000017   0.000002
    24  H    0.013608   0.000559   0.000045   0.271564  -0.000002  -0.000000
    25  H    0.000000   0.000000   0.000000   0.000000   0.000005   0.000218
    26  H    0.000001  -0.000000  -0.000053   0.000000  -0.000002   0.015274
    27  H   -0.000003   0.000000   0.000033  -0.000000   0.001695  -0.001585
    28  H    0.000000   0.000000   0.000000   0.000000   0.001092   0.000473
    29  H    0.000000   0.000000   0.000000   0.000000   0.000000   0.000418
    30  H    0.000000   0.000000   0.000026   0.000000   0.000005   0.023043
               7          8          9         10         11         12
     1  O   -0.031653  -0.000000   0.000001  -0.000000   0.262962   0.238409
     2  O   -0.000023  -0.000000  -0.000001  -0.000000   0.000632   0.001109
     3  O   -0.006743  -0.000005  -0.000020  -0.000000   0.002210   0.001071
     4  O   -0.000001  -0.000000  -0.000000  -0.000000   0.000995   0.000656
     5  O   -0.018293  -0.000045  -0.039293  -0.000000   0.000423   0.018138
     6  O   -0.014814  -0.011055  -0.011056  -0.015232   0.000010   0.000036
     7  O    8.538276  -0.015120  -0.000897  -0.000010   0.011587   0.003523
     8  O   -0.015120   8.488681  -0.017795  -0.027495   0.000004  -0.000001
     9  O   -0.000897  -0.017795   8.540246  -0.001029   0.000003  -0.000238
    10  O   -0.000010  -0.027495  -0.001029   8.503541   0.000000   0.000000
    11  H    0.011587   0.000004   0.000003   0.000000   0.245110  -0.011596
    12  H    0.003523  -0.000001  -0.000238   0.000000  -0.011596   0.255439
    13  H    0.042959   0.000217   0.014866  -0.000000  -0.000100  -0.000051
    14  H    0.000415   0.000023   0.013992   0.000000  -0.000015   0.000126
    15  H   -0.000053   0.000000   0.000014   0.000000  -0.000269  -0.001580
    16  H    0.000014   0.000000  -0.000016  -0.000000  -0.000039  -0.000182
    17  H    0.000466   0.000000   0.000002   0.000000  -0.000192  -0.001992
    18  H    0.000157   0.000000   0.000000   0.000000   0.000016  -0.000022
    19  H    0.001657   0.000649   0.003046   0.000132  -0.000016  -0.000275
    20  H    0.000470   0.000325   0.000532   0.000315  -0.000007  -0.000005
    21  H    0.227293   0.000288  -0.000186  -0.000011   0.000136  -0.000481
    22  H    0.258164   0.016602   0.000579   0.000040   0.000048  -0.000077
    23  H   -0.000001   0.000000   0.000000   0.000000   0.000056   0.000093
    24  H    0.000015   0.000000  -0.000000   0.000000  -0.000208   0.000123
    25  H    0.000544   0.263254   0.002812   0.007111  -0.000000  -0.000000
    26  H    0.002098   0.251921   0.000285   0.001918  -0.000001  -0.000002
    27  H   -0.000079   0.025743   0.225446   0.008004  -0.000000   0.000023
    28  H    0.000013   0.000630   0.267255   0.000010  -0.000000  -0.000001
    29  H    0.000000   0.001238   0.000032   0.258731  -0.000000  -0.000000
    30  H    0.000044   0.000666   0.000498   0.246392  -0.000000   0.000000
              13         14         15         16         17         18
     1  O   -0.000681   0.000390   0.013796   0.000345   0.018964   0.000610
     2  O    0.000628   0.000838   0.249745   0.263932   0.030996   0.000207
     3  O    0.000102   0.000143   0.000502   0.003451   0.210391   0.265362
     4  O    0.000002   0.000000   0.005159   0.000608   0.000722   0.000069
     5  O    0.214351   0.258024   0.004717   0.007929  -0.000824   0.000207
     6  O    0.002942   0.000529   0.000021  -0.000038   0.001368   0.000881
     7  O    0.042959   0.000415  -0.000053   0.000014   0.000466   0.000157
     8  O    0.000217   0.000023   0.000000   0.000000   0.000000   0.000000
     9  O    0.014866   0.013992   0.000014  -0.000016   0.000002   0.000000
    10  O   -0.000000   0.000000   0.000000  -0.000000   0.000000   0.000000
    11  H   -0.000100  -0.000015  -0.000269  -0.000039  -0.000192   0.000016
    12  H   -0.000051   0.000126  -0.001580  -0.000182  -0.001992  -0.000022
    13  H    0.222630  -0.008652  -0.000078   0.000011  -0.000350  -0.000009
    14  H   -0.008652   0.249932   0.000094  -0.000442   0.000186  -0.000007
    15  H   -0.000078   0.000094   0.242945  -0.013838  -0.002865  -0.000013
    16  H    0.000011  -0.000442  -0.013838   0.261182  -0.001438  -0.000029
    17  H   -0.000350   0.000186  -0.002865  -0.001438   0.205146  -0.008409
    18  H   -0.000009  -0.000007  -0.000013  -0.000029  -0.008409   0.243323
    19  H   -0.004004  -0.000487  -0.000042   0.000465  -0.000256   0.000135
    20  H   -0.000114   0.000005  -0.000004   0.000012  -0.000056  -0.000605
    21  H   -0.004255  -0.000038   0.000005  -0.000031  -0.000844  -0.000083
    22  H   -0.000643  -0.000026  -0.000002  -0.000000  -0.000017  -0.000005
    23  H   -0.000000  -0.000001  -0.004143  -0.000278   0.003511   0.000593
    24  H   -0.000000  -0.000001   0.000708  -0.000027  -0.000032  -0.000016
    25  H   -0.000013  -0.000004  -0.000000   0.000000   0.000000   0.000000
    26  H   -0.000011  -0.000007   0.000000   0.000000   0.000000  -0.000000
    27  H   -0.001007  -0.000095  -0.000001  -0.000001  -0.000001  -0.000001
    28  H   -0.000019  -0.000414  -0.000000   0.000000  -0.000000   0.000000
    29  H   -0.000000  -0.000000  -0.000000   0.000000  -0.000000  -0.000000
    30  H   -0.000009   0.000001  -0.000000   0.000000  -0.000001  -0.000001
              19         20         21         22         23         24
     1  O    0.000012   0.000024   0.001184   0.000767   0.001367   0.013608
     2  O   -0.000078   0.000013   0.000024   0.000000   0.011767   0.000559
     3  O    0.002870   0.016031   0.013447   0.000258   0.004005   0.000045
     4  O    0.000000   0.000000   0.000000   0.000000   0.259517   0.271564
     5  O    0.039230   0.000112   0.002213   0.000560   0.000017  -0.000002
     6  O    0.231370   0.256305   0.029204   0.000019   0.000002  -0.000000
     7  O    0.001657   0.000470   0.227293   0.258164  -0.000001   0.000015
     8  O    0.000649   0.000325   0.000288   0.016602   0.000000   0.000000
     9  O    0.003046   0.000532  -0.000186   0.000579   0.000000  -0.000000
    10  O    0.000132   0.000315  -0.000011   0.000040   0.000000   0.000000
    11  H   -0.000016  -0.000007   0.000136   0.000048   0.000056  -0.000208
    12  H   -0.000275  -0.000005  -0.000481  -0.000077   0.000093   0.000123
    13  H   -0.004004  -0.000114  -0.004255  -0.000643  -0.000000  -0.000000
    14  H   -0.000487   0.000005  -0.000038  -0.000026  -0.000001  -0.000001
    15  H   -0.000042  -0.000004   0.000005  -0.000002  -0.004143   0.000708
    16  H    0.000465   0.000012  -0.000031  -0.000000  -0.000278  -0.000027
    17  H   -0.000256  -0.000056  -0.000844  -0.000017   0.003511  -0.000032
    18  H    0.000135  -0.000605  -0.000083  -0.000005   0.000593  -0.000016
    19  H    0.221567  -0.009982  -0.003084  -0.000008  -0.000005   0.000000
    20  H   -0.009982   0.245199   0.000357   0.000005  -0.000003  -0.000000
    21  H   -0.003084   0.000357   0.241405  -0.009926  -0.000003  -0.000001
    22  H   -0.000008   0.000005  -0.009926   0.241249  -0.000000  -0.000000
    23  H   -0.000005  -0.000003  -0.000003  -0.000000   0.236474  -0.018131
    24  H    0.000000  -0.000000  -0.000001  -0.000000  -0.018131   0.252328
    25  H   -0.000039  -0.000012   0.000039  -0.000071  -0.000000  -0.000000
    26  H   -0.000423  -0.000504   0.001178  -0.001123  -0.000000  -0.000000
    27  H   -0.002399   0.000395  -0.000291  -0.000259  -0.000000   0.000000
    28  H    0.000006  -0.000019   0.000016   0.000002  -0.000000   0.000000
    29  H   -0.000011  -0.000012   0.000001  -0.000002  -0.000000  -0.000000
    30  H    0.000220  -0.000208  -0.000066  -0.000011  -0.000000   0.000000
              25         26         27         28         29         30
     1  O    0.000000   0.000001  -0.000003   0.000000   0.000000   0.000000
     2  O    0.000000  -0.000000   0.000000   0.000000   0.000000   0.000000
     3  O    0.000000  -0.000053   0.000033   0.000000   0.000000   0.000026
     4  O    0.000000   0.000000  -0.000000   0.000000   0.000000   0.000000
     5  O    0.000005  -0.000002   0.001695   0.001092   0.000000   0.000005
     6  O    0.000218   0.015274  -0.001585   0.000473   0.000418   0.023043
     7  O    0.000544   0.002098  -0.000079   0.000013   0.000000   0.000044
     8  O    0.263254   0.251921   0.025743   0.000630   0.001238   0.000666
     9  O    0.002812   0.000285   0.225446   0.267255   0.000032   0.000498
    10  O    0.007111   0.001918   0.008004   0.000010   0.258731   0.246392
    11  H   -0.000000  -0.000001  -0.000000  -0.000000  -0.000000  -0.000000
    12  H   -0.000000  -0.000002   0.000023  -0.000001  -0.000000   0.000000
    13  H   -0.000013  -0.000011  -0.001007  -0.000019  -0.000000  -0.000009
    14  H   -0.000004  -0.000007  -0.000095  -0.000414  -0.000000   0.000001
    15  H   -0.000000   0.000000  -0.000001  -0.000000  -0.000000  -0.000000
    16  H    0.000000   0.000000  -0.000001   0.000000   0.000000   0.000000
    17  H    0.000000   0.000000  -0.000001  -0.000000  -0.000000  -0.000001
    18  H    0.000000  -0.000000  -0.000001   0.000000  -0.000000  -0.000001
    19  H   -0.000039  -0.000423  -0.002399   0.000006  -0.000011   0.000220
    20  H   -0.000012  -0.000504   0.000395  -0.000019  -0.000012  -0.000208
    21  H    0.000039   0.001178  -0.000291   0.000016   0.000001  -0.000066
    22  H   -0.000071  -0.001123  -0.000259   0.000002  -0.000002  -0.000011
    23  H   -0.000000  -0.000000  -0.000000  -0.000000  -0.000000  -0.000000
    24  H   -0.000000  -0.000000   0.000000   0.000000  -0.000000   0.000000
    25  H    0.248162  -0.015240   0.001317   0.000288  -0.000197  -0.000093
    26  H   -0.015240   0.243267  -0.002676   0.000013   0.000352  -0.001252
    27  H    0.001317  -0.002676   0.236370  -0.009614  -0.000047  -0.000603
    28  H    0.000288   0.000013  -0.009614   0.261216   0.000008   0.000004
    29  H   -0.000197   0.000352  -0.000047   0.000008   0.291791  -0.007885
    30  H   -0.000093  -0.001252  -0.000603   0.000004  -0.007885   0.227154
 Mulliken charges:
               1
     1  O   -0.980425
     2  O   -0.978418
     3  O   -1.043582
     4  O   -1.005915
     5  O   -1.005128
     6  O   -1.001298
     7  O   -1.000007
     8  O   -0.978725
     9  O   -0.999077
    10  O   -0.982416
    11  H    0.488254
    12  H    0.497756
    13  H    0.521287
    14  H    0.485492
    15  H    0.505185
    16  H    0.478411
    17  H    0.545525
    18  H    0.497639
    19  H    0.519749
    20  H    0.491430
    21  H    0.502513
    22  H    0.493877
    23  H    0.505164
    24  H    0.479467
    25  H    0.491920
    26  H    0.504987
    27  H    0.519637
    28  H    0.479043
    29  H    0.455581
    30  H    0.512076
 Sum of Mulliken charges =  -0.00000
 Mulliken charges with hydrogens summed into heavy atoms:
               1
     1  O    0.005585
     2  O    0.005179
     3  O   -0.000418
     4  O   -0.021284
     5  O    0.001651
     6  O    0.009880
     7  O   -0.003617
     8  O    0.018181
     9  O   -0.000397
    10  O   -0.014759
 Electronic spatial extent (au):  <R**2>=           3469.1164
 Charge=             -0.0000 electrons
 Dipole moment (field-independent basis, Debye):
    X=              9.5619    Y=             -2.2686    Z=              3.9582  Tot=             10.5946
 Quadrupole moment (field-independent basis, Debye-Ang):
   XX=           -103.6296   YY=            -61.5574   ZZ=            -56.4287
   XY=            -14.1030   XZ=            -14.2064   YZ=              0.3154
 Traceless Quadrupole moment (field-independent basis, Debye-Ang):
   XX=            -29.7577   YY=             12.3145   ZZ=             17.4432
   XY=            -14.1030   XZ=            -14.2064   YZ=              0.3154
 Octapole moment (field-independent basis, Debye-Ang**2):
  XXX=            535.8179  YYY=            -24.2200  ZZZ=             83.6712  XYY=             63.6103
  XXY=            -13.0323  XXZ=            111.0607  XZZ=             76.5533  YZZ=             -4.7454
  YYZ=             21.0296  XYZ=             -5.4393
 Hexadecapole moment (field-independent basis, Debye-Ang**3):
 XXXX=          -4361.2380 YYYY=           -403.4723 ZZZZ=           -567.3418 XXXY=           -108.8355
 XXXZ=           -801.0677 YYYX=            -38.1831 YYYZ=             11.2847 ZZZX=           -326.5318
 ZZZY=             -7.1668 XXYY=           -568.0387 XXZZ=           -522.2129 YYZZ=           -163.2764
 XXYZ=            -11.6397 YYXZ=           -142.7309 ZZXY=            -48.7949
 N-N= 7.739376193416D+02 E-N=-3.361218269498D+03  KE= 7.588597365806D+02
 No NMR shielding tensors so no spin-rotation constants.
 Leave Link  601 at Sat May  9 20:43:34 2020, MaxMem=   134217728 cpu:               0.6 elap:               0.1
 (Enter /home/soft/g16/l607.exe)
 ******************************Gaussian NBO Version 3.1******************************
             N A T U R A L   A T O M I C   O R B I T A L   A N D
          N A T U R A L   B O N D   O R B I T A L   A N A L Y S I S
 ******************************Gaussian NBO Version 3.1******************************
       /RESON  / : Allow strongly delocalized NBO set

 Analyzing the SCF density

 Job title: Atom number=30                                                  

 Storage needed:    111220 in NPA ( 134213048 available)


 NATURAL POPULATIONS:  Natural atomic orbital occupancies 
                                                          
   NAO  Atom  No  lang   Type(AO)    Occupancy      Energy
 ----------------------------------------------------------
     1    O    1  S      Cor( 1S)     1.99989     -20.37867
     2    O    1  S      Val( 2S)     1.72571      -1.17367
     3    O    1  S      Ryd( 3S)     0.00128       1.70811
     4    O    1  S      Ryd( 4S)     0.00005       4.00044
     5    O    1  px     Val( 2p)     1.77724      -0.45405
     6    O    1  px     Ryd( 3p)     0.00051       1.47969
     7    O    1  py     Val( 2p)     1.55482      -0.37791
     8    O    1  py     Ryd( 3p)     0.00118       1.43975
     9    O    1  pz     Val( 2p)     1.97425      -0.49847
    10    O    1  pz     Ryd( 3p)     0.00068       1.32906
    11    O    1  dxy    Ryd( 3d)     0.00207       2.73208
    12    O    1  dxz    Ryd( 3d)     0.00114       2.11317
    13    O    1  dyz    Ryd( 3d)     0.00014       2.12987
    14    O    1  dx2y2  Ryd( 3d)     0.00115       2.32225
    15    O    1  dz2    Ryd( 3d)     0.00109       2.46414

    16    O    2  S      Cor( 1S)     1.99989     -20.39443
    17    O    2  S      Val( 2S)     1.72985      -1.18528
    18    O    2  S      Ryd( 3S)     0.00066       1.82710
    19    O    2  S      Ryd( 4S)     0.00002       4.06617
    20    O    2  px     Val( 2p)     1.79062      -0.47345
    21    O    2  px     Ryd( 3p)     0.00058       1.29636
    22    O    2  py     Val( 2p)     1.81471      -0.46276
    23    O    2  py     Ryd( 3p)     0.00105       1.35448
    24    O    2  pz     Val( 2p)     1.69347      -0.42446
    25    O    2  pz     Ryd( 3p)     0.00128       1.32950
    26    O    2  dxy    Ryd( 3d)     0.00179       2.43633
    27    O    2  dxz    Ryd( 3d)     0.00177       2.46446
    28    O    2  dyz    Ryd( 3d)     0.00082       2.47488
    29    O    2  dx2y2  Ryd( 3d)     0.00104       2.13115
    30    O    2  dz2    Ryd( 3d)     0.00056       2.15713

    31    O    3  S      Cor( 1S)     1.99987     -20.35269
    32    O    3  S      Val( 2S)     1.72824      -1.15015
    33    O    3  S      Ryd( 3S)     0.00164       1.89118
    34    O    3  S      Ryd( 4S)     0.00005       3.86131
    35    O    3  px     Val( 2p)     1.77740      -0.42506
    36    O    3  px     Ryd( 3p)     0.00058       1.47568
    37    O    3  py     Val( 2p)     1.86827      -0.44295
    38    O    3  py     Ryd( 3p)     0.00066       1.33093
    39    O    3  pz     Val( 2p)     1.68374      -0.39315
    40    O    3  pz     Ryd( 3p)     0.00115       1.44741
    41    O    3  dxy    Ryd( 3d)     0.00141       2.35554
    42    O    3  dxz    Ryd( 3d)     0.00176       2.57407
    43    O    3  dyz    Ryd( 3d)     0.00061       2.47514
    44    O    3  dx2y2  Ryd( 3d)     0.00097       2.15743
    45    O    3  dz2    Ryd( 3d)     0.00051       2.25112

    46    O    4  S      Cor( 1S)     1.99990     -20.36773
    47    O    4  S      Val( 2S)     1.73236      -1.14462
    48    O    4  S      Ryd( 3S)     0.00065       1.67213
    49    O    4  S      Ryd( 4S)     0.00001       3.98855
    50    O    4  px     Val( 2p)     1.80570      -0.44286
    51    O    4  px     Ryd( 3p)     0.00036       1.24700
    52    O    4  py     Val( 2p)     1.95017      -0.46855
    53    O    4  py     Ryd( 3p)     0.00064       1.23104
    54    O    4  pz     Val( 2p)     1.55807      -0.34581
    55    O    4  pz     Ryd( 3p)     0.00153       1.37210
    56    O    4  dxy    Ryd( 3d)     0.00151       2.17800
    57    O    4  dxz    Ryd( 3d)     0.00247       2.82234
    58    O    4  dyz    Ryd( 3d)     0.00030       2.22112
    59    O    4  dx2y2  Ryd( 3d)     0.00146       2.19788
    60    O    4  dz2    Ryd( 3d)     0.00041       2.24058

    61    O    5  S      Cor( 1S)     1.99987     -20.39597
    62    O    5  S      Val( 2S)     1.72775      -1.20047
    63    O    5  S      Ryd( 3S)     0.00099       1.69168
    64    O    5  S      Ryd( 4S)     0.00003       4.14887
    65    O    5  px     Val( 2p)     1.80988      -0.48745
    66    O    5  px     Ryd( 3p)     0.00037       1.45418
    67    O    5  py     Val( 2p)     1.55573      -0.40445
    68    O    5  py     Ryd( 3p)     0.00121       1.44191
    69    O    5  pz     Val( 2p)     1.95720      -0.51414
    70    O    5  pz     Ryd( 3p)     0.00052       1.34847
    71    O    5  dxy    Ryd( 3d)     0.00249       2.84603
    72    O    5  dxz    Ryd( 3d)     0.00127       2.12954
    73    O    5  dyz    Ryd( 3d)     0.00014       2.11249
    74    O    5  dx2y2  Ryd( 3d)     0.00074       2.16255
    75    O    5  dz2    Ryd( 3d)     0.00112       2.40146

    76    O    6  S      Cor( 1S)     1.99987     -20.40068
    77    O    6  S      Val( 2S)     1.72599      -1.20214
    78    O    6  S      Ryd( 3S)     0.00089       1.73494
    79    O    6  S      Ryd( 4S)     0.00003       4.16323
    80    O    6  px     Val( 2p)     1.79878      -0.48623
    81    O    6  px     Ryd( 3p)     0.00051       1.43254
    82    O    6  py     Val( 2p)     1.76536      -0.46271
    83    O    6  py     Ryd( 3p)     0.00103       1.38086
    84    O    6  pz     Val( 2p)     1.75889      -0.46444
    85    O    6  pz     Ryd( 3p)     0.00107       1.40513
    86    O    6  dxy    Ryd( 3d)     0.00179       2.48130
    87    O    6  dxz    Ryd( 3d)     0.00183       2.49608
    88    O    6  dyz    Ryd( 3d)     0.00087       2.52020
    89    O    6  dx2y2  Ryd( 3d)     0.00070       2.07635
    90    O    6  dz2    Ryd( 3d)     0.00028       2.03046

    91    O    7  S      Cor( 1S)     1.99988     -20.37447
    92    O    7  S      Val( 2S)     1.72791      -1.17012
    93    O    7  S      Ryd( 3S)     0.00071       1.79795
    94    O    7  S      Ryd( 4S)     0.00002       4.19642
    95    O    7  px     Val( 2p)     1.70609      -0.42076
    96    O    7  px     Ryd( 3p)     0.00097       1.42776
    97    O    7  py     Val( 2p)     1.92612      -0.48242
    98    O    7  py     Ryd( 3p)     0.00092       1.33269
    99    O    7  pz     Val( 2p)     1.67360      -0.41322
   100    O    7  pz     Ryd( 3p)     0.00140       1.34312
   101    O    7  dxy    Ryd( 3d)     0.00103       2.20138
   102    O    7  dxz    Ryd( 3d)     0.00089       2.13296
   103    O    7  dyz    Ryd( 3d)     0.00079       2.20358
   104    O    7  dx2y2  Ryd( 3d)     0.00154       2.41258
   105    O    7  dz2    Ryd( 3d)     0.00206       2.70308

   106    O    8  S      Cor( 1S)     1.99989     -20.39717
   107    O    8  S      Val( 2S)     1.73328      -1.18671
   108    O    8  S      Ryd( 3S)     0.00048       1.64950
   109    O    8  S      Ryd( 4S)     0.00002       4.02403
   110    O    8  px     Val( 2p)     1.68258      -0.42274
   111    O    8  px     Ryd( 3p)     0.00125       1.39094
   112    O    8  py     Val( 2p)     1.88479      -0.49101
   113    O    8  py     Ryd( 3p)     0.00076       1.32410
   114    O    8  pz     Val( 2p)     1.72831      -0.44571
   115    O    8  pz     Ryd( 3p)     0.00099       1.29467
   116    O    8  dxy    Ryd( 3d)     0.00146       2.51517
   117    O    8  dxz    Ryd( 3d)     0.00110       2.35624
   118    O    8  dyz    Ryd( 3d)     0.00127       2.07279
   119    O    8  dx2y2  Ryd( 3d)     0.00079       2.13499
   120    O    8  dz2    Ryd( 3d)     0.00207       2.52010

   121    O    9  S      Cor( 1S)     1.99988     -20.36721
   122    O    9  S      Val( 2S)     1.73189      -1.15625
   123    O    9  S      Ryd( 3S)     0.00161       1.69985
   124    O    9  S      Ryd( 4S)     0.00003       3.95663
   125    O    9  px     Val( 2p)     1.73295      -0.41529
   126    O    9  px     Ryd( 3p)     0.00065       1.49883
   127    O    9  py     Val( 2p)     1.75346      -0.42015
   128    O    9  py     Ryd( 3p)     0.00100       1.34386
   129    O    9  pz     Val( 2p)     1.81917      -0.43810
   130    O    9  pz     Ryd( 3p)     0.00082       1.32202
   131    O    9  dxy    Ryd( 3d)     0.00136       2.36973
   132    O    9  dxz    Ryd( 3d)     0.00126       2.26905
   133    O    9  dyz    Ryd( 3d)     0.00102       2.60428
   134    O    9  dx2y2  Ryd( 3d)     0.00132       2.33733
   135    O    9  dz2    Ryd( 3d)     0.00066       2.16762

   136    O   10  S      Cor( 1S)     1.99990     -20.45775
   137    O   10  S      Val( 2S)     1.74316      -1.22906
   138    O   10  S      Ryd( 3S)     0.00121       1.52317
   139    O   10  S      Ryd( 4S)     0.00002       3.96472
   140    O   10  px     Val( 2p)     1.53416      -0.42708
   141    O   10  px     Ryd( 3p)     0.00140       1.29149
   142    O   10  py     Val( 2p)     1.86567      -0.52878
   143    O   10  py     Ryd( 3p)     0.00024       1.21961
   144    O   10  pz     Val( 2p)     1.88624      -0.53288
   145    O   10  pz     Ryd( 3p)     0.00042       1.26879
   146    O   10  dxy    Ryd( 3d)     0.00154       2.45659
   147    O   10  dxz    Ryd( 3d)     0.00102       2.29063
   148    O   10  dyz    Ryd( 3d)     0.00188       2.16785
   149    O   10  dx2y2  Ryd( 3d)     0.00086       2.21889
   150    O   10  dz2    Ryd( 3d)     0.00109       2.14220

   151    H   11  S      Val( 1S)     0.46507       0.37252
   152    H   11  S      Ryd( 2S)     0.00085       0.79202

   153    H   12  S      Val( 1S)     0.48222       0.33720
   154    H   12  S      Ryd( 2S)     0.00182       0.98652

   155    H   13  S      Val( 1S)     0.45853       0.33023
   156    H   13  S      Ryd( 2S)     0.00325       1.09052

   157    H   14  S      Val( 1S)     0.46988       0.34908
   158    H   14  S      Ryd( 2S)     0.00074       0.80801

   159    H   15  S      Val( 1S)     0.47226       0.33439
   160    H   15  S      Ryd( 2S)     0.00179       0.95260

   161    H   16  S      Val( 1S)     0.48095       0.34298
   162    H   16  S      Ryd( 2S)     0.00092       0.82849

   163    H   17  S      Val( 1S)     0.47300       0.36761
   164    H   17  S      Ryd( 2S)     0.00373       1.14500

   165    H   18  S      Val( 1S)     0.46925       0.41161
   166    H   18  S      Ryd( 2S)     0.00031       0.76369

   167    H   19  S      Val( 1S)     0.45679       0.33725
   168    H   19  S      Ryd( 2S)     0.00352       0.98870

   169    H   20  S      Val( 1S)     0.46804       0.34706
   170    H   20  S      Ryd( 2S)     0.00098       0.82610

   171    H   21  S      Val( 1S)     0.47839       0.34091
   172    H   21  S      Ryd( 2S)     0.00259       1.00280

   173    H   22  S      Val( 1S)     0.47469       0.37777
   174    H   22  S      Ryd( 2S)     0.00091       0.81765

   175    H   23  S      Val( 1S)     0.47682       0.37829
   176    H   23  S      Ryd( 2S)     0.00141       0.90418

   177    H   24  S      Val( 1S)     0.48169       0.36987
   178    H   24  S      Ryd( 2S)     0.00074       0.80233

   179    H   25  S      Val( 1S)     0.47320       0.35561
   180    H   25  S      Ryd( 2S)     0.00051       0.81485

   181    H   26  S      Val( 1S)     0.47917       0.32447
   182    H   26  S      Ryd( 2S)     0.00161       0.96111

   183    H   27  S      Val( 1S)     0.47712       0.35865
   184    H   27  S      Ryd( 2S)     0.00288       1.05679

   185    H   28  S      Val( 1S)     0.48163       0.38308
   186    H   28  S      Ryd( 2S)     0.00033       0.73240

   187    H   29  S      Val( 1S)     0.50667       0.27485
   188    H   29  S      Ryd( 2S)     0.00059       0.65383

   189    H   30  S      Val( 1S)     0.45615       0.32355
   190    H   30  S      Ryd( 2S)     0.00117       0.79499


 Summary of Natural Population Analysis:                  
                                                          
                                       Natural Population 
                Natural  -----------------------------------------------
    Atom  No    Charge         Core      Valence    Rydberg      Total
 -----------------------------------------------------------------------
      O    1   -1.04120      1.99989     7.03202    0.00929     9.04120
      O    2   -1.03812      1.99989     7.02865    0.00958     9.03812
      O    3   -1.06687      1.99987     7.05765    0.00934     9.06687
      O    4   -1.05555      1.99990     7.04631    0.00935     9.05555
      O    5   -1.05932      1.99987     7.05057    0.00888     9.05932
      O    6   -1.05788      1.99987     7.04902    0.00899     9.05788
      O    7   -1.04394      1.99988     7.03372    0.01034     9.04394
      O    8   -1.03905      1.99989     7.02896    0.01019     9.03905
      O    9   -1.04709      1.99988     7.03748    0.00973     9.04709
      O   10   -1.03880      1.99990     7.02922    0.00968     9.03880
      H   11    0.53409      0.00000     0.46507    0.00085     0.46591
      H   12    0.51596      0.00000     0.48222    0.00182     0.48404
      H   13    0.53822      0.00000     0.45853    0.00325     0.46178
      H   14    0.52938      0.00000     0.46988    0.00074     0.47062
      H   15    0.52595      0.00000     0.47226    0.00179     0.47405
      H   16    0.51813      0.00000     0.48095    0.00092     0.48187
      H   17    0.52327      0.00000     0.47300    0.00373     0.47673
      H   18    0.53044      0.00000     0.46925    0.00031     0.46956
      H   19    0.53968      0.00000     0.45679    0.00352     0.46032
      H   20    0.53098      0.00000     0.46804    0.00098     0.46902
      H   21    0.51902      0.00000     0.47839    0.00259     0.48098
      H   22    0.52439      0.00000     0.47469    0.00091     0.47561
      H   23    0.52177      0.00000     0.47682    0.00141     0.47823
      H   24    0.51758      0.00000     0.48169    0.00074     0.48242
      H   25    0.52629      0.00000     0.47320    0.00051     0.47371
      H   26    0.51922      0.00000     0.47917    0.00161     0.48078
      H   27    0.52000      0.00000     0.47712    0.00288     0.48000
      H   28    0.51804      0.00000     0.48163    0.00033     0.48196
      H   29    0.49274      0.00000     0.50667    0.00059     0.50726
      H   30    0.54268      0.00000     0.45615    0.00117     0.45732
 =======================================================================
   * Total *   -0.00000     19.99884    79.87512    0.12604   100.00000

                                 Natural Population      
 --------------------------------------------------------
   Core                      19.99884 ( 99.9942% of  20)
   Valence                   79.87512 ( 99.8439% of  80)
   Natural Minimal Basis     99.87396 ( 99.8740% of 100)
   Natural Rydberg Basis      0.12604 (  0.1260% of 100)
 --------------------------------------------------------

    Atom  No          Natural Electron Configuration
 ----------------------------------------------------------------------------
      O    1      [core]2S( 1.73)2p( 5.31)3d( 0.01)
      O    2      [core]2S( 1.73)2p( 5.30)3d( 0.01)
      O    3      [core]2S( 1.73)2p( 5.33)3d( 0.01)
      O    4      [core]2S( 1.73)2p( 5.31)3d( 0.01)
      O    5      [core]2S( 1.73)2p( 5.32)3d( 0.01)
      O    6      [core]2S( 1.73)2p( 5.32)3d( 0.01)
      O    7      [core]2S( 1.73)2p( 5.31)3d( 0.01)
      O    8      [core]2S( 1.73)2p( 5.30)3d( 0.01)
      O    9      [core]2S( 1.73)2p( 5.31)3d( 0.01)
      O   10      [core]2S( 1.74)2p( 5.29)3d( 0.01)
      H   11            1S( 0.47)
      H   12            1S( 0.48)
      H   13            1S( 0.46)
      H   14            1S( 0.47)
      H   15            1S( 0.47)
      H   16            1S( 0.48)
      H   17            1S( 0.47)
      H   18            1S( 0.47)
      H   19            1S( 0.46)
      H   20            1S( 0.47)
      H   21            1S( 0.48)
      H   22            1S( 0.47)
      H   23            1S( 0.48)
      H   24            1S( 0.48)
      H   25            1S( 0.47)
      H   26            1S( 0.48)
      H   27            1S( 0.48)
      H   28            1S( 0.48)
      H   29            1S( 0.51)
      H   30            1S( 0.46)


 NBO analysis skipped by request.
 Leave Link  607 at Sat May  9 20:43:34 2020, MaxMem=   134217728 cpu:               0.9 elap:               0.2
 (Enter /home/soft/g16/l9999.exe)

 Test job not archived.
 1\1\GINC-NODE08\SP\RHF\6-31G(d)\H20O10\ROOT\09-May-2020\0\\#p hf/6-31g
 (d) pop=npa charge nosymm Guess=read\\Atom number=30\\0,1\O,0,-2.75537
 422,0.86053216,-1.83711762\O,0,-3.65414221,-1.40137688,-0.72850091\O,0
 ,-2.32648509,0.48762638,0.77299113\O,0,-5.24592673,0.61137738,-1.49703
 182\O,0,-1.18082912,-1.23365486,-1.13367028\O,0,0.03100394,-0.09685164
 ,1.14006809\O,0,-0.46073452,1.4015792,-1.13733174\O,0,2.04621781,1.213
 04781,-0.27479707\O,0,1.23053521,-1.30525145,-0.79027011\O,0,2.6256943
 5,0.09878318,1.88272309\H,0,-2.42222117,1.74670766,-1.67805151\H,0,-2.
 0184275,0.24913933,-1.90573495\H,0,-0.58752867,-0.50357296,-1.32491618
 \H,0,-0.67502889,-2.04631851,-1.06056819\H,0,-3.30191739,-0.91639714,-
 1.47838913\H,0,-2.93985475,-1.85957139,-0.27966772\H,0,-2.70323951,0.0
 8323622,-0.01194499\H,0,-3.02461052,0.8998865,1.28705579\H,0,-0.461617
 79,-0.67207022,0.55011263\H,0,-0.58163132,0.41754047,1.67080229\H,0,-0
 .51762238,1.14088887,-0.21515803\H,0,0.43937205,1.66682322,-1.33994902
 \H,0,-4.67507327,0.34960373,-0.7709458\H,0,-4.70922881,0.84342237,-2.2
 5841902\H,0,2.83359286,0.66559293,-0.31877078\H,0,1.62974115,1.1062489
 6,0.58353923\H,0,1.43570595,-0.59562361,-0.17713611\H,0,2.04548113,-1.
 7139378,-1.09100021\H,0,3.31286027,-0.38562134,2.34614004\H,0,1.766440
 12,-0.25419569,2.12497932\\Version=ES64L-G16RevA.03\HF=-764.7889414\RM
 SD=6.527e-09\Dipole=3.7619539,-0.8925553,1.5572847\Quadrupole=-22.1241
 076,9.1555074,12.9686002,-10.4852551,-10.562112,0.2344974\PG=C01 [X(H2
 0O10)]\\@


 BREAD HAS TO MOLD IN ORDER TO GET PENICILLIN.
          -- JERRY BOATZ
 Job cpu time:       0 days  0 hours  0 minutes 29.9 seconds.
 Elapsed time:       0 days  0 hours  0 minutes  5.3 seconds.
 File lengths (MBytes):  RWF=     80 Int=      0 D2E=      0 Chk=      8 Scr=      8
 Normal termination of Gaussian 16 at Sat May  9 20:43:34 2020.
