#INFO: **** input file is /home/liwei01/wsr/dftpart/test_2body/w19/gfea_c8.py ****
from dftpart import gfea3
from pyscf import lib

par = 8
with lib.with_omp_threads(par):
    fr0 = gfea3.GFEA()
    fr0.inputstyle = 'frg'
    fr0.method = ['hf', '6-31gs','cart','charge']
    fr0.gjfname = 'w19'
    fr0.output = 'w19'
    fr0.verbose = 9
    fr0.showinter = True
    #fr0.do_deriv = True
    fr0.kernel()

#INFO: ******************** input file end ********************


System: uname_result(system='Linux', node='master', release='3.10.0-693.el7.x86_64', version='#1 SMP Tue Aug 22 21:09:27 UTC 2017', machine='x86_64', processor='x86_64')  Threads 8
Python 3.6.4 |Anaconda, Inc.| (default, Jan 16 2018, 18:10:19) 
[GCC 7.2.0]
numpy 1.14.0  scipy 1.0.0
Date: Sat May  9 21:02:09 2020
PySCF version 1.6.1
PySCF path  /home/liwei01/zcheng/pyscf/pyscf
GIT HEAD      ref: refs/heads/master
GIT master branch  3adc7fd25839fe674469a52b764c3661e32d7318

[CONFIG] DEBUG = False
[CONFIG] MAX_MEMORY = 4000
[CONFIG] TMPDIR = .
[CONFIG] UNIT = angstrom
[CONFIG] VERBOSE = 3
[CONFIG] conf_file = None
[INPUT] verbose = 9
[INPUT] max_memory = 4000 
[INPUT] num. atoms = 24
[INPUT] num. electrons = 80
[INPUT] charge = 0
[INPUT] spin (= nelec alpha-beta = 2S) = 0
[INPUT] symmetry False subgroup None
[INPUT] Mole.unit = angstrom
[INPUT] Cartesian GTO integrals (6d 10f)
[INPUT]  1 O      2.046217810000   1.213047810000  -0.274797070000 AA    3.866791252107   2.292328136903  -0.519291202133 Bohr
[INPUT]  2 O      1.230535210000  -1.305251450000  -0.790270110000 AA    2.325374533534  -2.466567764191  -1.493394072330 Bohr
[INPUT]  3 O      2.625694350000   0.098783180000   1.882723090000 AA    4.961843208318   0.186673155914   3.557831008495 Bohr
[INPUT]  4 O      3.745725410000  -1.046508180000  -0.302887060000 AA    7.078395162724  -1.977613847317  -0.572373590075 Bohr
[INPUT]  5 O      5.776651240000   0.199431110000  -0.985969660000 AA   10.916288760729   0.376870178618  -1.863212624531 Bohr
[INPUT]  6 O      4.334011720000   1.534615690000   0.561385830000 AA    8.190095171455   2.900003360560   1.060865468912 Bohr
[INPUT]  7 O      7.457696590000  -0.133431360000   0.880376760000 AA   14.093004075203  -0.252148726828   1.663670962832 Bohr
[INPUT]  8 O      8.386593540000  -0.382398290000  -1.357338560000 AA   15.848364908647  -0.722628038602  -2.564998136712 Bohr
[INPUT]  9 H      2.833592860000   0.665592930000  -0.318770780000 AA    5.354714453923   1.257788348147  -0.602389470714 Bohr
[INPUT] 10 H      1.629741150000   1.106248960000   0.583539230000 AA    3.079764427434   2.090507559985   1.102729327640 Bohr
[INPUT] 11 H      3.825104610000  -0.531598620000   0.503442340000 AA    7.228400110711  -1.004575799997   0.951368142110 Bohr
[INPUT] 12 H      4.605203840000  -1.401010320000  -0.542104650000 AA    8.702574005395  -2.647525802489  -1.024429319353 Bohr
[INPUT] 13 H      4.844760120000   0.332168630000  -1.174542490000 AA    9.155269766015   0.627707737872  -2.219563627765 Bohr
[INPUT] 14 H      6.064713590000   0.838816360000  -0.330373300000 AA   11.460647709028   1.585133189205  -0.624315055869 Bohr
[INPUT] 15 H      4.096075400000   1.203717560000   1.430576680000 AA    7.740460691568   2.274696519730   2.703398125390 Bohr
[INPUT] 16 H      3.697995060000   2.199237510000   0.286866880000 AA    6.988197873395   4.155956576770   0.542099837408 Bohr
[INPUT] 17 H      1.435705950000  -0.595623610000  -0.177136110000 AA    2.713091040909  -1.125565496225  -0.334738734671 Bohr
[INPUT] 18 H      2.045481130000  -1.713937800000  -1.091000210000 AA    3.865399128666  -3.238873036540  -2.061691598743 Bohr
[INPUT] 19 H      3.312860270000  -0.385621340000   2.346140040000 AA    6.260398599253  -0.728718720388   4.433562125476 Bohr
[INPUT] 20 H      1.766440120000  -0.254195690000   2.124979320000 AA    3.338088042244  -0.480360236145   4.015628935165 Bohr
[INPUT] 21 H      7.167191320000  -0.636464400000   0.116070240000 AA   13.544028677160  -1.202743404036   0.219340964813 Bohr
[INPUT] 22 H      8.364091510000   0.154096870000   0.748559610000 AA   15.805842234700   0.291200880953   1.414572650811 Bohr
[INPUT] 23 H      7.496687840000  -0.291151180000  -1.705680080000 AA   14.166686858957  -0.550195991044  -3.223268207326 Bohr
[INPUT] 24 H      9.007828720000  -0.466081960000  -2.084431330000 AA   17.022329257791  -0.880767256000  -3.939004339163 Bohr
[INPUT] ---------------- BASIS SET ---------------- 
[INPUT] l, kappa, [nprim/nctr], expnt,             c_1 c_2 ...
[INPUT] H
[INPUT] 0    0    [3    /1   ]  18.731137         0.0334946
                                2.8253937         0.23472695
                                0.6401217         0.81375733
[INPUT] 0    0    [1    /1   ]  0.1612778            1
[INPUT] O
[INPUT] 0    0    [6    /1   ]  5484.6717         0.0018311
                                825.23495         0.0139501
                                188.04696         0.0684451
                                52.9645           0.2327143
                                16.89757          0.470193
                                5.7996353         0.3585209
[INPUT] 0    0    [3    /1   ]  15.539616         -0.1107775
                                3.5999336         -0.1480263
                                1.0137618         1.130767
[INPUT] 0    0    [1    /1   ]  0.2700058            1
[INPUT] 1    0    [3    /1   ]  15.539616         0.0708743
                                3.5999336         0.3397528
                                1.0137618         0.7271586
[INPUT] 1    0    [1    /1   ]  0.2700058            1
[INPUT] 2    0    [1    /1   ]  0.8                  1

nuclear repulsion = 507.639752253862
number of shells = 80
number of NR pGTOs = 288
number of NR cGTOs = 152
basis = 6-31gs
ecp = {}
bas 0, expnt(s) = [5484.6717     825.23495    188.04696     52.9645      16.89757
    5.7996353]
bas 1, expnt(s) = [15.539616   3.5999336  1.0137618]
bas 2, expnt(s) = [0.2700058]
bas 3, expnt(s) = [15.539616   3.5999336  1.0137618]
bas 4, expnt(s) = [0.2700058]
bas 5, expnt(s) = [0.8]
bas 6, expnt(s) = [5484.6717     825.23495    188.04696     52.9645      16.89757
    5.7996353]
bas 7, expnt(s) = [15.539616   3.5999336  1.0137618]
bas 8, expnt(s) = [0.2700058]
bas 9, expnt(s) = [15.539616   3.5999336  1.0137618]
bas 10, expnt(s) = [0.2700058]
bas 11, expnt(s) = [0.8]
bas 12, expnt(s) = [5484.6717     825.23495    188.04696     52.9645      16.89757
    5.7996353]
bas 13, expnt(s) = [15.539616   3.5999336  1.0137618]
bas 14, expnt(s) = [0.2700058]
bas 15, expnt(s) = [15.539616   3.5999336  1.0137618]
bas 16, expnt(s) = [0.2700058]
bas 17, expnt(s) = [0.8]
bas 18, expnt(s) = [5484.6717     825.23495    188.04696     52.9645      16.89757
    5.7996353]
bas 19, expnt(s) = [15.539616   3.5999336  1.0137618]
bas 20, expnt(s) = [0.2700058]
bas 21, expnt(s) = [15.539616   3.5999336  1.0137618]
bas 22, expnt(s) = [0.2700058]
bas 23, expnt(s) = [0.8]
bas 24, expnt(s) = [5484.6717     825.23495    188.04696     52.9645      16.89757
    5.7996353]
bas 25, expnt(s) = [15.539616   3.5999336  1.0137618]
bas 26, expnt(s) = [0.2700058]
bas 27, expnt(s) = [15.539616   3.5999336  1.0137618]
bas 28, expnt(s) = [0.2700058]
bas 29, expnt(s) = [0.8]
bas 30, expnt(s) = [5484.6717     825.23495    188.04696     52.9645      16.89757
    5.7996353]
bas 31, expnt(s) = [15.539616   3.5999336  1.0137618]
bas 32, expnt(s) = [0.2700058]
bas 33, expnt(s) = [15.539616   3.5999336  1.0137618]
bas 34, expnt(s) = [0.2700058]
bas 35, expnt(s) = [0.8]
bas 36, expnt(s) = [5484.6717     825.23495    188.04696     52.9645      16.89757
    5.7996353]
bas 37, expnt(s) = [15.539616   3.5999336  1.0137618]
bas 38, expnt(s) = [0.2700058]
bas 39, expnt(s) = [15.539616   3.5999336  1.0137618]
bas 40, expnt(s) = [0.2700058]
bas 41, expnt(s) = [0.8]
bas 42, expnt(s) = [5484.6717     825.23495    188.04696     52.9645      16.89757
    5.7996353]
bas 43, expnt(s) = [15.539616   3.5999336  1.0137618]
bas 44, expnt(s) = [0.2700058]
bas 45, expnt(s) = [15.539616   3.5999336  1.0137618]
bas 46, expnt(s) = [0.2700058]
bas 47, expnt(s) = [0.8]
bas 48, expnt(s) = [18.731137   2.8253937  0.6401217]
bas 49, expnt(s) = [0.1612778]
bas 50, expnt(s) = [18.731137   2.8253937  0.6401217]
bas 51, expnt(s) = [0.1612778]
bas 52, expnt(s) = [18.731137   2.8253937  0.6401217]
bas 53, expnt(s) = [0.1612778]
bas 54, expnt(s) = [18.731137   2.8253937  0.6401217]
bas 55, expnt(s) = [0.1612778]
bas 56, expnt(s) = [18.731137   2.8253937  0.6401217]
bas 57, expnt(s) = [0.1612778]
bas 58, expnt(s) = [18.731137   2.8253937  0.6401217]
bas 59, expnt(s) = [0.1612778]
bas 60, expnt(s) = [18.731137   2.8253937  0.6401217]
bas 61, expnt(s) = [0.1612778]
bas 62, expnt(s) = [18.731137   2.8253937  0.6401217]
bas 63, expnt(s) = [0.1612778]
bas 64, expnt(s) = [18.731137   2.8253937  0.6401217]
bas 65, expnt(s) = [0.1612778]
bas 66, expnt(s) = [18.731137   2.8253937  0.6401217]
bas 67, expnt(s) = [0.1612778]
bas 68, expnt(s) = [18.731137   2.8253937  0.6401217]
bas 69, expnt(s) = [0.1612778]
bas 70, expnt(s) = [18.731137   2.8253937  0.6401217]
bas 71, expnt(s) = [0.1612778]
bas 72, expnt(s) = [18.731137   2.8253937  0.6401217]
bas 73, expnt(s) = [0.1612778]
bas 74, expnt(s) = [18.731137   2.8253937  0.6401217]
bas 75, expnt(s) = [0.1612778]
bas 76, expnt(s) = [18.731137   2.8253937  0.6401217]
bas 77, expnt(s) = [0.1612778]
bas 78, expnt(s) = [18.731137   2.8253937  0.6401217]
bas 79, expnt(s) = [0.1612778]
CPU time:       248.32
arg.atm = [[  8  20   1  23   0   0]
 [  8  24   1  27   0   0]
 [  8  28   1  31   0   0]
 [  8  32   1  35   0   0]
 [  8  36   1  39   0   0]
 [  8  40   1  43   0   0]
 [  8  44   1  47   0   0]
 [  8  48   1  51   0   0]
 [  1  52   1  55   0   0]
 [  1  56   1  59   0   0]
 [  1  60   1  63   0   0]
 [  1  64   1  67   0   0]
 [  1  68   1  71   0   0]
 [  1  72   1  75   0   0]
 [  1  76   1  79   0   0]
 [  1  80   1  83   0   0]
 [  1  84   1  87   0   0]
 [  1  88   1  91   0   0]
 [  1  92   1  95   0   0]
 [  1  96   1  99   0   0]
 [  1 100   1 103   0   0]
 [  1 104   1 107   0   0]
 [  1 108   1 111   0   0]
 [  1 112   1 115   0   0]]
arg.bas = [[  0   0   6   1   0 124 130   0]
 [  0   0   3   1   0 136 139   0]
 [  0   0   1   1   0 142 143   0]
 [  0   1   3   1   0 144 147   0]
 [  0   1   1   1   0 150 151   0]
 [  0   2   1   1   0 152 153   0]
 [  1   0   6   1   0 124 130   0]
 [  1   0   3   1   0 136 139   0]
 [  1   0   1   1   0 142 143   0]
 [  1   1   3   1   0 144 147   0]
 [  1   1   1   1   0 150 151   0]
 [  1   2   1   1   0 152 153   0]
 [  2   0   6   1   0 124 130   0]
 [  2   0   3   1   0 136 139   0]
 [  2   0   1   1   0 142 143   0]
 [  2   1   3   1   0 144 147   0]
 [  2   1   1   1   0 150 151   0]
 [  2   2   1   1   0 152 153   0]
 [  3   0   6   1   0 124 130   0]
 [  3   0   3   1   0 136 139   0]
 [  3   0   1   1   0 142 143   0]
 [  3   1   3   1   0 144 147   0]
 [  3   1   1   1   0 150 151   0]
 [  3   2   1   1   0 152 153   0]
 [  4   0   6   1   0 124 130   0]
 [  4   0   3   1   0 136 139   0]
 [  4   0   1   1   0 142 143   0]
 [  4   1   3   1   0 144 147   0]
 [  4   1   1   1   0 150 151   0]
 [  4   2   1   1   0 152 153   0]
 [  5   0   6   1   0 124 130   0]
 [  5   0   3   1   0 136 139   0]
 [  5   0   1   1   0 142 143   0]
 [  5   1   3   1   0 144 147   0]
 [  5   1   1   1   0 150 151   0]
 [  5   2   1   1   0 152 153   0]
 [  6   0   6   1   0 124 130   0]
 [  6   0   3   1   0 136 139   0]
 [  6   0   1   1   0 142 143   0]
 [  6   1   3   1   0 144 147   0]
 [  6   1   1   1   0 150 151   0]
 [  6   2   1   1   0 152 153   0]
 [  7   0   6   1   0 124 130   0]
 [  7   0   3   1   0 136 139   0]
 [  7   0   1   1   0 142 143   0]
 [  7   1   3   1   0 144 147   0]
 [  7   1   1   1   0 150 151   0]
 [  7   2   1   1   0 152 153   0]
 [  8   0   3   1   0 116 119   0]
 [  8   0   1   1   0 122 123   0]
 [  9   0   3   1   0 116 119   0]
 [  9   0   1   1   0 122 123   0]
 [ 10   0   3   1   0 116 119   0]
 [ 10   0   1   1   0 122 123   0]
 [ 11   0   3   1   0 116 119   0]
 [ 11   0   1   1   0 122 123   0]
 [ 12   0   3   1   0 116 119   0]
 [ 12   0   1   1   0 122 123   0]
 [ 13   0   3   1   0 116 119   0]
 [ 13   0   1   1   0 122 123   0]
 [ 14   0   3   1   0 116 119   0]
 [ 14   0   1   1   0 122 123   0]
 [ 15   0   3   1   0 116 119   0]
 [ 15   0   1   1   0 122 123   0]
 [ 16   0   3   1   0 116 119   0]
 [ 16   0   1   1   0 122 123   0]
 [ 17   0   3   1   0 116 119   0]
 [ 17   0   1   1   0 122 123   0]
 [ 18   0   3   1   0 116 119   0]
 [ 18   0   1   1   0 122 123   0]
 [ 19   0   3   1   0 116 119   0]
 [ 19   0   1   1   0 122 123   0]
 [ 20   0   3   1   0 116 119   0]
 [ 20   0   1   1   0 122 123   0]
 [ 21   0   3   1   0 116 119   0]
 [ 21   0   1   1   0 122 123   0]
 [ 22   0   3   1   0 116 119   0]
 [ 22   0   1   1   0 122 123   0]
 [ 23   0   3   1   0 116 119   0]
 [ 23   0   1   1   0 122 123   0]]
arg.env = [ 1.37036000e+02  0.00000000e+00  0.00000000e+00  0.00000000e+00
  0.00000000e+00  0.00000000e+00  0.00000000e+00  0.00000000e+00
  0.00000000e+00  0.00000000e+00  0.00000000e+00  0.00000000e+00
  0.00000000e+00  0.00000000e+00  0.00000000e+00  0.00000000e+00
  0.00000000e+00  0.00000000e+00  0.00000000e+00  0.00000000e+00
  3.86679125e+00  2.29232814e+00 -5.19291202e-01  0.00000000e+00
  2.32537453e+00 -2.46656776e+00 -1.49339407e+00  0.00000000e+00
  4.96184321e+00  1.86673156e-01  3.55783101e+00  0.00000000e+00
  7.07839516e+00 -1.97761385e+00 -5.72373590e-01  0.00000000e+00
  1.09162888e+01  3.76870179e-01 -1.86321262e+00  0.00000000e+00
  8.19009517e+00  2.90000336e+00  1.06086547e+00  0.00000000e+00
  1.40930041e+01 -2.52148727e-01  1.66367096e+00  0.00000000e+00
  1.58483649e+01 -7.22628039e-01 -2.56499814e+00  0.00000000e+00
  5.35471445e+00  1.25778835e+00 -6.02389471e-01  0.00000000e+00
  3.07976443e+00  2.09050756e+00  1.10272933e+00  0.00000000e+00
  7.22840011e+00 -1.00457580e+00  9.51368142e-01  0.00000000e+00
  8.70257401e+00 -2.64752580e+00 -1.02442932e+00  0.00000000e+00
  9.15526977e+00  6.27707738e-01 -2.21956363e+00  0.00000000e+00
  1.14606477e+01  1.58513319e+00 -6.24315056e-01  0.00000000e+00
  7.74046069e+00  2.27469652e+00  2.70339813e+00  0.00000000e+00
  6.98819787e+00  4.15595658e+00  5.42099837e-01  0.00000000e+00
  2.71309104e+00 -1.12556550e+00 -3.34738735e-01  0.00000000e+00
  3.86539913e+00 -3.23887304e+00 -2.06169160e+00  0.00000000e+00
  6.26039860e+00 -7.28718720e-01  4.43356213e+00  0.00000000e+00
  3.33808804e+00 -4.80360236e-01  4.01562894e+00  0.00000000e+00
  1.35440287e+01 -1.20274340e+00  2.19340965e-01  0.00000000e+00
  1.58058422e+01  2.91200881e-01  1.41457265e+00  0.00000000e+00
  1.41666869e+01 -5.50195991e-01 -3.22326821e+00  0.00000000e+00
  1.70223293e+01 -8.80767256e-01 -3.93900434e+00  0.00000000e+00
  1.87311370e+01  2.82539370e+00  6.40121700e-01  7.61926220e-01
  1.29237100e+00  1.47131900e+00  1.61277800e-01  6.42977783e-01
  5.48467170e+03  8.25234950e+02  1.88046960e+02  5.29645000e+01
  1.68975700e+01  5.79963530e+00  2.94842455e+00  5.42657124e+00
  8.78126489e+00  1.15432129e+01  9.90055015e+00  3.38516599e+00
  1.55396160e+01  3.59993360e+00  1.01376180e+00 -2.19051792e+00
 -9.77405528e-01  2.88629094e+00  2.70005800e-01  9.46334873e-01
  1.55396160e+01  3.59993360e+00  1.01376180e+00  6.37930734e+00
  4.91490975e+00  2.15791055e+00  2.70005800e-01  5.67807022e-01
  8.00000000e-01  1.76578110e+00]
ecpbas  = []


******** <class 'pyscf.qmmm.itrf.mm_charge.<locals>.QMMM'> ********
method = QMMM-RHF
initial guess = minao
damping factor = 0
level shift factor = 0
DIIS = <class 'pyscf.scf.diis.CDIIS'>
DIIS start cycle = 1
DIIS space = 8
SCF tol = 1e-09
SCF gradient tol = None
max. SCF cycles = 50
direct_scf = True
direct_scf_tol = 1e-13
chkfile to save SCF result = /home/liwei01/wsr/dftpart/test_2body/w19/tmp_hq_j4xa
max_memory 4000 MB (current use 349 MB)
** Add background charges for <class 'pyscf.scf.hf.RHF'> **
Charge      Location
-1.031354    [-5.20690265  1.6261701  -3.47164916]
0.535493    [-4.57733462  3.3007991  -3.17105778]
0.507015    [-3.81427518  0.4708051  -3.60131712]
0.534265    [-1.11026828 -0.95161498 -2.50372872]
-1.05074    [-2.23144364 -2.33126982 -2.14232634]
0.525289    [-1.27561973 -3.86698155 -2.00418342]
0.525337    [-6.23971955 -1.73173962 -2.79375056]
-1.015236    [-6.905328  -2.6482185 -1.3766672]
0.516627    [-5.55552032 -3.51408064 -0.5284954 ]
0.512017    [-5.10838232  0.15729366 -0.02257276]
-1.064699    [-4.39641965  0.92148031  1.46074153]
0.526908    [-5.71568552  1.70053903  2.43218295]
0.535627    [-0.8723312  -1.27002865  1.03956221]
-1.0531    [ 0.05858896 -0.18302307  2.15441645]
0.52897    [-1.0991239   0.78903713  3.15735874]
0.516235    [-0.97816453  2.1559675  -0.40658975]
-1.042719    [-0.87066206  2.64860083 -2.1492455 ]
0.526487    [ 0.83029284  3.14983938 -2.53213667]
0.516794    [-10.52988433  -3.01188683  -1.33841775]
-1.042298    [-12.04656901  -2.45537924  -0.51315401]
0.526528    [-12.87497143  -1.21338097  -1.54382519]
0.524984    [-11.88536205   1.26190676   0.29971593]
-1.043333    [-13.4849842    2.0932316    0.09673476]
0.49951    [-13.47102064   3.06581942  -1.43459515]
0.5318    [-10.68672782   0.74334584   3.3090493 ]
-1.043971    [-9.17038002  0.43665291  2.36156732]
0.521099    [-9.22593063 -1.23349431  1.65544005]
0.515882    [-8.83460809  0.6606553  -1.45687642]
-1.037471    [-9.91336479  1.15533581 -2.82898014]
0.50719    [-8.89915271  1.59383729 -4.26779342]
0.514071    [-14.69004779   0.66192854   3.1797209 ]
-1.03301    [-13.9755205   -0.83844608   3.90733349]
0.517099    [-13.82769709  -2.11850041   2.63034386]
Set gradient conv threshold to 3.16228e-05
Nelec from initial guess = 79.92919983751794
cond(S) = 829.3327717367875
E1 = -1841.5727053670391  E_coul = 725.255544768937
init E= -607.588853976504
    CPU time for initialize scf      5.39 sec, wall time      0.67 sec
  HOMO = -0.452770185919696  LUMO = 0.0371180185044631
  mo_energy =
[-20.87121741 -20.84221582 -20.81908688 -20.81583165 -20.81547769
 -20.81508429 -20.81481887 -20.78717746  -1.78636142  -1.71181956
  -1.67174093  -1.65175205  -1.61002491  -1.59454351  -1.59335456
  -1.57471015  -0.85745762  -0.84944315  -0.83191506  -0.8169468
  -0.78542746  -0.76795473  -0.74879559  -0.73631768  -0.68525511
  -0.67428409  -0.64624593  -0.63768057  -0.58280738  -0.56483666
  -0.54869602  -0.53433747  -0.5246985   -0.51942508  -0.50318796
  -0.49706999  -0.4768397   -0.47023972  -0.46299886  -0.45277019
   0.03711802   0.09372551   0.13326705   0.15214209   0.16439779
   0.179804     0.1898843    0.21191806   0.23185483   0.25452914
   0.25798917   0.27264747   0.2907945    0.30157638   0.31106462
   0.36069987   0.84535093   0.86258538   0.87667498   0.89403193
   0.89556848   0.9360571    0.94342183   0.95972706   0.96949427
   0.98559588   0.99189662   0.99944424   1.01257144   1.02482959
   1.0349343    1.05442497   1.05456414   1.06666802   1.07838584
   1.08758686   1.08986217   1.11319089   1.13906615   1.14627146
   1.16847349   1.17801397   1.21023214   1.22349961   1.22642479
   1.24562246   1.25399143   1.27081725   1.28178259   1.29610023
   1.31719341   1.32213382   1.35644328   1.35951194   1.38422737
   1.40477853   1.41389975   1.44582657   1.47778901   1.497849
   1.5482611    1.56924794   1.61898204   1.73555627   1.84719999
   1.85888687   1.86646018   1.87358653   1.87872173   1.89216499
   1.89847408   1.90613636   1.91060559   1.92209621   1.92564422
   1.93962952   1.95557517   1.95881688   1.968571     1.98498021
   1.99660305   2.01795571   2.03982044   2.0439725    2.05495973
   2.07822222   2.09952373   2.23835639   2.47658707   2.50551565
   2.5133655    2.54979903   2.56711709   2.58284207   2.58829828
   2.63552278   2.79550559   2.81688973   2.82583181   2.8542635
   2.8763449    2.90294334   2.92249617   2.99671385   3.87616564
   3.89418638   3.92986666   3.96196741   3.99326248   4.0403403
   4.07431688   4.21935651]
E1 = -1860.0919192348215  E_coul = 743.5063908984072
cycle= 1 E= -607.857221714816  delta_E= -0.268  |g|= 1.14  |ddm|= 3.45
    CPU time for cycle= 1      0.64 sec, wall time      0.08 sec
diis-norm(errvec)=2.15898
diis-c [-4.66120091  1.        ]
  HOMO = -0.379232477894997  LUMO = 0.133712613839036
  mo_energy =
[-20.50326647 -20.40911743 -20.38801567 -20.36237201 -20.34330478
 -20.33656335 -20.277553   -20.2659106   -1.41070418  -1.35062071
  -1.32688482  -1.30073372  -1.29127629  -1.27846538  -1.23892457
  -1.22681848  -0.80577019  -0.74690857  -0.73143899  -0.71286173
  -0.68254427  -0.67260298  -0.64881615  -0.64011234  -0.62324714
  -0.5811775   -0.57466083  -0.55395782  -0.53133632  -0.51012738
  -0.49322821  -0.48115122  -0.46896806  -0.46171042  -0.43763802
  -0.43173464  -0.42345921  -0.41640651  -0.38597652  -0.37923248
   0.13371261   0.21331961   0.23837002   0.2507098    0.25871353
   0.28670494   0.30229746   0.31673577   0.32454425   0.35520505
   0.36974838   0.38431492   0.39185178   0.41999776   0.44307354
   0.49492665   0.96542741   0.99772211   0.99879727   1.00337091
   1.02135864   1.04778459   1.06626813   1.07897301   1.08265645
   1.09950977   1.11053676   1.11781099   1.13038657   1.14032458
   1.16301507   1.17225257   1.18193944   1.19367291   1.20967027
   1.22877474   1.23858855   1.24685376   1.25640228   1.29627156
   1.31978046   1.33557495   1.36661867   1.37372054   1.38483998
   1.39062142   1.405002     1.41650665   1.4317634    1.43929492
   1.46179093   1.4726878    1.47790128   1.51488118   1.53921547
   1.54837191   1.56969697   1.61270714   1.61841886   1.63650738
   1.69450199   1.70527007   1.75353073   1.88237679   1.9835546
   2.01432002   2.02581333   2.03466066   2.04366976   2.06922426
   2.08358625   2.0921541    2.10182381   2.10851266   2.10998889
   2.12032744   2.12789114   2.14214695   2.15759838   2.16729783
   2.18139741   2.19932958   2.20666071   2.21050705   2.22933686
   2.24619651   2.27009853   2.3750938    2.53532457   2.65347268
   2.67698453   2.69115657   2.71225265   2.74360834   2.76800955
   2.79129701   2.93937436   2.95072999   2.98836929   3.00171576
   3.04089246   3.04763058   3.08185373   3.08429439   4.05154785
   4.1250084    4.16976243   4.18901112   4.24001174   4.26418268
   4.27949391   4.43892188]
E1 = -1848.8502883729484  E_coul = 732.0570740246211
cycle= 2 E= -608.064907726729  delta_E= -0.208  |g|= 0.55  |ddm|= 0.981
    CPU time for cycle= 2      0.64 sec, wall time      0.08 sec
diis-norm(errvec)=0.964665
diis-c [-0.30090044  0.27537035  0.72462965]
  HOMO = -0.475805094946887  LUMO = 0.137401744302904
  mo_energy =
[-20.65516775 -20.6154765  -20.61068057 -20.60438159 -20.59296173
 -20.58689676 -20.58274892 -20.56207914  -1.44211696  -1.40666886
  -1.38922753  -1.37512729  -1.36682515  -1.3503435   -1.33969975
  -1.31974145  -0.82567808  -0.78578894  -0.78036445  -0.76750785
  -0.73859611  -0.73063193  -0.72389573  -0.69633264  -0.68340093
  -0.64655436  -0.63951998  -0.61013389  -0.59726864  -0.58103156
  -0.56608528  -0.55665546  -0.54717361  -0.54178634  -0.51979816
  -0.51631076  -0.5115725   -0.49859943  -0.48898877  -0.47580509
   0.13740174   0.20161917   0.23017048   0.24305478   0.25456698
   0.27969324   0.28412206   0.29792518   0.30632233   0.34373958
   0.35112892   0.36610768   0.3747773    0.39479891   0.41634815
   0.46837258   0.93673367   0.96043224   0.96843858   0.97882982
   0.98883536   1.01965668   1.03915325   1.05174522   1.05777418
   1.06778287   1.08041535   1.08549984   1.09033744   1.09933304
   1.11079889   1.12435942   1.14378952   1.14882447   1.15680697
   1.16425071   1.18281234   1.20043432   1.21185028   1.23910785
   1.27217706   1.28811775   1.32459213   1.33026205   1.33623395
   1.34158232   1.35035438   1.36338286   1.37555453   1.38696268
   1.40845138   1.40974388   1.42912344   1.46335013   1.48422817
   1.49438616   1.50976669   1.55400289   1.56753893   1.57967034
   1.6429986    1.65687901   1.70546035   1.83298483   1.94700154
   1.97261395   1.98180266   1.98951533   1.9916612    2.00817396
   2.02396754   2.02813462   2.03210079   2.04406408   2.05016506
   2.05515897   2.06572535   2.08068491   2.08798905   2.09025599
   2.11354715   2.13806342   2.1486595    2.15824587   2.16457072
   2.18130627   2.19691026   2.32760175   2.51856368   2.61451533
   2.6279229    2.65155641   2.65619723   2.68813975   2.70513468
   2.74015923   2.90514581   2.91433949   2.94376789   2.94758477
   2.98253213   2.99410814   3.02861496   3.04722728   4.00560486
   4.0319111    4.07593402   4.1046108    4.13315075   4.18085327
   4.19523407   4.35403127]
E1 = -1853.803032574153  E_coul = 736.9583803659208
cycle= 3 E= -608.116345586634  delta_E= -0.0514  |g|= 0.089  |ddm|= 0.368
    CPU time for cycle= 3      0.64 sec, wall time      0.08 sec
diis-norm(errvec)=0.168947
diis-c [-0.00984887 -0.05468885  0.03166293  1.02302592]
  HOMO = -0.464733345831155  LUMO = 0.147062883999003
  mo_energy =
[-20.63033771 -20.58965947 -20.58042668 -20.56861711 -20.56045219
 -20.55668289 -20.54287357 -20.52358594  -1.42724017  -1.39357667
  -1.37601418  -1.36212002  -1.35289541  -1.33754761  -1.32647249
  -1.30577477  -0.81130005  -0.77354849  -0.76793446  -0.7556401
  -0.72639538  -0.71907334  -0.71257872  -0.68446534  -0.67185439
  -0.63731027  -0.62952423  -0.59922008  -0.58614937  -0.57034648
  -0.55612023  -0.54745265  -0.53727698  -0.53147699  -0.50924542
  -0.50475053  -0.50123427  -0.48947421  -0.47867107  -0.46473335
   0.14706288   0.2085444    0.2371032    0.24972783   0.26226539
   0.28756983   0.29005598   0.30413192   0.31283604   0.35080187
   0.3581612    0.37297101   0.38365367   0.40214632   0.42504372
   0.47625095   0.94573421   0.96946557   0.97664219   0.98705005
   0.99806669   1.02670151   1.04851489   1.05981778   1.06935967
   1.07617684   1.09099207   1.09430621   1.10143824   1.10800015
   1.12135347   1.13428804   1.15388708   1.15877233   1.16717555
   1.17449355   1.19279696   1.21011651   1.22221034   1.24905875
   1.28030728   1.29920877   1.33405426   1.33881631   1.34774561
   1.35414321   1.3621574    1.37336218   1.38699714   1.39725379
   1.41871767   1.41970633   1.44147186   1.47332788   1.49246271
   1.50570718   1.52024017   1.56416358   1.57746658   1.58950412
   1.65284564   1.6668584    1.71568827   1.84253627   1.9593216
   1.98309477   1.99225336   2.00092685   2.00372579   2.01914956
   2.03463917   2.03827732   2.04259268   2.05486549   2.06041111
   2.06590714   2.07684512   2.09134663   2.09816599   2.10090447
   2.12383788   2.14820494   2.15856866   2.16930344   2.17541512
   2.19204581   2.20725587   2.3368882    2.53187525   2.62526386
   2.63900894   2.66149854   2.66678038   2.69795693   2.71526728
   2.74989717   2.91615868   2.92715898   2.95518335   2.95936706
   2.99352888   3.00505654   3.03920726   3.05977873   4.01945717
   4.04538464   4.08873787   4.11723072   4.14597538   4.1933713
   4.20675928   4.36567699]
E1 = -1853.2167551922926  E_coul = 736.3701796481483
cycle= 4 E= -608.118268922546  delta_E= -0.00192  |g|= 0.0127  |ddm|= 0.0697
    CPU time for cycle= 4      0.65 sec, wall time      0.08 sec
diis-norm(errvec)=0.025762
diis-c [-3.15570739e-04 -6.54395086e-03 -2.29354168e-02 -7.67362601e-02
  1.10621563e+00]
  HOMO = -0.466727235066815  LUMO = 0.147027022839722
  mo_energy =
[-20.6294146  -20.58833093 -20.58090111 -20.57037691 -20.56025673
 -20.55993002 -20.54622351 -20.52808181  -1.42746596  -1.39384596
  -1.37655157  -1.36285752  -1.35399871  -1.33819218  -1.32799664
  -1.30734805  -0.81105216  -0.77349827  -0.76812549  -0.75583772
  -0.72675103  -0.71952766  -0.71335368  -0.68519241  -0.67197168
  -0.63756149  -0.62966739  -0.60030541  -0.58652721  -0.57082486
  -0.55666478  -0.54818362  -0.53771956  -0.53258507  -0.51051366
  -0.50644607  -0.50270288  -0.4903792   -0.48050775  -0.46672724
   0.14702702   0.20841492   0.23696561   0.24965488   0.26216713
   0.28762011   0.28990176   0.30403646   0.31289133   0.35079022
   0.35822322   0.37287355   0.38337114   0.40196608   0.42444868
   0.47600988   0.9451715    0.96895304   0.97622482   0.98631057
   0.99744905   1.02633801   1.04810892   1.05931639   1.06908166
   1.07567544   1.09062004   1.09372313   1.10097173   1.10755054
   1.12091983   1.13355993   1.15338867   1.15820699   1.16658691
   1.17372566   1.19198996   1.20961709   1.22155979   1.24848958
   1.28013535   1.29861443   1.33372488   1.33847539   1.3474162
   1.3535512    1.36162039   1.37301102   1.38651454   1.39688969
   1.41796379   1.41933195   1.44114073   1.47301855   1.4922054
   1.5051054    1.51964679   1.56364581   1.57677427   1.58889631
   1.65189698   1.66596391   1.71485677   1.84229117   1.95912157
   1.98298456   1.99187548   2.00056417   2.00344428   2.01838283
   2.03408242   2.03736368   2.04192441   2.0541935    2.05963792
   2.06545496   2.07625663   2.09066252   2.09748216   2.09979577
   2.12318316   2.14778735   2.15816099   2.16886023   2.17478203
   2.19137301   2.2065476    2.33655275   2.53197162   2.62508994
   2.63842449   2.66080751   2.66669268   2.69751522   2.71449712
   2.74969353   2.91603557   2.92708284   2.95487044   2.95867686
   2.99313578   3.00473881   3.03901947   3.05970309   4.01933819
   4.04403744   4.08787288   4.11675978   4.14501054   4.1927749
   4.20681293   4.36553626]
E1 = -1853.2345032613666  E_coul = 736.387853688856
cycle= 5 E= -608.118342950912  delta_E= -7.4e-05  |g|= 0.00366  |ddm|= 0.0202
    CPU time for cycle= 5      0.63 sec, wall time      0.08 sec
diis-norm(errvec)=0.00658663
diis-c [-3.17911849e-05  1.29488420e-03  1.02374560e-03 -2.79811955e-02
 -2.60452864e-02  1.05170785e+00]
  HOMO = -0.466322544026464  LUMO = 0.147106524786395
  mo_energy =
[-20.63025926 -20.59017036 -20.58130408 -20.57032487 -20.56110674
 -20.55880118 -20.54535682 -20.52594957  -1.42763025  -1.39417949
  -1.37677164  -1.36289703  -1.35384259  -1.33829334  -1.3278177
  -1.30676972  -0.81108063  -0.7736557   -0.76804139  -0.75576294
  -0.72661506  -0.7194056   -0.71317732  -0.6847403   -0.67206372
  -0.63789629  -0.62986953  -0.59993282  -0.58675137  -0.57099009
  -0.55694476  -0.54831852  -0.53822484  -0.53280934  -0.51010792
  -0.50627764  -0.50279517  -0.49092205  -0.4806129   -0.46632254
   0.14710652   0.2083902    0.23694813   0.24960869   0.26222546
   0.28768885   0.28986801   0.30405216   0.31285439   0.35079342
   0.35824676   0.37286179   0.38340824   0.40205647   0.42453623
   0.47604142   0.94509085   0.96888596   0.97623256   0.98626688
   0.99742573   1.02623404   1.0479709    1.0593402    1.06902835
   1.07565732   1.09065966   1.09369876   1.10091678   1.10754814
   1.12091505   1.13370009   1.1533653    1.15822444   1.16659099
   1.17368126   1.19202743   1.20951431   1.22150004   1.24841033
   1.28005154   1.29862922   1.33363693   1.33855386   1.3473471
   1.35363767   1.36171351   1.3728827    1.3865784    1.39678255
   1.41804547   1.41935868   1.44110959   1.47284243   1.4921224
   1.50511131   1.51964248   1.56362435   1.57681805   1.58892251
   1.65202855   1.66597634   1.71480281   1.84206747   1.95900473
   1.98266244   1.99169106   2.00044799   2.00334906   2.01845574
   2.03408918   2.03742208   2.04193708   2.05419507   2.05967321
   2.06541181   2.07621994   2.09074203   2.0974232    2.1001868
   2.12317986   2.14768201   2.15800816   2.16877682   2.17476641
   2.19142053   2.20668889   2.33632857   2.53191557   2.62497701
   2.63854693   2.66083949   2.66643537   2.69751169   2.71475827
   2.74955192   2.91582547   2.92704858   2.95485489   2.95893075
   2.99310261   3.00478941   3.03898677   3.05960923   4.01913305
   4.04451924   4.0880732    4.11671297   4.1451493    4.19274414
   4.20632462   4.36523045]
E1 = -1853.2308527730554  E_coul = 736.3841978298593
cycle= 6 E= -608.118348321598  delta_E= -5.37e-06  |g|= 0.00157  |ddm|= 0.00575
    CPU time for cycle= 6      0.64 sec, wall time      0.08 sec
diis-norm(errvec)=0.00282365
diis-c [-2.14387138e-06  1.01800102e-03  3.27536202e-03  1.30727917e-03
 -1.32709157e-01  2.49303399e-01  8.77805117e-01]
  HOMO = -0.466633080388088  LUMO = 0.147171984014416
  mo_energy =
[-20.62971117 -20.5892442  -20.58099712 -20.5701524  -20.56050196
 -20.55927081 -20.54558696 -20.52671053  -1.42745198  -1.39397058
  -1.37660903  -1.36284929  -1.35387302  -1.33824531  -1.32789682
  -1.30701915  -0.81088269  -0.77342936  -0.76793463  -0.75570786
  -0.72653185  -0.71935773  -0.71317144  -0.68484844  -0.67193806
  -0.63775166  -0.62976831  -0.60012818  -0.58664677  -0.57088758
  -0.55686812  -0.54831942  -0.53804654  -0.53279692  -0.51032042
  -0.50645567  -0.50288246  -0.49084504  -0.48073092  -0.46663308
   0.14717198   0.20839252   0.23696667   0.24965422   0.26226972
   0.28771308   0.28987371   0.30403798   0.31289855   0.35080828
   0.3582865    0.37285724   0.38347092   0.40204648   0.42456012
   0.47610181   0.945142     0.9688994    0.97624284   0.98627101
   0.99743769   1.02626352   1.04801975   1.05929055   1.06907746
   1.07565443   1.09063973   1.09366735   1.10094044   1.10752611
   1.12093363   1.13360552   1.15338019   1.15823355   1.16656947
   1.1736638    1.19196197   1.20956733   1.22152903   1.24839989
   1.28007624   1.29863996   1.33368667   1.33852207   1.34741659
   1.35366893   1.36171401   1.37296304   1.3865876    1.39684775
   1.41801091   1.41936431   1.44121791   1.47292751   1.49214834
   1.50517527   1.51966624   1.56364967   1.57680644   1.58892723
   1.65197417   1.6660054    1.71486967   1.84218639   1.95911176
   1.98281876   1.99177499   2.00053782   2.00345074   2.01840154
   2.03405773   2.03734686   2.04189481   2.05418174   2.05963936
   2.06544259   2.07626175   2.09069142   2.09743706   2.09998927
   2.12316991   2.14771808   2.1580691    2.16884252   2.17477874
   2.19140146   2.20659648   2.3364549    2.53203268   2.6250382
   2.63846862   2.66080635   2.66657313   2.69748898   2.71461395
   2.74959431   2.91593887   2.92711526   2.95487318   2.95878638
   2.99311033   3.00475162   3.03896379   3.05971391   4.01930151
   4.04430022   4.08798314   4.11674394   4.14507918   4.19276859
   4.20653996   4.36537448]
E1 = -1853.2270323018536  E_coul = 736.380376550488
cycle= 7 E= -608.118349129767  delta_E= -8.08e-07  |g|= 0.0003  |ddm|= 0.00204
    CPU time for cycle= 7      0.64 sec, wall time      0.08 sec
diis-norm(errvec)=0.000517902
diis-c [-1.24845104e-07 -1.46933778e-04 -2.32917868e-04  8.75049142e-04
  1.15363020e-02 -8.47363901e-02 -6.85991058e-02  1.14130400e+00]
  HOMO = -0.466634453146291  LUMO = 0.147171625437498
  mo_energy =
[-20.6297224  -20.58933414 -20.58098855 -20.57015683 -20.56056927
 -20.55922485 -20.54556033 -20.52662196  -1.42746554  -1.39399807
  -1.37663421  -1.36286646  -1.35388009  -1.33825891  -1.32791244
  -1.30700003  -0.81088234  -0.7734439   -0.76793658  -0.75570401
  -0.72653071  -0.71935836  -0.71317691  -0.68482624  -0.67194657
  -0.63778317  -0.62978605  -0.60012055  -0.58667021  -0.57090633
  -0.55689687  -0.54834038  -0.5380919   -0.53283023  -0.51031372
  -0.50646325  -0.50290975  -0.49089527  -0.48076714  -0.46663445
   0.14717163   0.20839135   0.2369666    0.24965177   0.26226652
   0.28771446   0.28986593   0.30403677   0.3128932    0.3508071
   0.35828513   0.37285484   0.38345641   0.40204608   0.4245428
   0.47608645   0.94511953   0.9688858    0.97623163   0.98625296
   0.99742438   1.02625042   1.04800382   1.05929006   1.06907725
   1.07564244   1.09064089   1.09366235   1.10093093   1.10752217
   1.12092889   1.13360673   1.15337223   1.15822416   1.16656659
   1.17364637   1.19195669   1.20955165   1.2215174    1.24839179
   1.28006659   1.29863758   1.33367564   1.33852019   1.34741009
   1.35367601   1.36171779   1.37294825   1.38658482   1.3968384
   1.41800594   1.41936471   1.44120712   1.47291449   1.49214302
   1.50516701   1.51965705   1.56363936   1.57680456   1.58892141
   1.65197291   1.66598709   1.71485002   1.84216356   1.95909914
   1.98279306   1.99175101   2.00051951   2.00343564   2.01839447
   2.03405146   2.0373333    2.0418866    2.05417224   2.05962714
   2.06543136   2.07624187   2.09068698   2.09741705   2.09999861
   2.12315554   2.14770079   2.15804862   2.16882633   2.17476443
   2.19139219   2.20659484   2.33642736   2.5320266    2.62502554
   2.63846979   2.66078811   2.6665478    2.69747751   2.7146158
   2.74957624   2.91591285   2.92710795   2.95486139   2.95879436
   2.99309501   3.00474672   3.03895864   3.05969615   4.01928803
   4.04431404   4.08798259   4.11673635   4.14507454   4.1927563
   4.20650798   4.3653493 ]
E1 = -1853.2269120602155  E_coul = 736.3802562608415
cycle= 8 E= -608.118349177776  delta_E= -4.8e-08  |g|= 6.05e-05  |ddm|= 0.000587
    CPU time for cycle= 8      0.64 sec, wall time      0.08 sec
diis-norm(errvec)=0.000109278
diis-c [-4.46342414e-09 -6.26803590e-05 -1.98239938e-04 -1.09608025e-04
  8.27616138e-03 -1.64090039e-02 -5.41499896e-02  2.25302844e-03
  1.06040033e+00]
  HOMO = -0.466637157488724  LUMO = 0.147176447075965
  mo_energy =
[-20.62971892 -20.58931299 -20.58099716 -20.57015416 -20.56054314
 -20.5592141  -20.54556167 -20.52662302  -1.42746044  -1.39399137
  -1.37662938  -1.36286178  -1.35387743  -1.33825352  -1.32791169
  -1.30700065  -0.81087584  -0.773434    -0.76793009  -0.75569808
  -0.72652409  -0.7193529   -0.71317301  -0.68482344  -0.67193915
  -0.63777557  -0.62978101  -0.60011867  -0.5866665   -0.57089986
  -0.55689335  -0.54833806  -0.53808556  -0.5328299   -0.51031214
  -0.50646234  -0.50291058  -0.49089211  -0.48076937  -0.46663716
   0.14717645   0.20839217   0.23696759   0.24965441   0.26226971
   0.28771672   0.28986807   0.30403729   0.3128963    0.35080945
   0.35828845   0.37285707   0.38346364   0.40204921   0.42454833
   0.4760943    0.94512609   0.96888941   0.97623547   0.9862566
   0.99742821   1.02625367   1.04800706   1.05929113   1.06907927
   1.07564488   1.09064196   1.09366338   1.10093279   1.10752388
   1.12093178   1.13360757   1.15337574   1.15822697   1.16656904
   1.17364766   1.19195758   1.20955436   1.22152074   1.24839464
   1.28006963   1.2986403    1.33367865   1.33852249   1.34741362
   1.35367926   1.36172043   1.37295274   1.38658792   1.39684241
   1.41800865   1.41936656   1.44121331   1.4729184    1.49214509
   1.50517314   1.5196618    1.56364506   1.5768072    1.58892425
   1.65197547   1.66599243   1.71485619   1.84217005   1.95910415
   1.98279929   1.99175596   2.00052448   2.00344119   2.01839739
   2.03405489   2.03733403   2.04188964   2.05417545   2.05962942
   2.06543346   2.07624678   2.09068974   2.09742047   2.09999883
   2.12315898   2.14770542   2.15805261   2.16883114   2.17476825
   2.1913952    2.20659727   2.33643417   2.53203255   2.62502984
   2.63847162   2.66079054   2.66655472   2.69748086   2.71461664
   2.74958098   2.91591937   2.92711206   2.95486429   2.95879515
   2.99309897   3.00475002   3.03896226   3.05970263   4.01929344
   4.04431559   4.08798537   4.11673746   4.14507451   4.19275914
   4.206516     4.36535449]
E1 = -1853.2268060139613  E_coul = 736.380150212676
cycle= 9 E= -608.118349179687  delta_E= -1.91e-09  |g|= 1.63e-05  |ddm|= 0.000123
    CPU time for cycle= 9      0.64 sec, wall time      0.08 sec
diis-norm(errvec)=2.88191e-05
diis-c [-6.83507959e-10  9.81084898e-01 -7.28666517e-06 -1.12402637e-05
  7.63906068e-05  1.76070060e-03 -7.19646234e-05 -3.51014627e-02
  5.22699654e-02]
  HOMO = -0.466637737058852  LUMO = 0.147176644806247
  mo_energy =
[-20.6297166  -20.58931679 -20.58098741 -20.57014977 -20.56055272
 -20.55922167 -20.54555957 -20.52662453  -1.42745961  -1.39399145
  -1.37662796  -1.36286226  -1.3538773   -1.33825568  -1.32791077
  -1.30700139  -0.81087566  -0.77343422  -0.7679289   -0.75569888
  -0.72652389  -0.71935328  -0.71317292  -0.684824    -0.6719376
  -0.63777546  -0.62978017  -0.60011998  -0.58666592  -0.57089811
  -0.55689331  -0.54833727  -0.53808628  -0.53282801  -0.51031287
  -0.50646423  -0.50290961  -0.49089379  -0.48076762  -0.46663774
   0.14717664   0.20839175   0.23696719   0.24965507   0.26226972
   0.28771652   0.28986812   0.30403715   0.31289644   0.35080936
   0.35828871   0.37285659   0.38346347   0.402049     0.42454846
   0.47609455   0.94512626   0.96888955   0.97623595   0.98625676
   0.99742857   1.02625401   1.04800743   1.05929082   1.06907995
   1.07564513   1.09064124   1.09366307   1.10093282   1.10752406
   1.12093171   1.13360682   1.1533754    1.15822727   1.16656818
   1.17364839   1.191957     1.20955477   1.22152079   1.2483934
   1.28006912   1.29863995   1.33367918   1.33852192   1.34741452
   1.35367866   1.36172052   1.37295327   1.3865881    1.39684253
   1.41800828   1.41936704   1.44121411   1.47291822   1.49214512
   1.50517323   1.51966176   1.56364412   1.57680703   1.58892413
   1.65197528   1.66599265   1.71485662   1.84216992   1.95910525
   1.98279911   1.99175614   2.00052524   2.00344183   2.01839653
   2.03405345   2.03733445   2.04188841   2.05417484   2.05962941
   2.0654352    2.07624727   2.09068906   2.09742063   2.09999809
   2.12315897   2.14770493   2.15805314   2.16883186   2.17476857
   2.19139568   2.20659634   2.33643461   2.53203332   2.6250304
   2.63847071   2.66079134   2.66655494   2.69748046   2.71461659
   2.7495806    2.9159195    2.92711327   2.95486571   2.95879416
   2.99309892   3.00474943   3.03896094   3.05970323   4.0192941
   4.04431389   4.0879844    4.11673907   4.14507571   4.19275973
   4.20651431   4.36535434]
E1 = -1853.2268246191536  E_coul = 736.3801688177551
cycle= 10 E= -608.1183491798  delta_E= -1.13e-10  |g|= 7.09e-06  |ddm|= 2.53e-05
    CPU time for cycle= 10      0.65 sec, wall time      0.08 sec
  HOMO = -0.466637370677984  LUMO = 0.147176434714799
  mo_energy =
[-20.62971843 -20.5893159  -20.58099315 -20.57015268 -20.56054853
 -20.55921838 -20.54556139 -20.52662429  -1.42746032  -1.39399167
  -1.3766289   -1.36286218  -1.3538775   -1.33825474  -1.32791136
  -1.30700108  -0.81087639  -0.77343444  -0.76792973  -0.75569861
  -0.72652429  -0.71935338  -0.71317328  -0.68482387  -0.67193818
  -0.63777538  -0.62978055  -0.60011916  -0.58666646  -0.57089868
  -0.55689345  -0.54833753  -0.53808612  -0.53282904  -0.51031235
  -0.50646316  -0.50291007  -0.49089316  -0.48076834  -0.46663737
   0.14717643   0.20839191   0.23696726   0.24965493   0.26226939
   0.28771638   0.28986807   0.3040371    0.31289634   0.35080931
   0.35828846   0.37285685   0.38346337   0.40204904   0.42454811
   0.47609431   0.94512604   0.96888944   0.97623564   0.98625656
   0.99742827   1.02625378   1.04800715   1.05929099   1.0690796
   1.07564495   1.09064138   1.09366324   1.10093262   1.10752402
   1.12093154   1.13360718   1.15337552   1.15822698   1.16656859
   1.17364792   1.19195723   1.20955442   1.22152069   1.24839397
   1.28006931   1.29863994   1.33367876   1.33852205   1.34741401
   1.35367875   1.36172029   1.37295291   1.38658774   1.39684233
   1.41800838   1.41936665   1.44121329   1.47291819   1.4921451
   1.50517303   1.51966164   1.56364441   1.57680704   1.58892403
   1.6519753    1.66599236   1.71485632   1.84216984   1.95910455
   1.98279905   1.99175592   2.00052471   2.00344132   2.0183969
   2.03405415   2.03733421   2.041889     2.05417508   2.05962936
   2.06543425   2.07624687   2.09068937   2.09742045   2.09999846
   2.1231589    2.14770511   2.1580528    2.16883136   2.17476833
   2.19139538   2.20659678   2.33643423   2.53203269   2.62503006
   2.63847111   2.66079086   2.66655471   2.69748064   2.71461663
   2.74958073   2.91591931   2.92711251   2.95486493   2.95879461
   2.99309885   3.0047497    3.0389616    3.05970272   4.01929346
   4.04431465   4.08798475   4.1167381    4.14507496   4.19275925
   4.20651492   4.36535423]
E1 = -1853.2268341677527  E_coul = 736.3801783663363
Extra cycle  E= -608.118349179818  delta_E= -1.82e-11  |g|= 3.69e-06  |ddm|= 9.54e-06
    CPU time for scf_cycle     12.44 sec, wall time      1.56 sec
    CPU time for SCF     12.47 sec, wall time      1.56 sec
converged SCF energy = -608.118349179818
