Atom number=33                                                          
SP        RHF                                                         6-31G(d)            
Number of atoms                            I               33
Info1-9                                    I   N=           9
          68          67           0           0           0         111
           1           1           2
Full Title                                 C   N=           2
Atom number=33          
Route                                      C   N=           4
#p hf/6-31g(d) pop=npa charge nosymm Guess=read 
Charge                                     I                0
Multiplicity                               I                1
Number of electrons                        I              110
Number of alpha electrons                  I               55
Number of beta electrons                   I               55
Number of basis functions                  I              209
Number of independent functions            I              209
Number of point charges in /Mol/           I                0
Number of translation vectors              I                0
Atomic numbers                             I   N=          33
           8           8           8           8           8           8
           8           8           8           8           8           1
           1           1           1           1           1           1
           1           1           1           1           1           1
           1           1           1           1           1           1
           1           1           1
Nuclear charges                            R   N=          33
  8.00000000E+00  8.00000000E+00  8.00000000E+00  8.00000000E+00  8.00000000E+00
  8.00000000E+00  8.00000000E+00  8.00000000E+00  8.00000000E+00  8.00000000E+00
  8.00000000E+00  1.00000000E+00  1.00000000E+00  1.00000000E+00  1.00000000E+00
  1.00000000E+00  1.00000000E+00  1.00000000E+00  1.00000000E+00  1.00000000E+00
  1.00000000E+00  1.00000000E+00  1.00000000E+00  1.00000000E+00  1.00000000E+00
  1.00000000E+00  1.00000000E+00  1.00000000E+00  1.00000000E+00  1.00000000E+00
  1.00000000E+00  1.00000000E+00  1.00000000E+00
Current cartesian coordinates              R   N=          99
 -1.34849842E+01  2.09323160E+00  9.67347591E-02 -9.17038002E+00  4.36652912E-01
  2.36156732E+00 -1.20465690E+01 -2.45537924E+00 -5.13154014E-01 -1.39755205E+01
 -8.38446084E-01  3.90733349E+00 -5.20690265E+00  1.62617010E+00 -3.47164916E+00
 -6.90532800E+00 -2.64821850E+00 -1.37666720E+00 -4.39641965E+00  9.21480309E-01
  1.46074153E+00 -9.91336479E+00  1.15533581E+00 -2.82898014E+00 -2.23144364E+00
 -2.33126982E+00 -2.14232634E+00  5.85889554E-02 -1.83023074E-01  2.15441645E+00
 -8.70662059E-01  2.64860083E+00 -2.14924550E+00 -4.57733462E+00  3.30079910E+00
 -3.17105778E+00 -3.81427518E+00  4.70805101E-01 -3.60131712E+00 -1.11026828E+00
 -9.51614978E-01 -2.50372872E+00 -1.27561973E+00 -3.86698155E+00 -2.00418342E+00
 -6.23971955E+00 -1.73173962E+00 -2.79375056E+00 -5.55552032E+00 -3.51408064E+00
 -5.28495397E-01 -5.10838232E+00  1.57293659E-01 -2.25727597E-02 -5.71568552E+00
  1.70053903E+00  2.43218295E+00 -8.72331197E-01 -1.27002865E+00  1.03956221E+00
 -1.09912390E+00  7.89037134E-01  3.15735874E+00 -9.78164534E-01  2.15596750E+00
 -4.06589750E-01  8.30292841E-01  3.14983938E+00 -2.53213667E+00 -1.05298843E+01
 -3.01188683E+00 -1.33841775E+00 -1.28749714E+01 -1.21338097E+00 -1.54382519E+00
 -1.18853620E+01  1.26190676E+00  2.99715930E-01 -1.34710206E+01  3.06581942E+00
 -1.43459515E+00 -1.06867278E+01  7.43345843E-01  3.30904930E+00 -9.22593063E+00
 -1.23349431E+00  1.65544005E+00 -8.83460809E+00  6.60655302E-01 -1.45687642E+00
 -8.89915271E+00  1.59383729E+00 -4.26779342E+00 -1.46900478E+01  6.61928543E-01
  3.17972090E+00 -1.38276971E+01 -2.11850041E+00  2.63034386E+00
Number of symbols in /Mol/                 I                0
Force Field                                I                0
Atom Types                                 C   N=          33
                                                            
                                                            
                                                            
                                                            
                                                            
                                                            
                                    
Int Atom Types                             I   N=          33
           0           0           0           0           0           0
           0           0           0           0           0           0
           0           0           0           0           0           0
           0           0           0           0           0           0
           0           0           0           0           0           0
           0           0           0
MM charges                                 R   N=          33
  0.00000000E+00  0.00000000E+00  0.00000000E+00  0.00000000E+00  0.00000000E+00
  0.00000000E+00  0.00000000E+00  0.00000000E+00  0.00000000E+00  0.00000000E+00
  0.00000000E+00  0.00000000E+00  0.00000000E+00  0.00000000E+00  0.00000000E+00
  0.00000000E+00  0.00000000E+00  0.00000000E+00  0.00000000E+00  0.00000000E+00
  0.00000000E+00  0.00000000E+00  0.00000000E+00  0.00000000E+00  0.00000000E+00
  0.00000000E+00  0.00000000E+00  0.00000000E+00  0.00000000E+00  0.00000000E+00
  0.00000000E+00  0.00000000E+00  0.00000000E+00
Integer atomic weights                     I   N=          33
          16          16          16          16          16          16
          16          16          16          16          16           1
           1           1           1           1           1           1
           1           1           1           1           1           1
           1           1           1           1           1           1
           1           1           1
Real atomic weights                        R   N=          33
  1.59949146E+01  1.59949146E+01  1.59949146E+01  1.59949146E+01  1.59949146E+01
  1.59949146E+01  1.59949146E+01  1.59949146E+01  1.59949146E+01  1.59949146E+01
  1.59949146E+01  1.00782504E+00  1.00782504E+00  1.00782504E+00  1.00782504E+00
  1.00782504E+00  1.00782504E+00  1.00782504E+00  1.00782504E+00  1.00782504E+00
  1.00782504E+00  1.00782504E+00  1.00782504E+00  1.00782504E+00  1.00782504E+00
  1.00782504E+00  1.00782504E+00  1.00782504E+00  1.00782504E+00  1.00782504E+00
  1.00782504E+00  1.00782504E+00  1.00782504E+00
Atom fragment info                         I   N=          33
           0           0           0           0           0           0
           0           0           0           0           0           0
           0           0           0           0           0           0
           0           0           0           0           0           0
           0           0           0           0           0           0
           0           0           0
Atom residue num                           I   N=          33
           0           0           0           0           0           0
           0           0           0           0           0           0
           0           0           0           0           0           0
           0           0           0           0           0           0
           0           0           0           0           0           0
           0           0           0
Nuclear spins                              I   N=          33
           0           0           0           0           0           0
           0           0           0           0           0           1
           1           1           1           1           1           1
           1           1           1           1           1           1
           1           1           1           1           1           1
           1           1           1
Nuclear ZEff                               R   N=          33
 -5.60000000E+00 -5.60000000E+00 -5.60000000E+00 -5.60000000E+00 -5.60000000E+00
 -5.60000000E+00 -5.60000000E+00 -5.60000000E+00 -5.60000000E+00 -5.60000000E+00
 -5.60000000E+00 -1.00000000E+00 -1.00000000E+00 -1.00000000E+00 -1.00000000E+00
 -1.00000000E+00 -1.00000000E+00 -1.00000000E+00 -1.00000000E+00 -1.00000000E+00
 -1.00000000E+00 -1.00000000E+00 -1.00000000E+00 -1.00000000E+00 -1.00000000E+00
 -1.00000000E+00 -1.00000000E+00 -1.00000000E+00 -1.00000000E+00 -1.00000000E+00
 -1.00000000E+00 -1.00000000E+00 -1.00000000E+00
Nuclear ZNuc                               R   N=          33
  8.00000000E+00  8.00000000E+00  8.00000000E+00  8.00000000E+00  8.00000000E+00
  8.00000000E+00  8.00000000E+00  8.00000000E+00  8.00000000E+00  8.00000000E+00
  8.00000000E+00  1.00000000E+00  1.00000000E+00  1.00000000E+00  1.00000000E+00
  1.00000000E+00  1.00000000E+00  1.00000000E+00  1.00000000E+00  1.00000000E+00
  1.00000000E+00  1.00000000E+00  1.00000000E+00  1.00000000E+00  1.00000000E+00
  1.00000000E+00  1.00000000E+00  1.00000000E+00  1.00000000E+00  1.00000000E+00
  1.00000000E+00  1.00000000E+00  1.00000000E+00
Nuclear QMom                               R   N=          33
  0.00000000E+00  0.00000000E+00  0.00000000E+00  0.00000000E+00  0.00000000E+00
  0.00000000E+00  0.00000000E+00  0.00000000E+00  0.00000000E+00  0.00000000E+00
  0.00000000E+00  0.00000000E+00  0.00000000E+00  0.00000000E+00  0.00000000E+00
  0.00000000E+00  0.00000000E+00  0.00000000E+00  0.00000000E+00  0.00000000E+00
  0.00000000E+00  0.00000000E+00  0.00000000E+00  0.00000000E+00  0.00000000E+00
  0.00000000E+00  0.00000000E+00  0.00000000E+00  0.00000000E+00  0.00000000E+00
  0.00000000E+00  0.00000000E+00  0.00000000E+00
Nuclear GFac                               R   N=          33
  0.00000000E+00  0.00000000E+00  0.00000000E+00  0.00000000E+00  0.00000000E+00
  0.00000000E+00  0.00000000E+00  0.00000000E+00  0.00000000E+00  0.00000000E+00
  0.00000000E+00  2.79284600E+00  2.79284600E+00  2.79284600E+00  2.79284600E+00
  2.79284600E+00  2.79284600E+00  2.79284600E+00  2.79284600E+00  2.79284600E+00
  2.79284600E+00  2.79284600E+00  2.79284600E+00  2.79284600E+00  2.79284600E+00
  2.79284600E+00  2.79284600E+00  2.79284600E+00  2.79284600E+00  2.79284600E+00
  2.79284600E+00  2.79284600E+00  2.79284600E+00
MicOpt                                     I   N=          33
          -1          -1          -1          -1          -1          -1
          -1          -1          -1          -1          -1          -1
          -1          -1          -1          -1          -1          -1
          -1          -1          -1          -1          -1          -1
          -1          -1          -1          -1          -1          -1
          -1          -1          -1
Number of residues                         I                0
Number of secondary structures             I                0
Number of contracted shells                I               88
Number of primitive shells                 I              209
Pure/Cartesian d shells                    I                1
Pure/Cartesian f shells                    I                0
Highest angular momentum                   I                2
Largest degree of contraction              I                6
Shell types                                I   N=          88
           0          -1          -1           2           0          -1
          -1           2           0          -1          -1           2
           0          -1          -1           2           0          -1
          -1           2           0          -1          -1           2
           0          -1          -1           2           0          -1
          -1           2           0          -1          -1           2
           0          -1          -1           2           0          -1
          -1           2           0           0           0           0
           0           0           0           0           0           0
           0           0           0           0           0           0
           0           0           0           0           0           0
           0           0           0           0           0           0
           0           0           0           0           0           0
           0           0           0           0           0           0
           0           0           0           0
Number of primitives per shell             I   N=          88
           6           3           1           1           6           3
           1           1           6           3           1           1
           6           3           1           1           6           3
           1           1           6           3           1           1
           6           3           1           1           6           3
           1           1           6           3           1           1
           6           3           1           1           6           3
           1           1           3           1           3           1
           3           1           3           1           3           1
           3           1           3           1           3           1
           3           1           3           1           3           1
           3           1           3           1           3           1
           3           1           3           1           3           1
           3           1           3           1           3           1
           3           1           3           1
Shell to atom map                          I   N=          88
           1           1           1           1           2           2
           2           2           3           3           3           3
           4           4           4           4           5           5
           5           5           6           6           6           6
           7           7           7           7           8           8
           8           8           9           9           9           9
          10          10          10          10          11          11
          11          11          12          12          13          13
          14          14          15          15          16          16
          17          17          18          18          19          19
          20          20          21          21          22          22
          23          23          24          24          25          25
          26          26          27          27          28          28
          29          29          30          30          31          31
          32          32          33          33
Primitive exponents                        R   N=         209
  5.48467166E+03  8.25234946E+02  1.88046958E+02  5.29645000E+01  1.68975704E+01
  5.79963534E+00  1.55396162E+01  3.59993359E+00  1.01376175E+00  2.70005823E-01
  8.00000000E-01  5.48467166E+03  8.25234946E+02  1.88046958E+02  5.29645000E+01
  1.68975704E+01  5.79963534E+00  1.55396162E+01  3.59993359E+00  1.01376175E+00
  2.70005823E-01  8.00000000E-01  5.48467166E+03  8.25234946E+02  1.88046958E+02
  5.29645000E+01  1.68975704E+01  5.79963534E+00  1.55396162E+01  3.59993359E+00
  1.01376175E+00  2.70005823E-01  8.00000000E-01  5.48467166E+03  8.25234946E+02
  1.88046958E+02  5.29645000E+01  1.68975704E+01  5.79963534E+00  1.55396162E+01
  3.59993359E+00  1.01376175E+00  2.70005823E-01  8.00000000E-01  5.48467166E+03
  8.25234946E+02  1.88046958E+02  5.29645000E+01  1.68975704E+01  5.79963534E+00
  1.55396162E+01  3.59993359E+00  1.01376175E+00  2.70005823E-01  8.00000000E-01
  5.48467166E+03  8.25234946E+02  1.88046958E+02  5.29645000E+01  1.68975704E+01
  5.79963534E+00  1.55396162E+01  3.59993359E+00  1.01376175E+00  2.70005823E-01
  8.00000000E-01  5.48467166E+03  8.25234946E+02  1.88046958E+02  5.29645000E+01
  1.68975704E+01  5.79963534E+00  1.55396162E+01  3.59993359E+00  1.01376175E+00
  2.70005823E-01  8.00000000E-01  5.48467166E+03  8.25234946E+02  1.88046958E+02
  5.29645000E+01  1.68975704E+01  5.79963534E+00  1.55396162E+01  3.59993359E+00
  1.01376175E+00  2.70005823E-01  8.00000000E-01  5.48467166E+03  8.25234946E+02
  1.88046958E+02  5.29645000E+01  1.68975704E+01  5.79963534E+00  1.55396162E+01
  3.59993359E+00  1.01376175E+00  2.70005823E-01  8.00000000E-01  5.48467166E+03
  8.25234946E+02  1.88046958E+02  5.29645000E+01  1.68975704E+01  5.79963534E+00
  1.55396162E+01  3.59993359E+00  1.01376175E+00  2.70005823E-01  8.00000000E-01
  5.48467166E+03  8.25234946E+02  1.88046958E+02  5.29645000E+01  1.68975704E+01
  5.79963534E+00  1.55396162E+01  3.59993359E+00  1.01376175E+00  2.70005823E-01
  8.00000000E-01  1.87311370E+01  2.82539436E+00  6.40121692E-01  1.61277759E-01
  1.87311370E+01  2.82539436E+00  6.40121692E-01  1.61277759E-01  1.87311370E+01
  2.82539436E+00  6.40121692E-01  1.61277759E-01  1.87311370E+01  2.82539436E+00
  6.40121692E-01  1.61277759E-01  1.87311370E+01  2.82539436E+00  6.40121692E-01
  1.61277759E-01  1.87311370E+01  2.82539436E+00  6.40121692E-01  1.61277759E-01
  1.87311370E+01  2.82539436E+00  6.40121692E-01  1.61277759E-01  1.87311370E+01
  2.82539436E+00  6.40121692E-01  1.61277759E-01  1.87311370E+01  2.82539436E+00
  6.40121692E-01  1.61277759E-01  1.87311370E+01  2.82539436E+00  6.40121692E-01
  1.61277759E-01  1.87311370E+01  2.82539436E+00  6.40121692E-01  1.61277759E-01
  1.87311370E+01  2.82539436E+00  6.40121692E-01  1.61277759E-01  1.87311370E+01
  2.82539436E+00  6.40121692E-01  1.61277759E-01  1.87311370E+01  2.82539436E+00
  6.40121692E-01  1.61277759E-01  1.87311370E+01  2.82539436E+00  6.40121692E-01
  1.61277759E-01  1.87311370E+01  2.82539436E+00  6.40121692E-01  1.61277759E-01
  1.87311370E+01  2.82539436E+00  6.40121692E-01  1.61277759E-01  1.87311370E+01
  2.82539436E+00  6.40121692E-01  1.61277759E-01  1.87311370E+01  2.82539436E+00
  6.40121692E-01  1.61277759E-01  1.87311370E+01  2.82539436E+00  6.40121692E-01
  1.61277759E-01  1.87311370E+01  2.82539436E+00  6.40121692E-01  1.61277759E-01
  1.87311370E+01  2.82539436E+00  6.40121692E-01  1.61277759E-01
Contraction coefficients                   R   N=         209
  1.83107443E-03  1.39501722E-02  6.84450781E-02  2.32714336E-01  4.70192898E-01
  3.58520853E-01 -1.10777550E-01 -1.48026263E-01  1.13076702E+00  1.00000000E+00
  1.00000000E+00  1.83107443E-03  1.39501722E-02  6.84450781E-02  2.32714336E-01
  4.70192898E-01  3.58520853E-01 -1.10777550E-01 -1.48026263E-01  1.13076702E+00
  1.00000000E+00  1.00000000E+00  1.83107443E-03  1.39501722E-02  6.84450781E-02
  2.32714336E-01  4.70192898E-01  3.58520853E-01 -1.10777550E-01 -1.48026263E-01
  1.13076702E+00  1.00000000E+00  1.00000000E+00  1.83107443E-03  1.39501722E-02
  6.84450781E-02  2.32714336E-01  4.70192898E-01  3.58520853E-01 -1.10777550E-01
 -1.48026263E-01  1.13076702E+00  1.00000000E+00  1.00000000E+00  1.83107443E-03
  1.39501722E-02  6.84450781E-02  2.32714336E-01  4.70192898E-01  3.58520853E-01
 -1.10777550E-01 -1.48026263E-01  1.13076702E+00  1.00000000E+00  1.00000000E+00
  1.83107443E-03  1.39501722E-02  6.84450781E-02  2.32714336E-01  4.70192898E-01
  3.58520853E-01 -1.10777550E-01 -1.48026263E-01  1.13076702E+00  1.00000000E+00
  1.00000000E+00  1.83107443E-03  1.39501722E-02  6.84450781E-02  2.32714336E-01
  4.70192898E-01  3.58520853E-01 -1.10777550E-01 -1.48026263E-01  1.13076702E+00
  1.00000000E+00  1.00000000E+00  1.83107443E-03  1.39501722E-02  6.84450781E-02
  2.32714336E-01  4.70192898E-01  3.58520853E-01 -1.10777550E-01 -1.48026263E-01
  1.13076702E+00  1.00000000E+00  1.00000000E+00  1.83107443E-03  1.39501722E-02
  6.84450781E-02  2.32714336E-01  4.70192898E-01  3.58520853E-01 -1.10777550E-01
 -1.48026263E-01  1.13076702E+00  1.00000000E+00  1.00000000E+00  1.83107443E-03
  1.39501722E-02  6.84450781E-02  2.32714336E-01  4.70192898E-01  3.58520853E-01
 -1.10777550E-01 -1.48026263E-01  1.13076702E+00  1.00000000E+00  1.00000000E+00
  1.83107443E-03  1.39501722E-02  6.84450781E-02  2.32714336E-01  4.70192898E-01
  3.58520853E-01 -1.10777550E-01 -1.48026263E-01  1.13076702E+00  1.00000000E+00
  1.00000000E+00  3.34946043E-02  2.34726953E-01  8.13757326E-01  1.00000000E+00
  3.34946043E-02  2.34726953E-01  8.13757326E-01  1.00000000E+00  3.34946043E-02
  2.34726953E-01  8.13757326E-01  1.00000000E+00  3.34946043E-02  2.34726953E-01
  8.13757326E-01  1.00000000E+00  3.34946043E-02  2.34726953E-01  8.13757326E-01
  1.00000000E+00  3.34946043E-02  2.34726953E-01  8.13757326E-01  1.00000000E+00
  3.34946043E-02  2.34726953E-01  8.13757326E-01  1.00000000E+00  3.34946043E-02
  2.34726953E-01  8.13757326E-01  1.00000000E+00  3.34946043E-02  2.34726953E-01
  8.13757326E-01  1.00000000E+00  3.34946043E-02  2.34726953E-01  8.13757326E-01
  1.00000000E+00  3.34946043E-02  2.34726953E-01  8.13757326E-01  1.00000000E+00
  3.34946043E-02  2.34726953E-01  8.13757326E-01  1.00000000E+00  3.34946043E-02
  2.34726953E-01  8.13757326E-01  1.00000000E+00  3.34946043E-02  2.34726953E-01
  8.13757326E-01  1.00000000E+00  3.34946043E-02  2.34726953E-01  8.13757326E-01
  1.00000000E+00  3.34946043E-02  2.34726953E-01  8.13757326E-01  1.00000000E+00
  3.34946043E-02  2.34726953E-01  8.13757326E-01  1.00000000E+00  3.34946043E-02
  2.34726953E-01  8.13757326E-01  1.00000000E+00  3.34946043E-02  2.34726953E-01
  8.13757326E-01  1.00000000E+00  3.34946043E-02  2.34726953E-01  8.13757326E-01
  1.00000000E+00  3.34946043E-02  2.34726953E-01  8.13757326E-01  1.00000000E+00
  3.34946043E-02  2.34726953E-01  8.13757326E-01  1.00000000E+00
P(S=P) Contraction coefficients            R   N=         209
  0.00000000E+00  0.00000000E+00  0.00000000E+00  0.00000000E+00  0.00000000E+00
  0.00000000E+00  7.08742682E-02  3.39752839E-01  7.27158577E-01  1.00000000E+00
  0.00000000E+00  0.00000000E+00  0.00000000E+00  0.00000000E+00  0.00000000E+00
  0.00000000E+00  0.00000000E+00  7.08742682E-02  3.39752839E-01  7.27158577E-01
  1.00000000E+00  0.00000000E+00  0.00000000E+00  0.00000000E+00  0.00000000E+00
  0.00000000E+00  0.00000000E+00  0.00000000E+00  7.08742682E-02  3.39752839E-01
  7.27158577E-01  1.00000000E+00  0.00000000E+00  0.00000000E+00  0.00000000E+00
  0.00000000E+00  0.00000000E+00  0.00000000E+00  0.00000000E+00  7.08742682E-02
  3.39752839E-01  7.27158577E-01  1.00000000E+00  0.00000000E+00  0.00000000E+00
  0.00000000E+00  0.00000000E+00  0.00000000E+00  0.00000000E+00  0.00000000E+00
  7.08742682E-02  3.39752839E-01  7.27158577E-01  1.00000000E+00  0.00000000E+00
  0.00000000E+00  0.00000000E+00  0.00000000E+00  0.00000000E+00  0.00000000E+00
  0.00000000E+00  7.08742682E-02  3.39752839E-01  7.27158577E-01  1.00000000E+00
  0.00000000E+00  0.00000000E+00  0.00000000E+00  0.00000000E+00  0.00000000E+00
  0.00000000E+00  0.00000000E+00  7.08742682E-02  3.39752839E-01  7.27158577E-01
  1.00000000E+00  0.00000000E+00  0.00000000E+00  0.00000000E+00  0.00000000E+00
  0.00000000E+00  0.00000000E+00  0.00000000E+00  7.08742682E-02  3.39752839E-01
  7.27158577E-01  1.00000000E+00  0.00000000E+00  0.00000000E+00  0.00000000E+00
  0.00000000E+00  0.00000000E+00  0.00000000E+00  0.00000000E+00  7.08742682E-02
  3.39752839E-01  7.27158577E-01  1.00000000E+00  0.00000000E+00  0.00000000E+00
  0.00000000E+00  0.00000000E+00  0.00000000E+00  0.00000000E+00  0.00000000E+00
  7.08742682E-02  3.39752839E-01  7.27158577E-01  1.00000000E+00  0.00000000E+00
  0.00000000E+00  0.00000000E+00  0.00000000E+00  0.00000000E+00  0.00000000E+00
  0.00000000E+00  7.08742682E-02  3.39752839E-01  7.27158577E-01  1.00000000E+00
  0.00000000E+00  0.00000000E+00  0.00000000E+00  0.00000000E+00  0.00000000E+00
  0.00000000E+00  0.00000000E+00  0.00000000E+00  0.00000000E+00  0.00000000E+00
  0.00000000E+00  0.00000000E+00  0.00000000E+00  0.00000000E+00  0.00000000E+00
  0.00000000E+00  0.00000000E+00  0.00000000E+00  0.00000000E+00  0.00000000E+00
  0.00000000E+00  0.00000000E+00  0.00000000E+00  0.00000000E+00  0.00000000E+00
  0.00000000E+00  0.00000000E+00  0.00000000E+00  0.00000000E+00  0.00000000E+00
  0.00000000E+00  0.00000000E+00  0.00000000E+00  0.00000000E+00  0.00000000E+00
  0.00000000E+00  0.00000000E+00  0.00000000E+00  0.00000000E+00  0.00000000E+00
  0.00000000E+00  0.00000000E+00  0.00000000E+00  0.00000000E+00  0.00000000E+00
  0.00000000E+00  0.00000000E+00  0.00000000E+00  0.00000000E+00  0.00000000E+00
  0.00000000E+00  0.00000000E+00  0.00000000E+00  0.00000000E+00  0.00000000E+00
  0.00000000E+00  0.00000000E+00  0.00000000E+00  0.00000000E+00  0.00000000E+00
  0.00000000E+00  0.00000000E+00  0.00000000E+00  0.00000000E+00  0.00000000E+00
  0.00000000E+00  0.00000000E+00  0.00000000E+00  0.00000000E+00  0.00000000E+00
  0.00000000E+00  0.00000000E+00  0.00000000E+00  0.00000000E+00  0.00000000E+00
  0.00000000E+00  0.00000000E+00  0.00000000E+00  0.00000000E+00  0.00000000E+00
  0.00000000E+00  0.00000000E+00  0.00000000E+00  0.00000000E+00  0.00000000E+00
  0.00000000E+00  0.00000000E+00  0.00000000E+00  0.00000000E+00
Coordinates of each shell                  R   N=         264
 -1.34849842E+01  2.09323160E+00  9.67347591E-02 -1.34849842E+01  2.09323160E+00
  9.67347591E-02 -1.34849842E+01  2.09323160E+00  9.67347591E-02 -1.34849842E+01
  2.09323160E+00  9.67347591E-02 -9.17038002E+00  4.36652912E-01  2.36156732E+00
 -9.17038002E+00  4.36652912E-01  2.36156732E+00 -9.17038002E+00  4.36652912E-01
  2.36156732E+00 -9.17038002E+00  4.36652912E-01  2.36156732E+00 -1.20465690E+01
 -2.45537924E+00 -5.13154014E-01 -1.20465690E+01 -2.45537924E+00 -5.13154014E-01
 -1.20465690E+01 -2.45537924E+00 -5.13154014E-01 -1.20465690E+01 -2.45537924E+00
 -5.13154014E-01 -1.39755205E+01 -8.38446084E-01  3.90733349E+00 -1.39755205E+01
 -8.38446084E-01  3.90733349E+00 -1.39755205E+01 -8.38446084E-01  3.90733349E+00
 -1.39755205E+01 -8.38446084E-01  3.90733349E+00 -5.20690265E+00  1.62617010E+00
 -3.47164916E+00 -5.20690265E+00  1.62617010E+00 -3.47164916E+00 -5.20690265E+00
  1.62617010E+00 -3.47164916E+00 -5.20690265E+00  1.62617010E+00 -3.47164916E+00
 -6.90532800E+00 -2.64821850E+00 -1.37666720E+00 -6.90532800E+00 -2.64821850E+00
 -1.37666720E+00 -6.90532800E+00 -2.64821850E+00 -1.37666720E+00 -6.90532800E+00
 -2.64821850E+00 -1.37666720E+00 -4.39641965E+00  9.21480309E-01  1.46074153E+00
 -4.39641965E+00  9.21480309E-01  1.46074153E+00 -4.39641965E+00  9.21480309E-01
  1.46074153E+00 -4.39641965E+00  9.21480309E-01  1.46074153E+00 -9.91336479E+00
  1.15533581E+00 -2.82898014E+00 -9.91336479E+00  1.15533581E+00 -2.82898014E+00
 -9.91336479E+00  1.15533581E+00 -2.82898014E+00 -9.91336479E+00  1.15533581E+00
 -2.82898014E+00 -2.23144364E+00 -2.33126982E+00 -2.14232634E+00 -2.23144364E+00
 -2.33126982E+00 -2.14232634E+00 -2.23144364E+00 -2.33126982E+00 -2.14232634E+00
 -2.23144364E+00 -2.33126982E+00 -2.14232634E+00  5.85889554E-02 -1.83023074E-01
  2.15441645E+00  5.85889554E-02 -1.83023074E-01  2.15441645E+00  5.85889554E-02
 -1.83023074E-01  2.15441645E+00  5.85889554E-02 -1.83023074E-01  2.15441645E+00
 -8.70662059E-01  2.64860083E+00 -2.14924550E+00 -8.70662059E-01  2.64860083E+00
 -2.14924550E+00 -8.70662059E-01  2.64860083E+00 -2.14924550E+00 -8.70662059E-01
  2.64860083E+00 -2.14924550E+00 -4.57733462E+00  3.30079910E+00 -3.17105778E+00
 -4.57733462E+00  3.30079910E+00 -3.17105778E+00 -3.81427518E+00  4.70805101E-01
 -3.60131712E+00 -3.81427518E+00  4.70805101E-01 -3.60131712E+00 -1.11026828E+00
 -9.51614978E-01 -2.50372872E+00 -1.11026828E+00 -9.51614978E-01 -2.50372872E+00
 -1.27561973E+00 -3.86698155E+00 -2.00418342E+00 -1.27561973E+00 -3.86698155E+00
 -2.00418342E+00 -6.23971955E+00 -1.73173962E+00 -2.79375056E+00 -6.23971955E+00
 -1.73173962E+00 -2.79375056E+00 -5.55552032E+00 -3.51408064E+00 -5.28495397E-01
 -5.55552032E+00 -3.51408064E+00 -5.28495397E-01 -5.10838232E+00  1.57293659E-01
 -2.25727597E-02 -5.10838232E+00  1.57293659E-01 -2.25727597E-02 -5.71568552E+00
  1.70053903E+00  2.43218295E+00 -5.71568552E+00  1.70053903E+00  2.43218295E+00
 -8.72331197E-01 -1.27002865E+00  1.03956221E+00 -8.72331197E-01 -1.27002865E+00
  1.03956221E+00 -1.09912390E+00  7.89037134E-01  3.15735874E+00 -1.09912390E+00
  7.89037134E-01  3.15735874E+00 -9.78164534E-01  2.15596750E+00 -4.06589750E-01
 -9.78164534E-01  2.15596750E+00 -4.06589750E-01  8.30292841E-01  3.14983938E+00
 -2.53213667E+00  8.30292841E-01  3.14983938E+00 -2.53213667E+00 -1.05298843E+01
 -3.01188683E+00 -1.33841775E+00 -1.05298843E+01 -3.01188683E+00 -1.33841775E+00
 -1.28749714E+01 -1.21338097E+00 -1.54382519E+00 -1.28749714E+01 -1.21338097E+00
 -1.54382519E+00 -1.18853620E+01  1.26190676E+00  2.99715930E-01 -1.18853620E+01
  1.26190676E+00  2.99715930E-01 -1.34710206E+01  3.06581942E+00 -1.43459515E+00
 -1.34710206E+01  3.06581942E+00 -1.43459515E+00 -1.06867278E+01  7.43345843E-01
  3.30904930E+00 -1.06867278E+01  7.43345843E-01  3.30904930E+00 -9.22593063E+00
 -1.23349431E+00  1.65544005E+00 -9.22593063E+00 -1.23349431E+00  1.65544005E+00
 -8.83460809E+00  6.60655302E-01 -1.45687642E+00 -8.83460809E+00  6.60655302E-01
 -1.45687642E+00 -8.89915271E+00  1.59383729E+00 -4.26779342E+00 -8.89915271E+00
  1.59383729E+00 -4.26779342E+00 -1.46900478E+01  6.61928543E-01  3.17972090E+00
 -1.46900478E+01  6.61928543E-01  3.17972090E+00 -1.38276971E+01 -2.11850041E+00
  2.63034386E+00 -1.38276971E+01 -2.11850041E+00  2.63034386E+00
Num ILSW                                   I              100
ILSW                                       I   N=         100
           0           1           0           0           2           0
           0           0           0           0           0          -1
           5           0           0           0           0           0
           0           0           0           0           0           0
           1           1           0           0           0           0
           0           0      100000           0          -1           0