#INFO: **** input file is /home/liwei01/wsr/dftpart/test_2body/w19/gfea_c8.py ****
from dftpart import gfea3
from pyscf import lib

par = 8
with lib.with_omp_threads(par):
    fr0 = gfea3.GFEA()
    fr0.inputstyle = 'frg'
    fr0.method = ['hf', '6-31gs','cart','charge']
    fr0.gjfname = 'w19'
    fr0.output = 'w19'
    fr0.verbose = 9
    fr0.showinter = True
    #fr0.do_deriv = True
    fr0.kernel()

#INFO: ******************** input file end ********************


System: uname_result(system='Linux', node='master', release='3.10.0-693.el7.x86_64', version='#1 SMP Tue Aug 22 21:09:27 UTC 2017', machine='x86_64', processor='x86_64')  Threads 8
Python 3.7.6 (default, Jan  8 2020, 19:59:22) 
[GCC 7.3.0]
numpy 1.18.1  scipy 1.4.1
Date: Tue Jun 16 22:11:49 2020
PySCF version 1.6.1
PySCF path  /home/liwei01/zcheng/pyscf/pyscf
GIT HEAD      ref: refs/heads/master
GIT master branch  3adc7fd25839fe674469a52b764c3661e32d7318

[CONFIG] DEBUG = False
[CONFIG] MAX_MEMORY = 4000
[CONFIG] TMPDIR = .
[CONFIG] UNIT = angstrom
[CONFIG] VERBOSE = 3
[CONFIG] conf_file = None
[INPUT] verbose = 9
[INPUT] max_memory = 4000 
[INPUT] num. atoms = 33
[INPUT] num. electrons = 110
[INPUT] charge = 0
[INPUT] spin (= nelec alpha-beta = 2S) = 0
[INPUT] symmetry False subgroup None
[INPUT] Mole.unit = angstrom
[INPUT] Cartesian GTO integrals (6d 10f)
[INPUT]  1 O     -7.135946330000   1.107690460000   0.051189830000 AA  -13.484984203295   2.093231600193   0.096734759063 Bohr
[INPUT]  2 O     -4.852756120000   0.231066770000   1.249687610000 AA   -9.170380016107   0.436652911788   2.361567324162 Bohr
[INPUT]  3 O     -6.374769790000  -1.299330740000  -0.271549410000 AA  -12.046569010251  -2.455379243828  -0.513154014187 Bohr
[INPUT]  4 O     -7.395526960000  -0.443686560000   2.067671840000 AA  -13.975520501237  -0.838446083550   3.907333493076 Bohr
[INPUT]  5 O     -2.755374220000   0.860532160000  -1.837117620000 AA   -5.206902646487   1.626170103780  -3.471649160413 Bohr
[INPUT]  6 O     -3.654142210000  -1.401376880000  -0.728500910000 AA   -6.905327997113  -2.648218500497  -1.376667201396 Bohr
[INPUT]  7 O     -2.326485090000   0.487626380000   0.772991130000 AA   -4.396419652984   0.921480309313   1.460741532418 Bohr
[INPUT]  8 O     -5.245926730000   0.611377380000  -1.497031820000 AA   -9.913364789235   1.155335806954  -2.828980139559 Bohr
[INPUT]  9 O     -1.180829120000  -1.233654860000  -1.133670280000 AA   -2.231443636711  -2.331269817639  -2.142326344759 Bohr
[INPUT] 10 O      0.031003940000  -0.096851640000   1.140068090000 AA    0.058588955382  -0.183023074315   2.154416453456 Bohr
[INPUT] 11 O     -0.460734520000   1.401579200000  -1.137331740000 AA   -0.870662058933   2.648600829887  -2.149245501375 Bohr
[INPUT] 12 H     -2.422221170000   1.746707660000  -1.678051510000 AA   -4.577334624424   3.300799097080  -3.171057776813 Bohr
[INPUT] 13 H     -2.018427500000   0.249139330000  -1.905734950000 AA   -3.814275177291   0.470805100558  -3.601317121512 Bohr
[INPUT] 14 H     -0.587528670000  -0.503572960000  -1.324916180000 AA   -1.110268276630  -0.951614978137  -2.503728718205 Bohr
[INPUT] 15 H     -0.675028890000  -2.046318510000  -1.060568190000 AA   -1.275619728269  -3.866981547528  -2.004183415526 Bohr
[INPUT] 16 H     -3.301917390000  -0.916397140000  -1.478389130000 AA   -6.239719553039  -1.731739615935  -2.793750561234 Bohr
[INPUT] 17 H     -2.939854750000  -1.859571390000  -0.279667720000 AA   -5.555520323502  -3.514080636177  -0.528495396682 Bohr
[INPUT] 18 H     -2.703239510000   0.083236220000  -0.011944990000 AA   -5.108382323003   0.157293659444  -0.022572759661 Bohr
[INPUT] 19 H     -3.024610520000   0.899886500000   1.287055790000 AA   -5.715685516278   1.700539028193   2.432182950136 Bohr
[INPUT] 20 H     -0.461617790000  -0.672070220000   0.550112630000 AA   -0.872331197327  -1.270028652276   1.039562208364 Bohr
[INPUT] 21 H     -0.581631320000   0.417540470000   1.670802290000 AA   -1.099123900269   0.789037134222   3.157358736396 Bohr
[INPUT] 22 H     -0.517622380000   1.140888870000  -0.215158030000 AA   -0.978164534146   2.155967502865  -0.406589750201 Bohr
[INPUT] 23 H      0.439372050000   1.666823220000  -1.339949020000 AA    0.830292841289   3.149839383866  -2.532136668679 Bohr
[INPUT] 24 H     -5.572174820000  -1.593821870000  -0.708260170000 AA  -10.529884327998  -3.011886825642  -1.338417746238 Bohr
[INPUT] 25 H     -6.813141470000  -0.642093560000  -0.816957110000 AA  -12.874971426217  -1.213380974747  -1.543825193416 Bohr
[INPUT] 26 H     -6.289462740000   0.667772300000   0.158602840000 AA  -11.885362049257   1.261906760571   0.299715930178 Bohr
[INPUT] 27 H     -7.128557130000   1.622361770000  -0.759155060000 AA  -13.471020639016   3.065819420265  -1.434595149478 Bohr
[INPUT] 28 H     -5.655172820000   0.393361680000   1.751073480000 AA  -10.686727816884   0.743345843099   3.309049301189 Bohr
[INPUT] 29 H     -4.882152240000  -0.652737080000   0.876021150000 AA   -9.225930632032  -1.233494312548   1.655440052827 Bohr
[INPUT] 30 H     -4.675073270000   0.349603730000  -0.770945800000 AA   -8.834608092575   0.660655301826  -1.456876418884 Bohr
[INPUT] 31 H     -4.709228810000   0.843422370000  -2.258419020000 AA   -8.899152708811   1.593837286632  -4.267793422309 Bohr
[INPUT] 32 H     -7.773638520000   0.350277500000   1.682635840000 AA  -14.690047794169   0.661928542597   3.179720904977 Bohr
[INPUT] 33 H     -7.317302180000  -1.121062140000   1.391918030000 AA  -13.827697090883  -2.118500413219   2.630343864544 Bohr
[INPUT] ---------------- BASIS SET ---------------- 
[INPUT] l, kappa, [nprim/nctr], expnt,             c_1 c_2 ...
[INPUT] H
[INPUT] 0    0    [3    /1   ]  18.731137         0.0334946
                                2.8253937         0.23472695
                                0.6401217         0.81375733
[INPUT] 0    0    [1    /1   ]  0.1612778            1
[INPUT] O
[INPUT] 0    0    [6    /1   ]  5484.6717         0.0018311
                                825.23495         0.0139501
                                188.04696         0.0684451
                                52.9645           0.2327143
                                16.89757          0.470193
                                5.7996353         0.3585209
[INPUT] 0    0    [3    /1   ]  15.539616         -0.1107775
                                3.5999336         -0.1480263
                                1.0137618         1.130767
[INPUT] 0    0    [1    /1   ]  0.2700058            1
[INPUT] 1    0    [3    /1   ]  15.539616         0.0708743
                                3.5999336         0.3397528
                                1.0137618         0.7271586
[INPUT] 1    0    [1    /1   ]  0.2700058            1
[INPUT] 2    0    [1    /1   ]  0.8                  1

nuclear repulsion = 922.046145143059
number of shells = 110
number of NR pGTOs = 396
number of NR cGTOs = 209
basis = 6-31gs
ecp = {}
bas 0, expnt(s) = [5484.6717     825.23495    188.04696     52.9645      16.89757
    5.7996353]
bas 1, expnt(s) = [15.539616   3.5999336  1.0137618]
bas 2, expnt(s) = [0.2700058]
bas 3, expnt(s) = [15.539616   3.5999336  1.0137618]
bas 4, expnt(s) = [0.2700058]
bas 5, expnt(s) = [0.8]
bas 6, expnt(s) = [5484.6717     825.23495    188.04696     52.9645      16.89757
    5.7996353]
bas 7, expnt(s) = [15.539616   3.5999336  1.0137618]
bas 8, expnt(s) = [0.2700058]
bas 9, expnt(s) = [15.539616   3.5999336  1.0137618]
bas 10, expnt(s) = [0.2700058]
bas 11, expnt(s) = [0.8]
bas 12, expnt(s) = [5484.6717     825.23495    188.04696     52.9645      16.89757
    5.7996353]
bas 13, expnt(s) = [15.539616   3.5999336  1.0137618]
bas 14, expnt(s) = [0.2700058]
bas 15, expnt(s) = [15.539616   3.5999336  1.0137618]
bas 16, expnt(s) = [0.2700058]
bas 17, expnt(s) = [0.8]
bas 18, expnt(s) = [5484.6717     825.23495    188.04696     52.9645      16.89757
    5.7996353]
bas 19, expnt(s) = [15.539616   3.5999336  1.0137618]
bas 20, expnt(s) = [0.2700058]
bas 21, expnt(s) = [15.539616   3.5999336  1.0137618]
bas 22, expnt(s) = [0.2700058]
bas 23, expnt(s) = [0.8]
bas 24, expnt(s) = [5484.6717     825.23495    188.04696     52.9645      16.89757
    5.7996353]
bas 25, expnt(s) = [15.539616   3.5999336  1.0137618]
bas 26, expnt(s) = [0.2700058]
bas 27, expnt(s) = [15.539616   3.5999336  1.0137618]
bas 28, expnt(s) = [0.2700058]
bas 29, expnt(s) = [0.8]
bas 30, expnt(s) = [5484.6717     825.23495    188.04696     52.9645      16.89757
    5.7996353]
bas 31, expnt(s) = [15.539616   3.5999336  1.0137618]
bas 32, expnt(s) = [0.2700058]
bas 33, expnt(s) = [15.539616   3.5999336  1.0137618]
bas 34, expnt(s) = [0.2700058]
bas 35, expnt(s) = [0.8]
bas 36, expnt(s) = [5484.6717     825.23495    188.04696     52.9645      16.89757
    5.7996353]
bas 37, expnt(s) = [15.539616   3.5999336  1.0137618]
bas 38, expnt(s) = [0.2700058]
bas 39, expnt(s) = [15.539616   3.5999336  1.0137618]
bas 40, expnt(s) = [0.2700058]
bas 41, expnt(s) = [0.8]
bas 42, expnt(s) = [5484.6717     825.23495    188.04696     52.9645      16.89757
    5.7996353]
bas 43, expnt(s) = [15.539616   3.5999336  1.0137618]
bas 44, expnt(s) = [0.2700058]
bas 45, expnt(s) = [15.539616   3.5999336  1.0137618]
bas 46, expnt(s) = [0.2700058]
bas 47, expnt(s) = [0.8]
bas 48, expnt(s) = [5484.6717     825.23495    188.04696     52.9645      16.89757
    5.7996353]
bas 49, expnt(s) = [15.539616   3.5999336  1.0137618]
bas 50, expnt(s) = [0.2700058]
bas 51, expnt(s) = [15.539616   3.5999336  1.0137618]
bas 52, expnt(s) = [0.2700058]
bas 53, expnt(s) = [0.8]
bas 54, expnt(s) = [5484.6717     825.23495    188.04696     52.9645      16.89757
    5.7996353]
bas 55, expnt(s) = [15.539616   3.5999336  1.0137618]
bas 56, expnt(s) = [0.2700058]
bas 57, expnt(s) = [15.539616   3.5999336  1.0137618]
bas 58, expnt(s) = [0.2700058]
bas 59, expnt(s) = [0.8]
bas 60, expnt(s) = [5484.6717     825.23495    188.04696     52.9645      16.89757
    5.7996353]
bas 61, expnt(s) = [15.539616   3.5999336  1.0137618]
bas 62, expnt(s) = [0.2700058]
bas 63, expnt(s) = [15.539616   3.5999336  1.0137618]
bas 64, expnt(s) = [0.2700058]
bas 65, expnt(s) = [0.8]
bas 66, expnt(s) = [18.731137   2.8253937  0.6401217]
bas 67, expnt(s) = [0.1612778]
bas 68, expnt(s) = [18.731137   2.8253937  0.6401217]
bas 69, expnt(s) = [0.1612778]
bas 70, expnt(s) = [18.731137   2.8253937  0.6401217]
bas 71, expnt(s) = [0.1612778]
bas 72, expnt(s) = [18.731137   2.8253937  0.6401217]
bas 73, expnt(s) = [0.1612778]
bas 74, expnt(s) = [18.731137   2.8253937  0.6401217]
bas 75, expnt(s) = [0.1612778]
bas 76, expnt(s) = [18.731137   2.8253937  0.6401217]
bas 77, expnt(s) = [0.1612778]
bas 78, expnt(s) = [18.731137   2.8253937  0.6401217]
bas 79, expnt(s) = [0.1612778]
bas 80, expnt(s) = [18.731137   2.8253937  0.6401217]
bas 81, expnt(s) = [0.1612778]
bas 82, expnt(s) = [18.731137   2.8253937  0.6401217]
bas 83, expnt(s) = [0.1612778]
bas 84, expnt(s) = [18.731137   2.8253937  0.6401217]
bas 85, expnt(s) = [0.1612778]
bas 86, expnt(s) = [18.731137   2.8253937  0.6401217]
bas 87, expnt(s) = [0.1612778]
bas 88, expnt(s) = [18.731137   2.8253937  0.6401217]
bas 89, expnt(s) = [0.1612778]
bas 90, expnt(s) = [18.731137   2.8253937  0.6401217]
bas 91, expnt(s) = [0.1612778]
bas 92, expnt(s) = [18.731137   2.8253937  0.6401217]
bas 93, expnt(s) = [0.1612778]
bas 94, expnt(s) = [18.731137   2.8253937  0.6401217]
bas 95, expnt(s) = [0.1612778]
bas 96, expnt(s) = [18.731137   2.8253937  0.6401217]
bas 97, expnt(s) = [0.1612778]
bas 98, expnt(s) = [18.731137   2.8253937  0.6401217]
bas 99, expnt(s) = [0.1612778]
bas 100, expnt(s) = [18.731137   2.8253937  0.6401217]
bas 101, expnt(s) = [0.1612778]
bas 102, expnt(s) = [18.731137   2.8253937  0.6401217]
bas 103, expnt(s) = [0.1612778]
bas 104, expnt(s) = [18.731137   2.8253937  0.6401217]
bas 105, expnt(s) = [0.1612778]
bas 106, expnt(s) = [18.731137   2.8253937  0.6401217]
bas 107, expnt(s) = [0.1612778]
bas 108, expnt(s) = [18.731137   2.8253937  0.6401217]
bas 109, expnt(s) = [0.1612778]
CPU time:         0.71
arg.atm = [[  8  20   1  23   0   0]
 [  8  24   1  27   0   0]
 [  8  28   1  31   0   0]
 [  8  32   1  35   0   0]
 [  8  36   1  39   0   0]
 [  8  40   1  43   0   0]
 [  8  44   1  47   0   0]
 [  8  48   1  51   0   0]
 [  8  52   1  55   0   0]
 [  8  56   1  59   0   0]
 [  8  60   1  63   0   0]
 [  1  64   1  67   0   0]
 [  1  68   1  71   0   0]
 [  1  72   1  75   0   0]
 [  1  76   1  79   0   0]
 [  1  80   1  83   0   0]
 [  1  84   1  87   0   0]
 [  1  88   1  91   0   0]
 [  1  92   1  95   0   0]
 [  1  96   1  99   0   0]
 [  1 100   1 103   0   0]
 [  1 104   1 107   0   0]
 [  1 108   1 111   0   0]
 [  1 112   1 115   0   0]
 [  1 116   1 119   0   0]
 [  1 120   1 123   0   0]
 [  1 124   1 127   0   0]
 [  1 128   1 131   0   0]
 [  1 132   1 135   0   0]
 [  1 136   1 139   0   0]
 [  1 140   1 143   0   0]
 [  1 144   1 147   0   0]
 [  1 148   1 151   0   0]]
arg.bas = [[  0   0   6   1   0 160 166   0]
 [  0   0   3   1   0 172 175   0]
 [  0   0   1   1   0 178 179   0]
 [  0   1   3   1   0 180 183   0]
 [  0   1   1   1   0 186 187   0]
 [  0   2   1   1   0 188 189   0]
 [  1   0   6   1   0 160 166   0]
 [  1   0   3   1   0 172 175   0]
 [  1   0   1   1   0 178 179   0]
 [  1   1   3   1   0 180 183   0]
 [  1   1   1   1   0 186 187   0]
 [  1   2   1   1   0 188 189   0]
 [  2   0   6   1   0 160 166   0]
 [  2   0   3   1   0 172 175   0]
 [  2   0   1   1   0 178 179   0]
 [  2   1   3   1   0 180 183   0]
 [  2   1   1   1   0 186 187   0]
 [  2   2   1   1   0 188 189   0]
 [  3   0   6   1   0 160 166   0]
 [  3   0   3   1   0 172 175   0]
 [  3   0   1   1   0 178 179   0]
 [  3   1   3   1   0 180 183   0]
 [  3   1   1   1   0 186 187   0]
 [  3   2   1   1   0 188 189   0]
 [  4   0   6   1   0 160 166   0]
 [  4   0   3   1   0 172 175   0]
 [  4   0   1   1   0 178 179   0]
 [  4   1   3   1   0 180 183   0]
 [  4   1   1   1   0 186 187   0]
 [  4   2   1   1   0 188 189   0]
 [  5   0   6   1   0 160 166   0]
 [  5   0   3   1   0 172 175   0]
 [  5   0   1   1   0 178 179   0]
 [  5   1   3   1   0 180 183   0]
 [  5   1   1   1   0 186 187   0]
 [  5   2   1   1   0 188 189   0]
 [  6   0   6   1   0 160 166   0]
 [  6   0   3   1   0 172 175   0]
 [  6   0   1   1   0 178 179   0]
 [  6   1   3   1   0 180 183   0]
 [  6   1   1   1   0 186 187   0]
 [  6   2   1   1   0 188 189   0]
 [  7   0   6   1   0 160 166   0]
 [  7   0   3   1   0 172 175   0]
 [  7   0   1   1   0 178 179   0]
 [  7   1   3   1   0 180 183   0]
 [  7   1   1   1   0 186 187   0]
 [  7   2   1   1   0 188 189   0]
 [  8   0   6   1   0 160 166   0]
 [  8   0   3   1   0 172 175   0]
 [  8   0   1   1   0 178 179   0]
 [  8   1   3   1   0 180 183   0]
 [  8   1   1   1   0 186 187   0]
 [  8   2   1   1   0 188 189   0]
 [  9   0   6   1   0 160 166   0]
 [  9   0   3   1   0 172 175   0]
 [  9   0   1   1   0 178 179   0]
 [  9   1   3   1   0 180 183   0]
 [  9   1   1   1   0 186 187   0]
 [  9   2   1   1   0 188 189   0]
 [ 10   0   6   1   0 160 166   0]
 [ 10   0   3   1   0 172 175   0]
 [ 10   0   1   1   0 178 179   0]
 [ 10   1   3   1   0 180 183   0]
 [ 10   1   1   1   0 186 187   0]
 [ 10   2   1   1   0 188 189   0]
 [ 11   0   3   1   0 152 155   0]
 [ 11   0   1   1   0 158 159   0]
 [ 12   0   3   1   0 152 155   0]
 [ 12   0   1   1   0 158 159   0]
 [ 13   0   3   1   0 152 155   0]
 [ 13   0   1   1   0 158 159   0]
 [ 14   0   3   1   0 152 155   0]
 [ 14   0   1   1   0 158 159   0]
 [ 15   0   3   1   0 152 155   0]
 [ 15   0   1   1   0 158 159   0]
 [ 16   0   3   1   0 152 155   0]
 [ 16   0   1   1   0 158 159   0]
 [ 17   0   3   1   0 152 155   0]
 [ 17   0   1   1   0 158 159   0]
 [ 18   0   3   1   0 152 155   0]
 [ 18   0   1   1   0 158 159   0]
 [ 19   0   3   1   0 152 155   0]
 [ 19   0   1   1   0 158 159   0]
 [ 20   0   3   1   0 152 155   0]
 [ 20   0   1   1   0 158 159   0]
 [ 21   0   3   1   0 152 155   0]
 [ 21   0   1   1   0 158 159   0]
 [ 22   0   3   1   0 152 155   0]
 [ 22   0   1   1   0 158 159   0]
 [ 23   0   3   1   0 152 155   0]
 [ 23   0   1   1   0 158 159   0]
 [ 24   0   3   1   0 152 155   0]
 [ 24   0   1   1   0 158 159   0]
 [ 25   0   3   1   0 152 155   0]
 [ 25   0   1   1   0 158 159   0]
 [ 26   0   3   1   0 152 155   0]
 [ 26   0   1   1   0 158 159   0]
 [ 27   0   3   1   0 152 155   0]
 [ 27   0   1   1   0 158 159   0]
 [ 28   0   3   1   0 152 155   0]
 [ 28   0   1   1   0 158 159   0]
 [ 29   0   3   1   0 152 155   0]
 [ 29   0   1   1   0 158 159   0]
 [ 30   0   3   1   0 152 155   0]
 [ 30   0   1   1   0 158 159   0]
 [ 31   0   3   1   0 152 155   0]
 [ 31   0   1   1   0 158 159   0]
 [ 32   0   3   1   0 152 155   0]
 [ 32   0   1   1   0 158 159   0]]
arg.env = [ 1.37036000e+02  0.00000000e+00  0.00000000e+00  0.00000000e+00
  0.00000000e+00  0.00000000e+00  0.00000000e+00  0.00000000e+00
  0.00000000e+00  0.00000000e+00  0.00000000e+00  0.00000000e+00
  0.00000000e+00  0.00000000e+00  0.00000000e+00  0.00000000e+00
  0.00000000e+00  0.00000000e+00  0.00000000e+00  0.00000000e+00
 -1.34849842e+01  2.09323160e+00  9.67347591e-02  0.00000000e+00
 -9.17038002e+00  4.36652912e-01  2.36156732e+00  0.00000000e+00
 -1.20465690e+01 -2.45537924e+00 -5.13154014e-01  0.00000000e+00
 -1.39755205e+01 -8.38446084e-01  3.90733349e+00  0.00000000e+00
 -5.20690265e+00  1.62617010e+00 -3.47164916e+00  0.00000000e+00
 -6.90532800e+00 -2.64821850e+00 -1.37666720e+00  0.00000000e+00
 -4.39641965e+00  9.21480309e-01  1.46074153e+00  0.00000000e+00
 -9.91336479e+00  1.15533581e+00 -2.82898014e+00  0.00000000e+00
 -2.23144364e+00 -2.33126982e+00 -2.14232634e+00  0.00000000e+00
  5.85889554e-02 -1.83023074e-01  2.15441645e+00  0.00000000e+00
 -8.70662059e-01  2.64860083e+00 -2.14924550e+00  0.00000000e+00
 -4.57733462e+00  3.30079910e+00 -3.17105778e+00  0.00000000e+00
 -3.81427518e+00  4.70805101e-01 -3.60131712e+00  0.00000000e+00
 -1.11026828e+00 -9.51614978e-01 -2.50372872e+00  0.00000000e+00
 -1.27561973e+00 -3.86698155e+00 -2.00418342e+00  0.00000000e+00
 -6.23971955e+00 -1.73173962e+00 -2.79375056e+00  0.00000000e+00
 -5.55552032e+00 -3.51408064e+00 -5.28495397e-01  0.00000000e+00
 -5.10838232e+00  1.57293659e-01 -2.25727597e-02  0.00000000e+00
 -5.71568552e+00  1.70053903e+00  2.43218295e+00  0.00000000e+00
 -8.72331197e-01 -1.27002865e+00  1.03956221e+00  0.00000000e+00
 -1.09912390e+00  7.89037134e-01  3.15735874e+00  0.00000000e+00
 -9.78164534e-01  2.15596750e+00 -4.06589750e-01  0.00000000e+00
  8.30292841e-01  3.14983938e+00 -2.53213667e+00  0.00000000e+00
 -1.05298843e+01 -3.01188683e+00 -1.33841775e+00  0.00000000e+00
 -1.28749714e+01 -1.21338097e+00 -1.54382519e+00  0.00000000e+00
 -1.18853620e+01  1.26190676e+00  2.99715930e-01  0.00000000e+00
 -1.34710206e+01  3.06581942e+00 -1.43459515e+00  0.00000000e+00
 -1.06867278e+01  7.43345843e-01  3.30904930e+00  0.00000000e+00
 -9.22593063e+00 -1.23349431e+00  1.65544005e+00  0.00000000e+00
 -8.83460809e+00  6.60655302e-01 -1.45687642e+00  0.00000000e+00
 -8.89915271e+00  1.59383729e+00 -4.26779342e+00  0.00000000e+00
 -1.46900478e+01  6.61928543e-01  3.17972090e+00  0.00000000e+00
 -1.38276971e+01 -2.11850041e+00  2.63034386e+00  0.00000000e+00
  1.87311370e+01  2.82539370e+00  6.40121700e-01  7.61926220e-01
  1.29237100e+00  1.47131900e+00  1.61277800e-01  6.42977783e-01
  5.48467170e+03  8.25234950e+02  1.88046960e+02  5.29645000e+01
  1.68975700e+01  5.79963530e+00  2.94842455e+00  5.42657124e+00
  8.78126489e+00  1.15432129e+01  9.90055015e+00  3.38516599e+00
  1.55396160e+01  3.59993360e+00  1.01376180e+00 -2.19051792e+00
 -9.77405528e-01  2.88629094e+00  2.70005800e-01  9.46334873e-01
  1.55396160e+01  3.59993360e+00  1.01376180e+00  6.37930734e+00
  4.91490975e+00  2.15791055e+00  2.70005800e-01  5.67807022e-01
  8.00000000e-01  1.76578110e+00]
ecpbas  = []


******** <class 'pyscf.qmmm.itrf.mm_charge.<locals>.QMMM'> ********
method = QMMM-RHF
initial guess = minao
damping factor = 0
level shift factor = 0
DIIS = <class 'pyscf.scf.diis.CDIIS'>
DIIS start cycle = 1
DIIS space = 8
SCF tol = 1e-09
SCF gradient tol = None
max. SCF cycles = 50
direct_scf = True
direct_scf_tol = 1e-13
chkfile to save SCF result = /home/liwei01/wsr/dftpart/test_2body/w19/tmpm8cpkkq5
max_memory 4000 MB (current use 74 MB)
** Add background charges for <class 'pyscf.scf.hf.RHF'> **
Charge      Location
-1.036976    [ 3.86679125  2.29232814 -0.5192912 ]
0.520717    [ 5.35471445  1.25778835 -0.60238947]
0.508179    [3.07976443 2.09050756 1.10272933]
0.501129    [ 7.22840011 -1.0045758   0.95136814]
-1.011936    [ 7.07839516 -1.97761385 -0.57237359]
0.516564    [ 8.70257401 -2.6475258  -1.02442932]
0.518579    [ 9.15526977  0.62770774 -2.21956363]
-1.055603    [10.91628876  0.37687018 -1.86321262]
0.541667    [11.46064771  1.58513319 -0.62431506]
0.497636    [7.74046069 2.27469652 2.70339813]
-1.011863    [8.19009517 2.90000336 1.06086547]
0.523055    [6.98819787 4.15595658 0.54209984]
0.506103    [ 2.71309104 -1.1255655  -0.33473873]
-1.036887    [ 2.32537453 -2.46656776 -1.49339407]
0.511659    [ 3.86539913 -3.23887304 -2.0616916 ]
-1.014811    [4.96184321 0.18667316 3.55783101]
0.491449    [ 6.2603986  -0.72871872  4.43356213]
0.539651    [ 3.33808804 -0.48036024  4.01562894]
0.510662    [13.54402868 -1.2027434   0.21934096]
-1.019305    [14.09300408 -0.25214873  1.66367096]
0.501734    [15.80584223  0.29120088  1.41457265]
0.517037    [14.16668686 -0.55019599 -3.22326821]
-1.007951    [15.84836491 -0.72262804 -2.56499814]
0.48223    [17.02232926 -0.88076726 -3.93900434]
Set gradient conv threshold to 3.16228e-05
Nelec from initial guess = 109.91498936099086
cond(S) = 1244.1952060639437
E1 = -2977.3870263964386  E_coul = 1220.901864441684
init E= -835.734853462416
    CPU time for initialize scf     18.56 sec, wall time      2.43 sec
  HOMO = -0.431513049991537  LUMO = 0.0577398772766027
  mo_energy =
[-20.85018362 -20.80774346 -20.80502601 -20.80329161 -20.80122548
 -20.80105438 -20.79942616 -20.79197284 -20.78736524 -20.76642635
 -20.74785401  -1.79006012  -1.73700955  -1.67178182  -1.63215747
  -1.62442676  -1.6080804   -1.58998686  -1.58237764  -1.58109483
  -1.5513954   -1.54340071  -0.84323842  -0.83547678  -0.81864935
  -0.81343661  -0.7977054   -0.78405887  -0.76051972  -0.75671437
  -0.74298584  -0.73802644  -0.70053493  -0.67871961  -0.65600435
  -0.62723125  -0.62027085  -0.60897772  -0.57900414  -0.57429132
  -0.54487932  -0.53681367  -0.51258525  -0.5004303   -0.49620497
  -0.4871006   -0.48515097  -0.47187206  -0.46938135  -0.46257405
  -0.46023867  -0.44541881  -0.44151126  -0.43473012  -0.43151305
   0.05773988   0.10747792   0.143095     0.1641431    0.18165852
   0.18863541   0.19433857   0.21963974   0.23088188   0.23980375
   0.25192899   0.27596754   0.27677908   0.28592116   0.29871145
   0.31204077   0.31426888   0.32568502   0.33027683   0.34401505
   0.37978628   0.39582933   0.85185566   0.860672     0.87462851
   0.90883897   0.91980054   0.93199692   0.94535019   0.95244942
   0.96061859   0.96807719   0.99427403   1.00403247   1.01289614
   1.01641985   1.02956182   1.03627859   1.04084213   1.04662328
   1.06143329   1.067642     1.07720166   1.08028379   1.09400649
   1.10559616   1.11258635   1.11959519   1.13624066   1.15249937
   1.16433853   1.16675757   1.17995295   1.19494222   1.19921996
   1.22244001   1.23073831   1.23365388   1.25173634   1.26018615
   1.28331349   1.29543548   1.30394553   1.3125164    1.3275228
   1.33964274   1.34408165   1.36093441   1.36206581   1.39348714
   1.40762188   1.41494506   1.42915517   1.44367613   1.45503824
   1.47218573   1.5131464    1.52193506   1.54145187   1.5539217
   1.55690706   1.59016579   1.62441311   1.64788567   1.6707876
   1.74983041   1.81824824   1.83510875   1.87610965   1.88604491
   1.88638525   1.88964234   1.89493314   1.91117558   1.91726768
   1.92646542   1.93328817   1.93660763   1.94528009   1.94852882
   1.95161676   1.95618619   1.96231063   1.97168295   1.98566015
   1.99755671   2.00798737   2.01404642   2.02142893   2.02627281
   2.03445656   2.04507899   2.05065527   2.06803153   2.07591359
   2.08639637   2.10221495   2.11048778   2.20661556   2.35125776
   2.43476086   2.51090898   2.53217342   2.55184313   2.58117277
   2.58186752   2.60684534   2.64295327   2.66819183   2.67954647
   2.68215913   2.73998938   2.82664322   2.85045874   2.86983853
   2.88658268   2.90126819   2.90413245   2.92567036   2.95535135
   2.97946921   2.98412309   3.00734843   3.94785327   3.94949439
   4.03413768   4.06747984   4.08675795   4.09468716   4.11678957
   4.13463768   4.15182679   4.34130236   4.44744016]
E1 = -3002.7537305232263  E_coul = 1246.143268179127
cycle= 1 E= -835.860153851761  delta_E= -0.125  |g|= 1.28  |ddm|=  4.1
    CPU time for cycle= 1      2.15 sec, wall time      0.27 sec
diis-norm(errvec)=2.36801
diis-c [-5.60748993  1.        ]
  HOMO = -0.357020278597723  LUMO = 0.194624294280339
  mo_energy =
[-20.45037913 -20.41063606 -20.37145511 -20.37018641 -20.3466032
 -20.3286312  -20.32299242 -20.30078828 -20.29901872 -20.29167976
 -20.26905837  -1.36437211  -1.32905249  -1.30914679  -1.29358348
  -1.29057922  -1.28054832  -1.26093613  -1.24199293  -1.24084905
  -1.23132826  -1.20882362  -0.7665633   -0.72594858  -0.69644251
  -0.69240331  -0.68704594  -0.68042082  -0.6748758   -0.65245796
  -0.64868523  -0.62314127  -0.61082243  -0.59309689  -0.57797354
  -0.56496569  -0.53012569  -0.51882884  -0.51484839  -0.49310441
  -0.49058374  -0.47578563  -0.46714414  -0.45675357  -0.45316977
  -0.44565941  -0.43487942  -0.42525961  -0.42180582  -0.40208628
  -0.39584119  -0.38885634  -0.38517368  -0.37206603  -0.35702028
   0.19462429   0.25744331   0.26483823   0.27954823   0.29188475
   0.2998938    0.33116956   0.34314978   0.34879466   0.36805092
   0.37212766   0.37916807   0.4031931    0.40865942   0.42585711
   0.43359219   0.44487885   0.45009571   0.46346644   0.47481033
   0.53395714   0.55776632   0.95712919   0.99013289   1.02532034
   1.02918918   1.04193357   1.0486384    1.06591635   1.08116762
   1.09489019   1.09720184   1.10776051   1.11040141   1.12910229
   1.13368107   1.15330821   1.15918648   1.16758454   1.17146685
   1.18651906   1.19567988   1.19900261   1.20750636   1.21176093
   1.22473572   1.23508414   1.26201251   1.27050363   1.28756106
   1.30313593   1.31151712   1.34166376   1.35114572   1.3612187
   1.38639007   1.39214634   1.39937994   1.408502     1.42068783
   1.42609541   1.44194207   1.45643481   1.46041599   1.48523285
   1.50371989   1.5103424    1.51483228   1.53115095   1.54802368
   1.55696799   1.57362825   1.59129713   1.60267701   1.61643096
   1.6267023    1.64809578   1.65488735   1.67978524   1.70248578
   1.71612743   1.73508221   1.76262576   1.80821216   1.83600663
   1.85933334   1.94859385   1.9958264    2.02561591   2.04085179
   2.05085174   2.06586728   2.07540551   2.07891455   2.08445127
   2.09078029   2.09962856   2.10255904   2.1082859    2.12246736
   2.12756893   2.13961653   2.147        2.15350774   2.15917327
   2.1613124    2.17595575   2.18106887   2.19386016   2.20592982
   2.2166148    2.22726523   2.22962587   2.23033867   2.24903716
   2.27002442   2.27269132   2.2792511    2.36299087   2.52292617
   2.59767198   2.64354956   2.6649792    2.70139411   2.72064618
   2.73523608   2.74302044   2.77734527   2.78525852   2.82194511
   2.8608578    2.90913601   2.97321083   2.98168387   3.00000362
   3.03430719   3.03801421   3.07208083   3.08085151   3.09634369
   3.12251502   3.1298907    3.1580844    4.17788984   4.22990227
   4.23758965   4.25532751   4.28640937   4.29823077   4.31443077
   4.33608153   4.37024565   4.58143489   4.67704151]
E1 = -2988.166488191621  E_coul = 1231.2943800861256
cycle= 2 E= -836.121799613157  delta_E= -0.262  |g|= 0.595  |ddm|=  1.1
    CPU time for cycle= 2      2.01 sec, wall time      0.25 sec
diis-norm(errvec)=1.05937
diis-c [-0.40000427  0.27136002  0.72863998]
  HOMO = -0.448518212262517  LUMO = 0.1904145626128
  mo_energy =
[-20.6080643  -20.60407339 -20.59775383 -20.58186527 -20.5809677
 -20.55554513 -20.55285099 -20.55157259 -20.55078336 -20.54536453
 -20.53648995  -1.40431251  -1.38028446  -1.37046976  -1.3635862
  -1.35746185  -1.34297097  -1.33340448  -1.31834852  -1.31724078
  -1.31151664  -1.29673319  -0.79345814  -0.76329664  -0.75102069
  -0.74485328  -0.73519843  -0.7309417   -0.7262965   -0.70902575
  -0.70619786  -0.68673674  -0.67752324  -0.64201268  -0.63772171
  -0.63621965  -0.59945649  -0.58760984  -0.5725003   -0.56273891
  -0.54645213  -0.53938874  -0.53429383  -0.5297304   -0.52133965
  -0.5156042   -0.50865925  -0.5015414   -0.49727101  -0.48295222
  -0.47802758  -0.46914637  -0.46824183  -0.4527837   -0.44851821
   0.19041456   0.24656928   0.25208308   0.26313685   0.28342273
   0.29390841   0.31272583   0.32530307   0.33011467   0.34664726
   0.35814232   0.37380759   0.38269652   0.39106613   0.40963237
   0.41331256   0.42600594   0.42737922   0.4415656    0.44527888
   0.4980514    0.52482749   0.9306458    0.96276915   0.98663451
   0.99184104   1.00958121   1.02162125   1.0423038    1.04979613
   1.05684603   1.05977328   1.06630132   1.0765588    1.09662695
   1.10722214   1.11745708   1.12767792   1.12804486   1.13723343
   1.1480941    1.15478065   1.15992885   1.16992542   1.17320389
   1.18419523   1.19542466   1.22280014   1.23094634   1.23852083
   1.2549006    1.26477797   1.28996487   1.30597887   1.31448329
   1.33336936   1.33641191   1.34523662   1.36669045   1.37259223
   1.37504263   1.39653703   1.4034403    1.40831133   1.42929789
   1.45177738   1.45650916   1.46628872   1.4788945    1.49020926
   1.50851725   1.52947122   1.52978319   1.54558482   1.5599389
   1.58772966   1.59587999   1.60655001   1.62671283   1.65884489
   1.66411983   1.68250427   1.71462949   1.7596508    1.7819425
   1.81824209   1.90820493   1.94494072   1.99014152   1.99394197
   2.00178746   2.01364902   2.02351247   2.02471259   2.02945617
   2.03304126   2.04267748   2.05397353   2.06010553   2.0673734
   2.06984167   2.07964488   2.08676566   2.09086981   2.09734201
   2.10740004   2.11303192   2.12893215   2.14062007   2.14501108
   2.15856923   2.1635015    2.1686414    2.17620018   2.19343455
   2.20160706   2.20983642   2.2150319    2.31446464   2.4732423
   2.55000964   2.62366163   2.6286209    2.65091017   2.67735284
   2.68753123   2.69242529   2.73287255   2.74458151   2.77909739
   2.80931339   2.85797236   2.93041891   2.94714161   2.96850147
   2.98805744   2.99503643   3.02296262   3.03825766   3.04434958
   3.07678064   3.08629975   3.10686389   4.09491161   4.13712802
   4.17665381   4.18401065   4.20869797   4.22290938   4.24234292
   4.24834546   4.28952256   4.49769764   4.59299965]
E1 = -2994.527245068744  E_coul = 1237.5942803736423
cycle= 3 E= -836.182656202763  delta_E= -0.0609  |g|= 0.0994  |ddm|= 0.404
    CPU time for cycle= 3      2.04 sec, wall time      0.26 sec
diis-norm(errvec)=0.18573
diis-c [-0.01157677 -0.05895905  0.02423927  1.03471978]
  HOMO = -0.439069544467224  LUMO = 0.199206595933715
  mo_energy =
[-20.57803066 -20.57170914 -20.56732767 -20.55267593 -20.5476644
 -20.53426389 -20.52364499 -20.52281807 -20.51997521 -20.51318754
 -20.50083016  -1.39004386  -1.36619974  -1.35592022  -1.34960927
  -1.34581647  -1.32787499  -1.32293225  -1.3070775   -1.30588708
  -1.29993463  -1.28427353  -0.7793134   -0.74993384  -0.73807623
  -0.73470745  -0.72365436  -0.71870549  -0.71462393  -0.69797215
  -0.69590068  -0.67689607  -0.66742441  -0.63149485  -0.62668426
  -0.62500517  -0.58947262  -0.57955876  -0.56227543  -0.5526185
  -0.53703958  -0.52997133  -0.52216156  -0.51883865  -0.51126676
  -0.5046258   -0.49745405  -0.49048733  -0.48830919  -0.47415079
  -0.46948173  -0.45967757  -0.45877211  -0.44470068  -0.43906954
   0.1992066    0.25303478   0.25893456   0.26973187   0.29097466
   0.30183093   0.31812228   0.33046761   0.33627877   0.35141332
   0.36571658   0.38336965   0.38862889   0.40057101   0.41656613
   0.42080411   0.43269745   0.43563333   0.44966905   0.45207421
   0.50645227   0.53370158   0.94037028   0.96984499   0.99445574
   1.00042378   1.01764758   1.03023692   1.05114399   1.05779468
   1.06525653   1.06772477   1.07460105   1.08498323   1.10586466
   1.11797072   1.12507471   1.13786531   1.13855803   1.14620306
   1.15749675   1.1646729    1.16929052   1.17916041   1.18328655
   1.19409521   1.20409317   1.23144856   1.24189977   1.24741482
   1.2650738    1.27474128   1.29887324   1.3163288    1.32481248
   1.34429315   1.34598588   1.35316007   1.37827136   1.3827324
   1.38619113   1.40621996   1.41494323   1.41947707   1.44026316
   1.46141053   1.46740691   1.47592665   1.48842627   1.50038799
   1.51934127   1.53813395   1.53930145   1.55506657   1.56991156
   1.59848547   1.60481922   1.61621413   1.63541185   1.66852629
   1.67286688   1.69030213   1.72441073   1.76834532   1.79058993
   1.8288528    1.91865346   1.95325707   2.00205117   2.00631761
   2.01407481   2.0256723    2.03358203   2.03548079   2.04098548
   2.04265195   2.05336741   2.06418844   2.0706661    2.07748813
   2.08132178   2.08933708   2.09623012   2.09973338   2.1084135
   2.1187216    2.12261509   2.13919943   2.15089253   2.15398765
   2.16870929   2.17267601   2.17754014   2.18693053   2.20469741
   2.21088435   2.21953508   2.2246438    2.32226301   2.48094408
   2.55873528   2.63542975   2.64244267   2.65971391   2.68778335
   2.69654299   2.70116313   2.74387268   2.75615607   2.78941098
   2.81800247   2.86709875   2.94355531   2.95893538   2.98127971
   2.99681921   3.00845522   3.03265885   3.04812893   3.05571132
   3.08598549   3.09704504   3.11654006   4.10917474   4.14884168
   4.19118075   4.196005     4.22141659   4.23491986   4.25494586
   4.25974522   4.30090179   4.50755824   4.60390297]
E1 = -2993.774310046941  E_coul = 1236.8389550630045
cycle= 4 E= -836.185046491598  delta_E= -0.00239  |g|= 0.0135  |ddm|= 0.0826
    CPU time for cycle= 4      2.06 sec, wall time      0.26 sec
diis-norm(errvec)=0.0269626
diis-c [-3.82602039e-04 -4.78948785e-03 -1.91993099e-02 -7.47546161e-02
  1.09874341e+00]
  HOMO = -0.44108143804686  LUMO = 0.199124140077433
  mo_energy =
[-20.57786742 -20.57225344 -20.57145623 -20.55234001 -20.551031
 -20.53207059 -20.52402366 -20.52313873 -20.52154355 -20.51577279
 -20.50578548  -1.39047885  -1.36716933  -1.3569459   -1.35001193
  -1.34629675  -1.3290046   -1.32320559  -1.30742485  -1.30666499
  -1.30105195  -1.28600294  -0.77918042  -0.75021157  -0.738712
  -0.73494306  -0.72414703  -0.7191244   -0.7147813   -0.69827779
  -0.69612079  -0.67742064  -0.6681958   -0.63224491  -0.62707785
  -0.62530164  -0.59030958  -0.57976136  -0.56262829  -0.55344083
  -0.53758017  -0.53055849  -0.52339744  -0.51992759  -0.51189603
  -0.50592733  -0.49856498  -0.49160609  -0.48926009  -0.47503468
  -0.47048836  -0.46053777  -0.46015031  -0.44583869  -0.44108144
   0.19912414   0.25278708   0.25892675   0.26977115   0.29085484
   0.30159993   0.31803656   0.33045886   0.33631852   0.35120176
   0.36583068   0.38319109   0.38851656   0.39996619   0.41638587
   0.42060864   0.43245574   0.43514625   0.44950303   0.45199434
   0.5058922    0.53317046   0.9397537    0.96950155   0.99362067
   0.99967836   1.01710158   1.02985307   1.05068473   1.05707585
   1.06454946   1.06737073   1.0740595    1.08440696   1.10551442
   1.11731568   1.12475571   1.13713906   1.13809449   1.14567512
   1.15679289   1.16417693   1.16880057   1.17885747   1.18253761
   1.19342306   1.20366138   1.23083292   1.24117962   1.24671429
   1.26446732   1.27428643   1.29831267   1.31571708   1.32425454
   1.34379436   1.34537295   1.35276354   1.37754526   1.38250741
   1.38519471   1.40590662   1.41447545   1.41889608   1.43968221
   1.46090599   1.46684671   1.47575594   1.48779415   1.5000627
   1.51908999   1.53763663   1.53865253   1.55447208   1.56961388
   1.597779     1.60427938   1.61571827   1.63501888   1.66785089
   1.67238283   1.68945586   1.72377494   1.76775874   1.78990879
   1.82805243   1.91845609   1.95286055   2.00183044   2.00528972
   2.01368743   2.02470931   2.03311904   2.03496085   2.04023301
   2.04198524   2.05296077   2.06379035   2.07024323   2.07709744
   2.0806894    2.08871789   2.09531503   2.09902674   2.1076549
   2.11788945   2.12193111   2.13887871   2.15035878   2.15347577
   2.16822535   2.17189208   2.17713493   2.18635496   2.20425331
   2.20999797   2.21882768   2.22387786   2.32215442   2.48051288
   2.5583955    2.63483631   2.64224177   2.65914762   2.68752411
   2.69608218   2.70099325   2.74327452   2.75588485   2.78913066
   2.8174451    2.86652516   2.94248512   2.95918953   2.98104116
   2.9966907    3.00768976   3.03203069   3.04763825   3.05553839
   3.0860072    3.09702906   3.11596388   4.1079712    4.14734545
   4.1907231    4.19571137   4.22079385   4.23462615   4.25453739
   4.25915956   4.30060116   4.50739837   4.60363095]
E1 = -2993.801003799951  E_coul = 1236.8655656026735
cycle= 5 E= -836.185129704939  delta_E= -8.32e-05  |g|= 0.00433  |ddm|= 0.0223
    CPU time for cycle= 5      2.05 sec, wall time      0.26 sec
diis-norm(errvec)=0.00790415
diis-c [-4.45241522e-05  1.34155633e-03  5.45353604e-04 -3.53967354e-02
  2.51769539e-02  1.00833287e+00]
  HOMO = -0.440714472451671  LUMO = 0.1991342144753
  mo_energy =
[-20.57855003 -20.57209245 -20.57014028 -20.55311657 -20.54961876
 -20.53436129 -20.52460011 -20.52387276 -20.52142509 -20.51513683
 -20.50335863  -1.3905198   -1.36695586  -1.35677583  -1.35002651
  -1.34644543  -1.32867111  -1.32356085  -1.30772808  -1.30671434
  -1.30090786  -1.28537172  -0.77915784  -0.750001    -0.73842113
  -0.73498183  -0.72403457  -0.71889814  -0.71482006  -0.69825584
  -0.69604293  -0.67723773  -0.66787564  -0.63209357  -0.62709114
  -0.62534076  -0.59017432  -0.58001795  -0.56276342  -0.55331717
  -0.53768161  -0.53082737  -0.52327173  -0.51984252  -0.51220994
  -0.50568261  -0.49860887  -0.49163959  -0.48948017  -0.47510734
  -0.47071308  -0.46085346  -0.46022467  -0.4461681   -0.44071447
   0.19913421   0.25277829   0.25896019   0.26976072   0.29087187
   0.30167913   0.31799514   0.33036341   0.33623884   0.35119906
   0.36583462   0.38324341   0.38847355   0.40015827   0.4164385
   0.42063443   0.43258877   0.43536446   0.44955578   0.45196151
   0.50591674   0.53319076   0.93976332   0.96936475   0.99363217
   0.99980712   1.01710765   1.02981099   1.0507503    1.05712231
   1.06476035   1.06742018   1.07403211   1.08440234   1.1054442
   1.11738576   1.12460922   1.1371728    1.13809569   1.14563131
   1.15690556   1.16408894   1.16879153   1.17867495   1.18263124
   1.19350659   1.20359129   1.23083522   1.24126851   1.24679255
   1.26444033   1.27426182   1.29831088   1.31577555   1.32426844
   1.34380111   1.34548487   1.35272008   1.37760901   1.38239734
   1.38531851   1.40589247   1.41454139   1.41901643   1.43976885
   1.46094026   1.46695239   1.47571433   1.48795059   1.50006556
   1.51904114   1.53773766   1.53868074   1.55443652   1.56949223
   1.5977782    1.60426292   1.61571944   1.63492179   1.66785655
   1.67225877   1.68955442   1.72377971   1.76766147   1.78985157
   1.82810695   1.91834939   1.95269576   2.00174733   2.0055961
   2.01364922   2.02497836   2.03303806   2.03497562   2.04037079
   2.04204474   2.05292899   2.06372216   2.0702063    2.0769993
   2.08072487   2.08877987   2.09560496   2.09906519   2.10779695
   2.11810503   2.1220082    2.13879048   2.15032437   2.15342232
   2.16816838   2.17201672   2.17703876   2.18639732   2.20427477
   2.21012252   2.21881238   2.22388243   2.32183575   2.4803679
   2.5582434    2.63502135   2.64222987   2.65919618   2.68754364
   2.6961508    2.70081418   2.74341658   2.75593534   2.78899896
   2.81749193   2.8664496    2.94291229   2.95904843   2.98098744
   2.99658479   3.00801334   3.0321346    3.04776545   3.05549528
   3.08576139   3.09688825   3.11598316   4.10843875   4.14804937
   4.19071776   4.19559935   4.22087636   4.23448104   4.25451631
   4.25906567   4.30043874   4.50705673   4.60336794]
E1 = -2993.795142187284  E_coul = 1236.8596970541398
cycle= 6 E= -836.185136640806  delta_E= -6.94e-06  |g|= 0.00184  |ddm|= 0.0065
    CPU time for cycle= 6      2.10 sec, wall time      0.26 sec
diis-norm(errvec)=0.00332883
diis-c [-2.93933009e-06  8.75748459e-04  3.16921647e-03  4.93142549e-04
 -1.37312777e-01  2.17242005e-01  9.15532665e-01]
  HOMO = -0.4409863917335  LUMO = 0.199173983521129
  mo_energy =
[-20.57801113 -20.57168239 -20.57068357 -20.55263037 -20.54990784
 -20.53330895 -20.52422894 -20.52345283 -20.52134547 -20.51520961
 -20.50413775  -1.39039245  -1.36693942  -1.35673114  -1.34993188
  -1.34631948  -1.32869173  -1.32338559  -1.30756719  -1.30666586
  -1.300927    -1.2855891   -0.77898623  -0.74990479  -0.7383758
  -0.73485989  -0.72397963  -0.7188221   -0.71467534  -0.69814535
  -0.6959434   -0.67720973  -0.66790193  -0.63211555  -0.62704205
  -0.62524349  -0.59021887  -0.57990825  -0.56268013  -0.55336469
  -0.53763681  -0.53076067  -0.52329268  -0.51989403  -0.51213422
  -0.50579247  -0.49862921  -0.49166519  -0.48945319  -0.47510919
  -0.47071087  -0.46080151  -0.46028263  -0.44616608  -0.44098639
   0.19917398   0.25277765   0.25898625   0.26977381   0.29090234
   0.30169424   0.31799888   0.33037766   0.33624659   0.35117782
   0.36589881   0.38330288   0.38850949   0.40018184   0.41646534
   0.42068613   0.43257644   0.43536944   0.44959929   0.4520263
   0.50597693   0.53325395   0.93979743   0.96942295   0.99359843
   0.99977562   1.01710914   1.02983044   1.05075151   1.05711263
   1.06469696   1.06742269   1.0740406    1.08441163   1.10548985
   1.11738712   1.12463167   1.13717942   1.13812965   1.14564895
   1.15688339   1.16411841   1.16881426   1.1787351    1.18260344
   1.19351272   1.20362252   1.23083329   1.24125538   1.24676954
   1.26447233   1.27429461   1.29832326   1.31580029   1.3242923
   1.343835     1.34545763   1.35274949   1.37763222   1.382501
   1.38532133   1.4059494    1.41459227   1.41904939   1.43979768
   1.46094421   1.46697212   1.47578853   1.48791866   1.50011862
   1.51912269   1.53771774   1.53871877   1.55447982   1.56959494
   1.59784083   1.6042974    1.61576128   1.63497616   1.66789585
   1.67233914   1.68952475   1.72382957   1.76771657   1.78990475
   1.82815602   1.91844716   1.95277566   2.0018292    2.00554094
   2.01373333   2.02493052   2.03308215   2.03501248   2.0403661
   2.04202605   2.05298063   2.06377428   2.07025624   2.07706994
   2.08076735   2.08876994   2.09548227   2.0990417    2.10777906
   2.11806716   2.12198709   2.13885386   2.1503652    2.15345284
   2.16821392   2.17196495   2.17708555   2.18642613   2.20430794
   2.21007789   2.21884223   2.22390505   2.32197909   2.48042681
   2.55832055   2.63500786   2.64234566   2.65917236   2.68756412
   2.69612748   2.70089431   2.74340861   2.75596401   2.78908317
   2.8174647    2.86647381   2.94282346   2.95914387   2.98108279
   2.99662347   3.00796808   3.03210346   3.04771655   3.05555525
   3.08586437   3.09697899   3.11598944   4.10833574   4.14777571
   4.19083295   4.19568263   4.2208995    4.23457969   4.25457551
   4.25911772   4.30052758   4.50719716   4.603483  ]
E1 = -2993.7891992043433  E_coul = 1236.853752911388
cycle= 7 E= -836.185137800617  delta_E= -1.16e-06  |g|= 0.000348  |ddm|= 0.00261
    CPU time for cycle= 7      2.06 sec, wall time      0.26 sec
diis-norm(errvec)=0.000615286
diis-c [-1.79968071e-07 -1.35882529e-04 -1.22719668e-04  1.49340083e-03
  6.70183202e-03 -7.63851232e-02 -4.67625461e-02  1.11521104e+00]
  HOMO = -0.440999586665519  LUMO = 0.199164260108942
  mo_energy =
[-20.57806684 -20.57167797 -20.57063191 -20.5526573  -20.54986352
 -20.53343676 -20.52426189 -20.52346513 -20.52131998 -20.51519922
 -20.5040457   -1.39041291  -1.36695094  -1.35674942  -1.34994356
  -1.34634843  -1.32869142  -1.32341961  -1.30759468  -1.30668466
  -1.30094492  -1.28558114  -0.77899249  -0.74990232  -0.73837722
  -0.73487737  -0.72398569  -0.71881812  -0.71468284  -0.69815105
  -0.69594809  -0.67721201  -0.66790103  -0.63212889  -0.62705489
  -0.6252587   -0.59023241  -0.57993894  -0.56270178  -0.55337719
  -0.53765705  -0.53079519  -0.52331701  -0.51991598  -0.51216478
  -0.50580485  -0.49865414  -0.49169593  -0.48948843  -0.47513382
  -0.47074715  -0.46083471  -0.4603083   -0.44621389  -0.44099959
   0.19916426   0.25276681   0.25898967   0.26977251   0.29089733
   0.30169409   0.31799153   0.33036858   0.33624177   0.35116843
   0.36589058   0.38329159   0.38849722   0.40016532   0.41645222
   0.42066981   0.4325703    0.43536716   0.44958863   0.45200895
   0.50594459   0.53322463   0.93978049   0.96940125   0.99357871
   0.99976902   1.01709712   1.02981537   1.05074139   1.05709574
   1.06468893   1.06741229   1.07402428   1.08439551   1.10547907
   1.11737822   1.12461171   1.13716398   1.13812017   1.14563545
   1.15687746   1.16410251   1.16880441   1.17871534   1.18259382
   1.19350046   1.20361059   1.23081989   1.24124528   1.24676063
   1.2644596    1.27428583   1.29830673   1.31578967   1.32428355
   1.34382717   1.34545224   1.35273189   1.37762825   1.38248551
   1.3853063    1.40594068   1.4145883    1.41903904   1.43978725
   1.46093685   1.46696866   1.47578034   1.48791641   1.50010956
   1.51911294   1.5377109    1.53870538   1.55446112   1.56957848
   1.59782504   1.60427871   1.61575058   1.63496574   1.66788105
   1.67232103   1.68951099   1.72381269   1.76769682   1.78988173
   1.82813993   1.91842793   1.95274642   2.00181288   2.0055328
   2.01371366   2.02492371   2.03306022   2.03499707   2.04035523
   2.04200976   2.05296288   2.0637559    2.07023856   2.07704726
   2.08075181   2.08875525   2.09547829   2.0990233    2.10777007
   2.11806083   2.1219734    2.13883395   2.15034659   2.15343137
   2.16819493   2.17195201   2.17706223   2.18641305   2.20429504
   2.2100633    2.21882099   2.22388486   2.32194442   2.48039989
   2.55829465   2.63500062   2.64232618   2.65915573   2.68755243
   2.69611317   2.70086809   2.74339706   2.75595477   2.789061
   2.81744625   2.86645135   2.94281946   2.95913136   2.9810636
   2.99660003   3.00796858   3.03208739   3.04770439   3.05553949
   3.08583656   3.09695954   3.11596923   4.10833607   4.14779174
   4.19081225   4.19566629   4.22088968   4.23455894   4.25456501
   4.25910319   4.3005076    4.50716707   4.60346545]
E1 = -2993.789141316011  E_coul = 1236.8536949623615
cycle= 8 E= -836.185137861311  delta_E= -6.07e-08  |g|= 7.36e-05  |ddm|= 0.000658
    CPU time for cycle= 8      2.08 sec, wall time      0.26 sec
diis-norm(errvec)=0.0001353
diis-c [-6.66719643e-09 -6.37516806e-05 -2.12667310e-04 -9.00075843e-06
  9.41869514e-03 -1.77169710e-02 -6.02514512e-02  2.56929166e-02
  1.04314223e+00]
  HOMO = -0.441000942603264  LUMO = 0.199167010742739
  mo_energy =
[-20.57804282 -20.57169077 -20.57061334 -20.55264888 -20.54985423
 -20.53340596 -20.52425388 -20.52346765 -20.5213307  -20.51519314
 -20.50404729  -1.39040635  -1.36694596  -1.35674108  -1.34993883
  -1.34634256  -1.32868664  -1.32341416  -1.30759076  -1.3066836
  -1.30094156  -1.28558013  -0.77898405  -0.74989531  -0.73836913
  -0.73486837  -0.72398133  -0.71881077  -0.71467502  -0.69814389
  -0.69594112  -0.67720633  -0.66789566  -0.63212298  -0.6270488
  -0.62525046  -0.5902282   -0.57993012  -0.56269568  -0.55337262
  -0.53765292  -0.5307921   -0.52331057  -0.51991202  -0.51216259
  -0.50580145  -0.49865299  -0.49169283  -0.48948512  -0.4751296
  -0.47074549  -0.46083424  -0.46030993  -0.44621248  -0.44100094
   0.19916701   0.25276814   0.25899108   0.2697738    0.29089909
   0.30169524   0.31799258   0.3303696    0.33624113   0.35116997
   0.36589549   0.38329747   0.38850127   0.40017221   0.41645668
   0.42067572   0.43257442   0.43537308   0.44959402   0.45201551
   0.50595319   0.53323323   0.93978626   0.9694068    0.99358205
   0.99977284   1.01710023   1.02981846   1.05074592   1.05710018
   1.06469315   1.0674165    1.07402721   1.08439925   1.10548296
   1.1173806    1.12461348   1.13716804   1.13812375   1.14563795
   1.15687997   1.16410444   1.16880689   1.1787178    1.18259624
   1.19350482   1.20361322   1.23082219   1.24124898   1.24676318
   1.2644628    1.27428883   1.2983111    1.3157939    1.32428692
   1.34383011   1.3454549    1.35273622   1.37763184   1.3824905
   1.38531134   1.40594533   1.41459363   1.41904592   1.43979278
   1.46093912   1.46697244   1.47578413   1.48791926   1.50011485
   1.51911837   1.53771413   1.53871079   1.55446621   1.56958507
   1.59783081   1.60428359   1.61575516   1.63496886   1.6678859
   1.67232603   1.68951555   1.7238188    1.76770141   1.78988708
   1.82814659   1.91843345   1.95275263   2.00181851   2.00553952
   2.01372093   2.0249292    2.0330647    2.03500221   2.04036017
   2.04201384   2.05296826   2.06376002   2.07024364   2.07705262
   2.0807575    2.08875917   2.09548012   2.09902669   2.1077743
   2.11806534   2.12197717   2.13883884   2.15035094   2.15343531
   2.16819859   2.17195402   2.17706695   2.1864181    2.2043001
   2.21006633   2.21882548   2.22388904   2.32195149   2.48040442
   2.55830016   2.63500645   2.64233539   2.6591591    2.68755591
   2.69611766   2.70087366   2.74340257   2.75595997   2.78906638
   2.81744988   2.86645393   2.94282628   2.95913518   2.981071
   2.99660605   3.00797419   3.03209078   3.04770805   3.05554527
   3.08584253   3.09696493   3.11597216   4.10834282   4.14779253
   4.19082239   4.19566928   4.22089434   4.23456482   4.25456762
   4.25910374   4.30051187   4.50717255   4.6034664 ]
E1 = -2993.7889562550135  E_coul = 1236.8535098987584
cycle= 9 E= -836.185137863917  delta_E= -2.61e-09  |g|= 1.97e-05  |ddm|= 0.00014
    CPU time for cycle= 9      2.06 sec, wall time      0.26 sec
diis-norm(errvec)=3.49107e-05
diis-c [-9.66396246e-10  9.49338133e-01 -1.62762993e-05 -4.53676558e-05
  5.28460357e-04  1.00145052e-03 -2.50096190e-03 -3.41225649e-02
  8.58171272e-02]
  HOMO = -0.441000319376361  LUMO = 0.199166690059936
  mo_energy =
[-20.57805074 -20.57167971 -20.57062157 -20.55264994 -20.54985746
 -20.53341483 -20.52425404 -20.52346279 -20.52132348 -20.51519377
 -20.5040461   -1.39040677  -1.36694596  -1.35674296  -1.34993946
  -1.34634257  -1.32868752  -1.32341448  -1.30759054  -1.30668225
  -1.30094126  -1.28557931  -0.77898503  -0.74989514  -0.73836973
  -0.73486875  -0.7239808   -0.71881093  -0.71467522  -0.69814392
  -0.69594105  -0.67720606  -0.66789501  -0.63212337  -0.62704885
  -0.62525051  -0.59022777  -0.5799309   -0.56269484  -0.55337284
  -0.53765154  -0.53079178  -0.52331216  -0.51991268  -0.5121621
  -0.50580163  -0.49865269  -0.4916943   -0.48948579  -0.47512876
  -0.47074516  -0.46083349  -0.46030806  -0.44621274  -0.44100032
   0.19916669   0.25276825   0.25899073   0.26977344   0.29089906
   0.30169501   0.31799267   0.33036979   0.33624111   0.35117042
   0.36589527   0.38329679   0.38850133   0.40017187   0.4164568
   0.42067575   0.43257458   0.43537288   0.44959404   0.4520155
   0.50595329   0.53323351   0.93978573   0.96940669   0.99358255
   0.99977245   1.01710019   1.02981864   1.05074549   1.05710014
   1.06469261   1.06741643   1.07402728   1.08439925   1.10548262
   1.11738008   1.12461366   1.1371675    1.13812366   1.14563774
   1.15687954   1.16410487   1.16880698   1.17871784   1.18259639
   1.19350456   1.20361339   1.23082205   1.24124873   1.2467627
   1.26446256   1.27428876   1.29831092   1.31579339   1.32428696
   1.34382996   1.34545517   1.35273603   1.37763142   1.38249097
   1.38531106   1.40594509   1.41459328   1.4190451    1.43979246
   1.46093958   1.46697258   1.47578495   1.48791963   1.50011448
   1.5191182    1.53771457   1.53871048   1.55446648   1.5695847
   1.59783059   1.60428374   1.61575476   1.63496884   1.66788635
   1.67232617   1.6895156    1.72381885   1.76770129   1.78988752
   1.82814576   1.9184338    1.9527521    2.00181819   2.00553818
   2.01372007   2.02492821   2.03306488   2.03500193   2.04035983
   2.04201388   2.05296811   2.06376044   2.07024324   2.07705259
   2.08075698   2.0887593    2.09548093   2.09902697   2.10777421
   2.11806493   2.12197727   2.13883901   2.15035121   2.15343596
   2.16819919   2.17195505   2.17706733   2.18641765   2.20429956
   2.21006696   2.21882587   2.22388954   2.32195111   2.48040469
   2.55830025   2.63500558   2.64233369   2.65915963   2.68755691
   2.69611782   2.70087364   2.74340218   2.75595944   2.7890666
   2.81745038   2.86645484   2.9428249    2.95913604   2.98107009
   2.9966058    3.00797345   3.03209145   3.04770841   3.05554487
   3.08584249   3.09696519   3.1159732    4.10834084   4.1477931
   4.19081976   4.19567023   4.22089377   4.23456394   4.25456863
   4.25910526   4.30051167   4.50717174   4.60346777]
E1 = -2993.7889837128937  E_coul = 1236.8535373564962
cycle= 10 E= -836.185137864059  delta_E= -1.42e-10  |g|= 8.16e-06  |ddm|= 2.83e-05
    CPU time for cycle= 10      2.03 sec, wall time      0.26 sec
  HOMO = -0.441000375173333  LUMO = 0.199166576064607
  mo_energy =
[-20.57804777 -20.57168614 -20.57061808 -20.55265057 -20.54985637
 -20.53341153 -20.5242546  -20.52346638 -20.52132778 -20.51519403
 -20.50404655  -1.39040703  -1.36694623  -1.35674232  -1.34993968
  -1.34634283  -1.32868741  -1.32341465  -1.30759105  -1.30668309
  -1.30094146  -1.2855795   -0.77898521  -0.74989564  -0.73836969
  -0.7348687   -0.7239813   -0.71881114  -0.71467549  -0.69814419
  -0.6959414   -0.67720627  -0.66789529  -0.63212315  -0.62704891
  -0.62525065  -0.59022784  -0.57993031  -0.56269525  -0.55337265
  -0.53765216  -0.53079218  -0.52331165  -0.51991252  -0.5121627
  -0.5058015   -0.49865324  -0.49169401  -0.48948585  -0.47512887
  -0.47074543  -0.4608342   -0.46030889  -0.4462128   -0.44100038
   0.19916658   0.25276819   0.25899072   0.26977345   0.29089893
   0.30169494   0.31799263   0.33036972   0.33624097   0.35117035
   0.36589503   0.38329686   0.38850132   0.40017185   0.41645668
   0.42067556   0.43257454   0.43537296   0.44959386   0.45201541
   0.50595298   0.53323302   0.93978562   0.96940655   0.99358234
   0.99977256   1.01710003   1.02981836   1.05074545   1.05710007
   1.06469285   1.06741631   1.07402715   1.08439918   1.10548252
   1.11738011   1.12461354   1.13716757   1.1381235    1.14563773
   1.15687954   1.16410456   1.16880675   1.17871767   1.18259626
   1.19350453   1.20361319   1.23082188   1.24124875   1.2467628
   1.26446247   1.27428859   1.29831096   1.31579344   1.32428676
   1.34382975   1.34545504   1.35273602   1.37763147   1.38249054
   1.38531104   1.40594499   1.41459318   1.4190452    1.43979233
   1.46093923   1.46697232   1.47578427   1.48791943   1.50011442
   1.51911797   1.5377143    1.53871041   1.55446621   1.56958466
   1.59783048   1.60428348   1.6157547    1.63496878   1.66788596
   1.67232584   1.68951559   1.72381858   1.76770128   1.78988719
   1.8281459    1.91843321   1.95275215   2.00181799   2.00553872
   2.01372016   2.02492853   2.03306471   2.03500182   2.04035982
   2.04201386   2.05296795   2.06376001   2.0702432    2.07705243
   2.08075695   2.08875919   2.09548067   2.09902687   2.10777407
   2.11806499   2.1219772    2.13883864   2.15035089   2.15343557
   2.16819871   2.1719546    2.17706707   2.18641762   2.20429947
   2.21006668   2.21882556   2.22388918   2.32195095   2.48040444
   2.55830001   2.63500583   2.64233406   2.65915941   2.68755622
   2.69611778   2.70087353   2.74340223   2.75595935   2.78906613
   2.81745024   2.86645426   2.9428255    2.95913516   2.98107015
   2.99660599   3.00797366   3.03209114   3.04770835   3.05554479
   3.08584239   3.09696471   3.11597259   4.10834156   4.14779305
   4.19082057   4.19566947   4.22089377   4.23456402   4.25456779
   4.25910427   4.30051146   4.50717188   4.60346676]
E1 = -2993.788998965922  E_coul = 1236.8535526095027
Extra cycle  E= -836.185137864081  delta_E= -2.18e-11  |g|= 4.37e-06  |ddm|= 1.07e-05
    CPU time for scf_cycle     41.25 sec, wall time      5.29 sec
    CPU time for SCF     41.26 sec, wall time      5.29 sec
converged SCF energy = -836.185137864081
