#INFO: **** input file is /home/liwei01/wsr/dftpart/test_2body/w19/gfea_c8.py ****
from dftpart import gfea3
from pyscf import lib

par = 8
with lib.with_omp_threads(par):
    fr0 = gfea3.GFEA()
    fr0.inputstyle = 'frg'
    fr0.method = ['hf', '6-31gs','cart','charge']
    fr0.gjfname = 'w19'
    fr0.output = 'w19'
    fr0.verbose = 9
    fr0.showinter = True
    #fr0.do_deriv = True
    fr0.kernel()

#INFO: ******************** input file end ********************


System: uname_result(system='Linux', node='master', release='3.10.0-693.el7.x86_64', version='#1 SMP Tue Aug 22 21:09:27 UTC 2017', machine='x86_64', processor='x86_64')  Threads 8
Python 3.7.6 (default, Jan  8 2020, 19:59:22) 
[GCC 7.3.0]
numpy 1.18.1  scipy 1.4.1
Date: Tue Jun 16 22:12:43 2020
PySCF version 1.6.1
PySCF path  /home/liwei01/zcheng/pyscf/pyscf
GIT HEAD      ref: refs/heads/master
GIT master branch  3adc7fd25839fe674469a52b764c3661e32d7318

[CONFIG] DEBUG = False
[CONFIG] MAX_MEMORY = 4000
[CONFIG] TMPDIR = .
[CONFIG] UNIT = angstrom
[CONFIG] VERBOSE = 3
[CONFIG] conf_file = None
[INPUT] verbose = 9
[INPUT] max_memory = 4000 
[INPUT] num. atoms = 30
[INPUT] num. electrons = 100
[INPUT] charge = 0
[INPUT] spin (= nelec alpha-beta = 2S) = 0
[INPUT] symmetry False subgroup None
[INPUT] Mole.unit = angstrom
[INPUT] Cartesian GTO integrals (6d 10f)
[INPUT]  1 O     -2.755374220000   0.860532160000  -1.837117620000 AA   -5.206902646487   1.626170103780  -3.471649160413 Bohr
[INPUT]  2 O     -3.654142210000  -1.401376880000  -0.728500910000 AA   -6.905327997113  -2.648218500497  -1.376667201396 Bohr
[INPUT]  3 O     -2.326485090000   0.487626380000   0.772991130000 AA   -4.396419652984   0.921480309313   1.460741532418 Bohr
[INPUT]  4 O     -5.245926730000   0.611377380000  -1.497031820000 AA   -9.913364789235   1.155335806954  -2.828980139559 Bohr
[INPUT]  5 O     -1.180829120000  -1.233654860000  -1.133670280000 AA   -2.231443636711  -2.331269817639  -2.142326344759 Bohr
[INPUT]  6 O      0.031003940000  -0.096851640000   1.140068090000 AA    0.058588955382  -0.183023074315   2.154416453456 Bohr
[INPUT]  7 O     -0.460734520000   1.401579200000  -1.137331740000 AA   -0.870662058933   2.648600829887  -2.149245501375 Bohr
[INPUT]  8 O      2.046217810000   1.213047810000  -0.274797070000 AA    3.866791252107   2.292328136903  -0.519291202133 Bohr
[INPUT]  9 O      1.230535210000  -1.305251450000  -0.790270110000 AA    2.325374533534  -2.466567764191  -1.493394072330 Bohr
[INPUT] 10 O      2.625694350000   0.098783180000   1.882723090000 AA    4.961843208318   0.186673155914   3.557831008495 Bohr
[INPUT] 11 H     -2.422221170000   1.746707660000  -1.678051510000 AA   -4.577334624424   3.300799097080  -3.171057776813 Bohr
[INPUT] 12 H     -2.018427500000   0.249139330000  -1.905734950000 AA   -3.814275177291   0.470805100558  -3.601317121512 Bohr
[INPUT] 13 H     -0.587528670000  -0.503572960000  -1.324916180000 AA   -1.110268276630  -0.951614978137  -2.503728718205 Bohr
[INPUT] 14 H     -0.675028890000  -2.046318510000  -1.060568190000 AA   -1.275619728269  -3.866981547528  -2.004183415526 Bohr
[INPUT] 15 H     -3.301917390000  -0.916397140000  -1.478389130000 AA   -6.239719553039  -1.731739615935  -2.793750561234 Bohr
[INPUT] 16 H     -2.939854750000  -1.859571390000  -0.279667720000 AA   -5.555520323502  -3.514080636177  -0.528495396682 Bohr
[INPUT] 17 H     -2.703239510000   0.083236220000  -0.011944990000 AA   -5.108382323003   0.157293659444  -0.022572759661 Bohr
[INPUT] 18 H     -3.024610520000   0.899886500000   1.287055790000 AA   -5.715685516278   1.700539028193   2.432182950136 Bohr
[INPUT] 19 H     -0.461617790000  -0.672070220000   0.550112630000 AA   -0.872331197327  -1.270028652276   1.039562208364 Bohr
[INPUT] 20 H     -0.581631320000   0.417540470000   1.670802290000 AA   -1.099123900269   0.789037134222   3.157358736396 Bohr
[INPUT] 21 H     -0.517622380000   1.140888870000  -0.215158030000 AA   -0.978164534146   2.155967502865  -0.406589750201 Bohr
[INPUT] 22 H      0.439372050000   1.666823220000  -1.339949020000 AA    0.830292841289   3.149839383866  -2.532136668679 Bohr
[INPUT] 23 H     -4.675073270000   0.349603730000  -0.770945800000 AA   -8.834608092575   0.660655301826  -1.456876418884 Bohr
[INPUT] 24 H     -4.709228810000   0.843422370000  -2.258419020000 AA   -8.899152708811   1.593837286632  -4.267793422309 Bohr
[INPUT] 25 H      2.833592860000   0.665592930000  -0.318770780000 AA    5.354714453923   1.257788348147  -0.602389470714 Bohr
[INPUT] 26 H      1.629741150000   1.106248960000   0.583539230000 AA    3.079764427434   2.090507559985   1.102729327640 Bohr
[INPUT] 27 H      1.435705950000  -0.595623610000  -0.177136110000 AA    2.713091040909  -1.125565496225  -0.334738734671 Bohr
[INPUT] 28 H      2.045481130000  -1.713937800000  -1.091000210000 AA    3.865399128666  -3.238873036540  -2.061691598743 Bohr
[INPUT] 29 H      3.312860270000  -0.385621340000   2.346140040000 AA    6.260398599253  -0.728718720388   4.433562125476 Bohr
[INPUT] 30 H      1.766440120000  -0.254195690000   2.124979320000 AA    3.338088042244  -0.480360236145   4.015628935165 Bohr
[INPUT] ---------------- BASIS SET ---------------- 
[INPUT] l, kappa, [nprim/nctr], expnt,             c_1 c_2 ...
[INPUT] H
[INPUT] 0    0    [3    /1   ]  18.731137         0.0334946
                                2.8253937         0.23472695
                                0.6401217         0.81375733
[INPUT] 0    0    [1    /1   ]  0.1612778            1
[INPUT] O
[INPUT] 0    0    [6    /1   ]  5484.6717         0.0018311
                                825.23495         0.0139501
                                188.04696         0.0684451
                                52.9645           0.2327143
                                16.89757          0.470193
                                5.7996353         0.3585209
[INPUT] 0    0    [3    /1   ]  15.539616         -0.1107775
                                3.5999336         -0.1480263
                                1.0137618         1.130767
[INPUT] 0    0    [1    /1   ]  0.2700058            1
[INPUT] 1    0    [3    /1   ]  15.539616         0.0708743
                                3.5999336         0.3397528
                                1.0137618         0.7271586
[INPUT] 1    0    [1    /1   ]  0.2700058            1
[INPUT] 2    0    [1    /1   ]  0.8                  1

nuclear repulsion = 777.324250378894
number of shells = 100
number of NR pGTOs = 360
number of NR cGTOs = 190
basis = 6-31gs
ecp = {}
bas 0, expnt(s) = [5484.6717     825.23495    188.04696     52.9645      16.89757
    5.7996353]
bas 1, expnt(s) = [15.539616   3.5999336  1.0137618]
bas 2, expnt(s) = [0.2700058]
bas 3, expnt(s) = [15.539616   3.5999336  1.0137618]
bas 4, expnt(s) = [0.2700058]
bas 5, expnt(s) = [0.8]
bas 6, expnt(s) = [5484.6717     825.23495    188.04696     52.9645      16.89757
    5.7996353]
bas 7, expnt(s) = [15.539616   3.5999336  1.0137618]
bas 8, expnt(s) = [0.2700058]
bas 9, expnt(s) = [15.539616   3.5999336  1.0137618]
bas 10, expnt(s) = [0.2700058]
bas 11, expnt(s) = [0.8]
bas 12, expnt(s) = [5484.6717     825.23495    188.04696     52.9645      16.89757
    5.7996353]
bas 13, expnt(s) = [15.539616   3.5999336  1.0137618]
bas 14, expnt(s) = [0.2700058]
bas 15, expnt(s) = [15.539616   3.5999336  1.0137618]
bas 16, expnt(s) = [0.2700058]
bas 17, expnt(s) = [0.8]
bas 18, expnt(s) = [5484.6717     825.23495    188.04696     52.9645      16.89757
    5.7996353]
bas 19, expnt(s) = [15.539616   3.5999336  1.0137618]
bas 20, expnt(s) = [0.2700058]
bas 21, expnt(s) = [15.539616   3.5999336  1.0137618]
bas 22, expnt(s) = [0.2700058]
bas 23, expnt(s) = [0.8]
bas 24, expnt(s) = [5484.6717     825.23495    188.04696     52.9645      16.89757
    5.7996353]
bas 25, expnt(s) = [15.539616   3.5999336  1.0137618]
bas 26, expnt(s) = [0.2700058]
bas 27, expnt(s) = [15.539616   3.5999336  1.0137618]
bas 28, expnt(s) = [0.2700058]
bas 29, expnt(s) = [0.8]
bas 30, expnt(s) = [5484.6717     825.23495    188.04696     52.9645      16.89757
    5.7996353]
bas 31, expnt(s) = [15.539616   3.5999336  1.0137618]
bas 32, expnt(s) = [0.2700058]
bas 33, expnt(s) = [15.539616   3.5999336  1.0137618]
bas 34, expnt(s) = [0.2700058]
bas 35, expnt(s) = [0.8]
bas 36, expnt(s) = [5484.6717     825.23495    188.04696     52.9645      16.89757
    5.7996353]
bas 37, expnt(s) = [15.539616   3.5999336  1.0137618]
bas 38, expnt(s) = [0.2700058]
bas 39, expnt(s) = [15.539616   3.5999336  1.0137618]
bas 40, expnt(s) = [0.2700058]
bas 41, expnt(s) = [0.8]
bas 42, expnt(s) = [5484.6717     825.23495    188.04696     52.9645      16.89757
    5.7996353]
bas 43, expnt(s) = [15.539616   3.5999336  1.0137618]
bas 44, expnt(s) = [0.2700058]
bas 45, expnt(s) = [15.539616   3.5999336  1.0137618]
bas 46, expnt(s) = [0.2700058]
bas 47, expnt(s) = [0.8]
bas 48, expnt(s) = [5484.6717     825.23495    188.04696     52.9645      16.89757
    5.7996353]
bas 49, expnt(s) = [15.539616   3.5999336  1.0137618]
bas 50, expnt(s) = [0.2700058]
bas 51, expnt(s) = [15.539616   3.5999336  1.0137618]
bas 52, expnt(s) = [0.2700058]
bas 53, expnt(s) = [0.8]
bas 54, expnt(s) = [5484.6717     825.23495    188.04696     52.9645      16.89757
    5.7996353]
bas 55, expnt(s) = [15.539616   3.5999336  1.0137618]
bas 56, expnt(s) = [0.2700058]
bas 57, expnt(s) = [15.539616   3.5999336  1.0137618]
bas 58, expnt(s) = [0.2700058]
bas 59, expnt(s) = [0.8]
bas 60, expnt(s) = [18.731137   2.8253937  0.6401217]
bas 61, expnt(s) = [0.1612778]
bas 62, expnt(s) = [18.731137   2.8253937  0.6401217]
bas 63, expnt(s) = [0.1612778]
bas 64, expnt(s) = [18.731137   2.8253937  0.6401217]
bas 65, expnt(s) = [0.1612778]
bas 66, expnt(s) = [18.731137   2.8253937  0.6401217]
bas 67, expnt(s) = [0.1612778]
bas 68, expnt(s) = [18.731137   2.8253937  0.6401217]
bas 69, expnt(s) = [0.1612778]
bas 70, expnt(s) = [18.731137   2.8253937  0.6401217]
bas 71, expnt(s) = [0.1612778]
bas 72, expnt(s) = [18.731137   2.8253937  0.6401217]
bas 73, expnt(s) = [0.1612778]
bas 74, expnt(s) = [18.731137   2.8253937  0.6401217]
bas 75, expnt(s) = [0.1612778]
bas 76, expnt(s) = [18.731137   2.8253937  0.6401217]
bas 77, expnt(s) = [0.1612778]
bas 78, expnt(s) = [18.731137   2.8253937  0.6401217]
bas 79, expnt(s) = [0.1612778]
bas 80, expnt(s) = [18.731137   2.8253937  0.6401217]
bas 81, expnt(s) = [0.1612778]
bas 82, expnt(s) = [18.731137   2.8253937  0.6401217]
bas 83, expnt(s) = [0.1612778]
bas 84, expnt(s) = [18.731137   2.8253937  0.6401217]
bas 85, expnt(s) = [0.1612778]
bas 86, expnt(s) = [18.731137   2.8253937  0.6401217]
bas 87, expnt(s) = [0.1612778]
bas 88, expnt(s) = [18.731137   2.8253937  0.6401217]
bas 89, expnt(s) = [0.1612778]
bas 90, expnt(s) = [18.731137   2.8253937  0.6401217]
bas 91, expnt(s) = [0.1612778]
bas 92, expnt(s) = [18.731137   2.8253937  0.6401217]
bas 93, expnt(s) = [0.1612778]
bas 94, expnt(s) = [18.731137   2.8253937  0.6401217]
bas 95, expnt(s) = [0.1612778]
bas 96, expnt(s) = [18.731137   2.8253937  0.6401217]
bas 97, expnt(s) = [0.1612778]
bas 98, expnt(s) = [18.731137   2.8253937  0.6401217]
bas 99, expnt(s) = [0.1612778]
CPU time:       112.98
arg.atm = [[  8  20   1  23   0   0]
 [  8  24   1  27   0   0]
 [  8  28   1  31   0   0]
 [  8  32   1  35   0   0]
 [  8  36   1  39   0   0]
 [  8  40   1  43   0   0]
 [  8  44   1  47   0   0]
 [  8  48   1  51   0   0]
 [  8  52   1  55   0   0]
 [  8  56   1  59   0   0]
 [  1  60   1  63   0   0]
 [  1  64   1  67   0   0]
 [  1  68   1  71   0   0]
 [  1  72   1  75   0   0]
 [  1  76   1  79   0   0]
 [  1  80   1  83   0   0]
 [  1  84   1  87   0   0]
 [  1  88   1  91   0   0]
 [  1  92   1  95   0   0]
 [  1  96   1  99   0   0]
 [  1 100   1 103   0   0]
 [  1 104   1 107   0   0]
 [  1 108   1 111   0   0]
 [  1 112   1 115   0   0]
 [  1 116   1 119   0   0]
 [  1 120   1 123   0   0]
 [  1 124   1 127   0   0]
 [  1 128   1 131   0   0]
 [  1 132   1 135   0   0]
 [  1 136   1 139   0   0]]
arg.bas = [[  0   0   6   1   0 148 154   0]
 [  0   0   3   1   0 160 163   0]
 [  0   0   1   1   0 166 167   0]
 [  0   1   3   1   0 168 171   0]
 [  0   1   1   1   0 174 175   0]
 [  0   2   1   1   0 176 177   0]
 [  1   0   6   1   0 148 154   0]
 [  1   0   3   1   0 160 163   0]
 [  1   0   1   1   0 166 167   0]
 [  1   1   3   1   0 168 171   0]
 [  1   1   1   1   0 174 175   0]
 [  1   2   1   1   0 176 177   0]
 [  2   0   6   1   0 148 154   0]
 [  2   0   3   1   0 160 163   0]
 [  2   0   1   1   0 166 167   0]
 [  2   1   3   1   0 168 171   0]
 [  2   1   1   1   0 174 175   0]
 [  2   2   1   1   0 176 177   0]
 [  3   0   6   1   0 148 154   0]
 [  3   0   3   1   0 160 163   0]
 [  3   0   1   1   0 166 167   0]
 [  3   1   3   1   0 168 171   0]
 [  3   1   1   1   0 174 175   0]
 [  3   2   1   1   0 176 177   0]
 [  4   0   6   1   0 148 154   0]
 [  4   0   3   1   0 160 163   0]
 [  4   0   1   1   0 166 167   0]
 [  4   1   3   1   0 168 171   0]
 [  4   1   1   1   0 174 175   0]
 [  4   2   1   1   0 176 177   0]
 [  5   0   6   1   0 148 154   0]
 [  5   0   3   1   0 160 163   0]
 [  5   0   1   1   0 166 167   0]
 [  5   1   3   1   0 168 171   0]
 [  5   1   1   1   0 174 175   0]
 [  5   2   1   1   0 176 177   0]
 [  6   0   6   1   0 148 154   0]
 [  6   0   3   1   0 160 163   0]
 [  6   0   1   1   0 166 167   0]
 [  6   1   3   1   0 168 171   0]
 [  6   1   1   1   0 174 175   0]
 [  6   2   1   1   0 176 177   0]
 [  7   0   6   1   0 148 154   0]
 [  7   0   3   1   0 160 163   0]
 [  7   0   1   1   0 166 167   0]
 [  7   1   3   1   0 168 171   0]
 [  7   1   1   1   0 174 175   0]
 [  7   2   1   1   0 176 177   0]
 [  8   0   6   1   0 148 154   0]
 [  8   0   3   1   0 160 163   0]
 [  8   0   1   1   0 166 167   0]
 [  8   1   3   1   0 168 171   0]
 [  8   1   1   1   0 174 175   0]
 [  8   2   1   1   0 176 177   0]
 [  9   0   6   1   0 148 154   0]
 [  9   0   3   1   0 160 163   0]
 [  9   0   1   1   0 166 167   0]
 [  9   1   3   1   0 168 171   0]
 [  9   1   1   1   0 174 175   0]
 [  9   2   1   1   0 176 177   0]
 [ 10   0   3   1   0 140 143   0]
 [ 10   0   1   1   0 146 147   0]
 [ 11   0   3   1   0 140 143   0]
 [ 11   0   1   1   0 146 147   0]
 [ 12   0   3   1   0 140 143   0]
 [ 12   0   1   1   0 146 147   0]
 [ 13   0   3   1   0 140 143   0]
 [ 13   0   1   1   0 146 147   0]
 [ 14   0   3   1   0 140 143   0]
 [ 14   0   1   1   0 146 147   0]
 [ 15   0   3   1   0 140 143   0]
 [ 15   0   1   1   0 146 147   0]
 [ 16   0   3   1   0 140 143   0]
 [ 16   0   1   1   0 146 147   0]
 [ 17   0   3   1   0 140 143   0]
 [ 17   0   1   1   0 146 147   0]
 [ 18   0   3   1   0 140 143   0]
 [ 18   0   1   1   0 146 147   0]
 [ 19   0   3   1   0 140 143   0]
 [ 19   0   1   1   0 146 147   0]
 [ 20   0   3   1   0 140 143   0]
 [ 20   0   1   1   0 146 147   0]
 [ 21   0   3   1   0 140 143   0]
 [ 21   0   1   1   0 146 147   0]
 [ 22   0   3   1   0 140 143   0]
 [ 22   0   1   1   0 146 147   0]
 [ 23   0   3   1   0 140 143   0]
 [ 23   0   1   1   0 146 147   0]
 [ 24   0   3   1   0 140 143   0]
 [ 24   0   1   1   0 146 147   0]
 [ 25   0   3   1   0 140 143   0]
 [ 25   0   1   1   0 146 147   0]
 [ 26   0   3   1   0 140 143   0]
 [ 26   0   1   1   0 146 147   0]
 [ 27   0   3   1   0 140 143   0]
 [ 27   0   1   1   0 146 147   0]
 [ 28   0   3   1   0 140 143   0]
 [ 28   0   1   1   0 146 147   0]
 [ 29   0   3   1   0 140 143   0]
 [ 29   0   1   1   0 146 147   0]]
arg.env = [ 1.37036000e+02  0.00000000e+00  0.00000000e+00  0.00000000e+00
  0.00000000e+00  0.00000000e+00  0.00000000e+00  0.00000000e+00
  0.00000000e+00  0.00000000e+00  0.00000000e+00  0.00000000e+00
  0.00000000e+00  0.00000000e+00  0.00000000e+00  0.00000000e+00
  0.00000000e+00  0.00000000e+00  0.00000000e+00  0.00000000e+00
 -5.20690265e+00  1.62617010e+00 -3.47164916e+00  0.00000000e+00
 -6.90532800e+00 -2.64821850e+00 -1.37666720e+00  0.00000000e+00
 -4.39641965e+00  9.21480309e-01  1.46074153e+00  0.00000000e+00
 -9.91336479e+00  1.15533581e+00 -2.82898014e+00  0.00000000e+00
 -2.23144364e+00 -2.33126982e+00 -2.14232634e+00  0.00000000e+00
  5.85889554e-02 -1.83023074e-01  2.15441645e+00  0.00000000e+00
 -8.70662059e-01  2.64860083e+00 -2.14924550e+00  0.00000000e+00
  3.86679125e+00  2.29232814e+00 -5.19291202e-01  0.00000000e+00
  2.32537453e+00 -2.46656776e+00 -1.49339407e+00  0.00000000e+00
  4.96184321e+00  1.86673156e-01  3.55783101e+00  0.00000000e+00
 -4.57733462e+00  3.30079910e+00 -3.17105778e+00  0.00000000e+00
 -3.81427518e+00  4.70805101e-01 -3.60131712e+00  0.00000000e+00
 -1.11026828e+00 -9.51614978e-01 -2.50372872e+00  0.00000000e+00
 -1.27561973e+00 -3.86698155e+00 -2.00418342e+00  0.00000000e+00
 -6.23971955e+00 -1.73173962e+00 -2.79375056e+00  0.00000000e+00
 -5.55552032e+00 -3.51408064e+00 -5.28495397e-01  0.00000000e+00
 -5.10838232e+00  1.57293659e-01 -2.25727597e-02  0.00000000e+00
 -5.71568552e+00  1.70053903e+00  2.43218295e+00  0.00000000e+00
 -8.72331197e-01 -1.27002865e+00  1.03956221e+00  0.00000000e+00
 -1.09912390e+00  7.89037134e-01  3.15735874e+00  0.00000000e+00
 -9.78164534e-01  2.15596750e+00 -4.06589750e-01  0.00000000e+00
  8.30292841e-01  3.14983938e+00 -2.53213667e+00  0.00000000e+00
 -8.83460809e+00  6.60655302e-01 -1.45687642e+00  0.00000000e+00
 -8.89915271e+00  1.59383729e+00 -4.26779342e+00  0.00000000e+00
  5.35471445e+00  1.25778835e+00 -6.02389471e-01  0.00000000e+00
  3.07976443e+00  2.09050756e+00  1.10272933e+00  0.00000000e+00
  2.71309104e+00 -1.12556550e+00 -3.34738735e-01  0.00000000e+00
  3.86539913e+00 -3.23887304e+00 -2.06169160e+00  0.00000000e+00
  6.26039860e+00 -7.28718720e-01  4.43356213e+00  0.00000000e+00
  3.33808804e+00 -4.80360236e-01  4.01562894e+00  0.00000000e+00
  1.87311370e+01  2.82539370e+00  6.40121700e-01  7.61926220e-01
  1.29237100e+00  1.47131900e+00  1.61277800e-01  6.42977783e-01
  5.48467170e+03  8.25234950e+02  1.88046960e+02  5.29645000e+01
  1.68975700e+01  5.79963530e+00  2.94842455e+00  5.42657124e+00
  8.78126489e+00  1.15432129e+01  9.90055015e+00  3.38516599e+00
  1.55396160e+01  3.59993360e+00  1.01376180e+00 -2.19051792e+00
 -9.77405528e-01  2.88629094e+00  2.70005800e-01  9.46334873e-01
  1.55396160e+01  3.59993360e+00  1.01376180e+00  6.37930734e+00
  4.91490975e+00  2.15791055e+00  2.70005800e-01  5.67807022e-01
  8.00000000e-01  1.76578110e+00]
ecpbas  = []


******** <class 'pyscf.qmmm.itrf.mm_charge.<locals>.QMMM'> ********
method = QMMM-RHF
initial guess = minao
damping factor = 0
level shift factor = 0
DIIS = <class 'pyscf.scf.diis.CDIIS'>
DIIS start cycle = 1
DIIS space = 8
SCF tol = 1e-09
SCF gradient tol = None
max. SCF cycles = 50
direct_scf = True
direct_scf_tol = 1e-13
chkfile to save SCF result = /home/liwei01/wsr/dftpart/test_2body/w19/tmpqpqhbt6_
max_memory 4000 MB (current use 221 MB)
** Add background charges for <class 'pyscf.scf.hf.RHF'> **
Charge      Location
0.516794    [-10.52988433  -3.01188683  -1.33841775]
-1.042298    [-12.04656901  -2.45537924  -0.51315401]
0.526528    [-12.87497143  -1.21338097  -1.54382519]
0.524984    [-11.88536205   1.26190676   0.29971593]
-1.043333    [-13.4849842    2.0932316    0.09673476]
0.49951    [-13.47102064   3.06581942  -1.43459515]
0.5318    [-10.68672782   0.74334584   3.3090493 ]
-1.043971    [-9.17038002  0.43665291  2.36156732]
0.521099    [-9.22593063 -1.23349431  1.65544005]
0.514071    [-14.69004779   0.66192854   3.1797209 ]
-1.03301    [-13.9755205   -0.83844608   3.90733349]
0.517099    [-13.82769709  -2.11850041   2.63034386]
0.501129    [ 7.22840011 -1.0045758   0.95136814]
-1.011936    [ 7.07839516 -1.97761385 -0.57237359]
0.516564    [ 8.70257401 -2.6475258  -1.02442932]
0.518579    [ 9.15526977  0.62770774 -2.21956363]
-1.055603    [10.91628876  0.37687018 -1.86321262]
0.541667    [11.46064771  1.58513319 -0.62431506]
0.497636    [7.74046069 2.27469652 2.70339813]
-1.011863    [8.19009517 2.90000336 1.06086547]
0.523055    [6.98819787 4.15595658 0.54209984]
0.510662    [13.54402868 -1.2027434   0.21934096]
-1.019305    [14.09300408 -0.25214873  1.66367096]
0.501734    [15.80584223  0.29120088  1.41457265]
0.517037    [14.16668686 -0.55019599 -3.22326821]
-1.007951    [15.84836491 -0.72262804 -2.56499814]
0.48223    [17.02232926 -0.88076726 -3.93900434]
Set gradient conv threshold to 3.16228e-05
Nelec from initial guess = 99.91993364528791
cond(S) = 1145.0423452127295
E1 = -2587.333040279912  E_coul = 1049.2071431917655
init E= -759.602768972365
    CPU time for initialize scf     13.13 sec, wall time      1.65 sec
  HOMO = -0.441928229773975  LUMO = 0.0383302599543599
  mo_energy =
[-20.87846853 -20.86044119 -20.85288504 -20.82689543 -20.81698687
 -20.81009202 -20.80658036 -20.80093655 -20.7821234  -20.77646603
  -1.79510576  -1.7355861   -1.68637885  -1.66055567  -1.64027962
  -1.63177291  -1.62362071  -1.59346519  -1.56658588  -1.55678493
  -0.87665368  -0.84786738  -0.83878671  -0.82984924  -0.81079588
  -0.78947968  -0.78317282  -0.77273123  -0.74483986  -0.71715305
  -0.69260957  -0.67801347  -0.67291428  -0.64670789  -0.61908471
  -0.61003927  -0.57193643  -0.55379302  -0.54443209  -0.53527811
  -0.51946636  -0.51423858  -0.50701035  -0.49520922  -0.49245236
  -0.47965748  -0.47790164  -0.46830162  -0.44401208  -0.44192823
   0.03833026   0.07767657   0.12897809   0.14351981   0.15528638
   0.17835068   0.18526034   0.20575774   0.21313849   0.23285864
   0.24183924   0.24763089   0.2634603    0.27060789   0.27635088
   0.30494123   0.31183411   0.33272167   0.35483374   0.3657011
   0.84031082   0.86710715   0.87585093   0.88427222   0.89437549
   0.91909345   0.92140922   0.93433618   0.93533332   0.94996713
   0.96227467   0.97775827   0.98291727   1.0033467    1.00621122
   1.01741004   1.02527011   1.03399105   1.03912151   1.0578681
   1.07455474   1.08020357   1.0861607    1.1067163    1.10813319
   1.11704556   1.13478846   1.15189498   1.15736382   1.17976557
   1.18991545   1.20695799   1.22716383   1.23401015   1.24052636
   1.25775054   1.26411296   1.27003806   1.27702202   1.29341316
   1.30214453   1.32163585   1.33834383   1.34531373   1.36801797
   1.39251851   1.40374075   1.41353904   1.42384362   1.44168673
   1.48081113   1.49223065   1.52180289   1.54969533   1.55860617
   1.60248023   1.61253234   1.68586468   1.7623594    1.79807446
   1.8413706    1.85651841   1.85983206   1.86409977   1.88401836
   1.88635128   1.89133718   1.89479783   1.90235547   1.91309683
   1.92217499   1.92669792   1.93409722   1.94708127   1.94902681
   1.95841013   1.96865277   1.97757093   1.98626057   1.99046099
   2.00337188   2.01543      2.0508183    2.0602328    2.07630402
   2.08484932   2.11573829   2.15754233   2.20551407   2.34551521
   2.47362277   2.51263087   2.51441589   2.54643151   2.56156749
   2.58377012   2.62235509   2.6411117    2.66484672   2.67856892
   2.7860481    2.81814009   2.81874814   2.86403133   2.88028619
   2.8930281    2.92487578   2.938118     2.96283238   2.97127785
   3.84930244   3.85485881   3.94601096   4.0025663    4.06067443
   4.08095547   4.11533401   4.15262524   4.25615532   4.36329852]
E1 = -2610.8682993814455  E_coul = 1072.4496750951814
cycle= 1 E= -759.895496170483  delta_E= -0.293  |g|= 1.25  |ddm|= 3.88
    CPU time for cycle= 1      1.43 sec, wall time      0.18 sec
diis-norm(errvec)=2.32232
diis-c [-5.39316949  1.        ]
  HOMO = -0.380784064661171  LUMO = 0.163680140879599
  mo_energy =
[-20.41707206 -20.41160305 -20.41069829 -20.36850499 -20.36062902
 -20.35354494 -20.34073927 -20.33364657 -20.32650516 -20.25898919
  -1.36211736  -1.3495157   -1.32673121  -1.30623932  -1.30477606
  -1.28886688  -1.27533419  -1.26862104  -1.25983503  -1.22711563
  -0.7624326   -0.75124478  -0.73550005  -0.70200892  -0.6952867
  -0.683862    -0.6759675   -0.66494864  -0.6578259   -0.63333503
  -0.60625837  -0.59569725  -0.58225122  -0.56932346  -0.52462604
  -0.5189451   -0.5061711   -0.49275664  -0.48172802  -0.47809443
  -0.46624997  -0.46588446  -0.45187972  -0.44603028  -0.43324104
  -0.42799677  -0.42099124  -0.41580131  -0.40136693  -0.38078406
   0.16368014   0.20704836   0.25144318   0.25952263   0.27295113
   0.29680243   0.30570991   0.31127023   0.32402414   0.33308952
   0.34298189   0.37398098   0.38359632   0.40405936   0.41302764
   0.42836346   0.44438499   0.46149588   0.4794933    0.52917074
   0.96278406   0.97594616   1.00372293   1.01986708   1.02161547
   1.03601835   1.05304803   1.05475774   1.08213912   1.08564711
   1.09573094   1.11462917   1.12416039   1.12520556   1.12958554
   1.14454078   1.15170673   1.16919819   1.17707455   1.19447099
   1.20094605   1.20966912   1.21977212   1.24353716   1.24718188
   1.25689739   1.27800448   1.29984039   1.30724535   1.32159291
   1.3269136    1.34991869   1.36853578   1.37569923   1.39754793
   1.40751625   1.41805257   1.43365101   1.44001775   1.45839163
   1.46517131   1.48964819   1.49553768   1.50318906   1.52942721
   1.54307066   1.5630003    1.56531893   1.58238198   1.58776543
   1.60651234   1.64356459   1.6711564    1.6991676    1.72366411
   1.74444211   1.76048018   1.81734772   1.88963324   1.97889518
   2.0058113    2.02376146   2.03508536   2.05169946   2.05284453
   2.06071795   2.06423433   2.07929162   2.08821415   2.09869703
   2.10307191   2.10759361   2.11177486   2.12024318   2.12730195
   2.13462715   2.14630457   2.14857002   2.16547687   2.17214371
   2.19252395   2.20789856   2.21735541   2.22181803   2.2339352
   2.24437147   2.26304293   2.30482858   2.3404483    2.50617815
   2.59916474   2.66401218   2.69037635   2.70525806   2.71986957
   2.74599658   2.75136528   2.79049737   2.79367182   2.84020161
   2.9423685    2.98169845   2.99321598   2.99837622   3.02608635
   3.04021007   3.05696637   3.06833871   3.08415021   3.12308124
   4.05221837   4.18561059   4.20312406   4.22211269   4.26239298
   4.27357746   4.31392488   4.35676529   4.45094548   4.58243817]
E1 = -2596.9778643295667  E_coul = 1058.3136103299669
cycle= 2 E= -760.141125883819  delta_E= -0.246  |g|= 0.593  |ddm|= 1.07
    CPU time for cycle= 2      1.43 sec, wall time      0.18 sec
diis-norm(errvec)=1.04922
diis-c [-0.35927466  0.27736387  0.72263613]
  HOMO = -0.475720572052975  LUMO = 0.158939340409333
  mo_energy =
[-20.65637822 -20.60376161 -20.60268005 -20.60254296 -20.59803297
 -20.58210515 -20.57814662 -20.57578337 -20.57251195 -20.56077933
  -1.42702872  -1.40788467  -1.38665192  -1.37497825  -1.37126495
  -1.36408985  -1.34636473  -1.33823681  -1.33160203  -1.3270144
  -0.81076915  -0.79454846  -0.77893312  -0.75758457  -0.75089412
  -0.73863049  -0.73104537  -0.71960492  -0.71378484  -0.70827281
  -0.67429492  -0.65653355  -0.64239951  -0.637212    -0.59971445
  -0.59355056  -0.58362827  -0.56584374  -0.55116495  -0.54835086
  -0.54037005  -0.53027498  -0.5223795   -0.52040677  -0.51145947
  -0.50824428  -0.50316693  -0.49261875  -0.48984658  -0.47572057
   0.15893934   0.19492322   0.24070431   0.24844011   0.25698592
   0.28574572   0.29181225   0.30028837   0.31048945   0.31830984
   0.32550273   0.35553174   0.36266227   0.38219897   0.38732715
   0.40411774   0.42037867   0.43603616   0.45814797   0.49688819
   0.92982964   0.94814289   0.97598654   0.98549573   0.99488412
   1.01329159   1.01873648   1.02379356   1.03888922   1.04376173
   1.05459204   1.0614669    1.07489706   1.07646225   1.09739965
   1.10295362   1.11340513   1.1315207    1.13703471   1.14571624
   1.15233727   1.16134792   1.17406726   1.19174134   1.2084829
   1.21333673   1.23380655   1.25392412   1.25520229   1.27146074
   1.27914647   1.30740821   1.32462165   1.32822911   1.34935328
   1.35772912   1.3668983    1.38003606   1.3840054    1.39703105
   1.41821236   1.43556086   1.44270984   1.44794788   1.46944822
   1.48599574   1.50627246   1.51593181   1.52301313   1.53621082
   1.56138048   1.59387792   1.62024653   1.64679955   1.66807709
   1.69486767   1.70531781   1.77162646   1.84682318   1.92282575
   1.95080586   1.97804727   1.98531131   1.99538751   1.99558534
   2.00183826   2.00815663   2.02330608   2.03037066   2.0387159
   2.04399053   2.04791815   2.05018257   2.05475819   2.06457602
   2.0736455    2.08459495   2.09162694   2.10552858   2.11525992
   2.12533207   2.13417118   2.15948117   2.16479259   2.17590882
   2.19094387   2.21036713   2.25424869   2.29199236   2.4573338
   2.55592546   2.61654315   2.64434923   2.66087556   2.6714395
   2.68954612   2.70695259   2.7464559    2.75488296   2.7865346
   2.89950237   2.93563243   2.94519401   2.95364287   2.9792339
   2.9850803    3.01270599   3.02314098   3.04529504   3.0761973
   3.96981268   4.068418     4.11243071   4.13762246   4.19404722
   4.20003717   4.23979495   4.27976148   4.3744917    4.50077545]
E1 = -2603.0267565430413  E_coul = 1064.3024273698052
cycle= 3 E= -760.201201057455  delta_E= -0.0601  |g|= 0.0945  |ddm|= 0.397
    CPU time for cycle= 3      1.42 sec, wall time      0.18 sec
diis-norm(errvec)=0.178701
diis-c [-0.01129552 -0.05640165  0.02385656  1.03254509]
  HOMO = -0.465745379275075  LUMO = 0.167405924085618
  mo_energy =
[-20.61780265 -20.58156774 -20.57761968 -20.57027589 -20.56901831
 -20.55772892 -20.55316435 -20.53933392 -20.53392961 -20.52988039
  -1.41105607  -1.39596951  -1.37462793  -1.36177279  -1.35976149
  -1.35234496  -1.33452974  -1.32321612  -1.31896355  -1.31440584
  -0.79606215  -0.7838052   -0.76738119  -0.7467007   -0.73829409
  -0.72770022  -0.72036444  -0.70862656  -0.70224335  -0.69720468
  -0.66201871  -0.647021    -0.6331919   -0.62844369  -0.58897231
  -0.5838494   -0.57255829  -0.5537206   -0.54152273  -0.53820573
  -0.53101531  -0.52138828  -0.51373068  -0.51031283  -0.5021802
  -0.49904858  -0.49358835  -0.48088249  -0.47956846  -0.46574538
   0.16740592   0.20211721   0.24770753   0.25466196   0.26355516
   0.29266667   0.29834209   0.30764241   0.31650397   0.32537014
   0.33192135   0.36307603   0.36902792   0.38888622   0.39432562
   0.41166036   0.42954094   0.44503272   0.46623315   0.5052436
   0.93722402   0.95641897   0.98486827   0.99288157   1.00557022
   1.02113341   1.02717795   1.03328895   1.04808746   1.04971589
   1.06303044   1.06981466   1.08321153   1.08700478   1.10771289
   1.1135961    1.12322232   1.14090487   1.14764349   1.15567855
   1.16150663   1.17257966   1.18494741   1.20120771   1.21757357
   1.22138296   1.24379795   1.2631618    1.2663213    1.28105284
   1.29162598   1.31866732   1.33453502   1.33877294   1.36022751
   1.36749477   1.37624676   1.38838544   1.39501994   1.40697088
   1.428458     1.44594182   1.45287554   1.45669882   1.4798293
   1.49627879   1.51628472   1.52492656   1.53200188   1.54521704
   1.57044457   1.60318703   1.62991798   1.65620146   1.67757802
   1.70441905   1.71448789   1.78182028   1.85709747   1.93170379
   1.96431776   1.98873859   1.99549691   2.00591578   2.00748078
   2.01221481   2.01819576   2.03314318   2.04123614   2.04883612
   2.05333316   2.05796442   2.05992917   2.06411671   2.07618173
   2.08339058   2.0953458    2.10211159   2.115245     2.12634929
   2.13465828   2.14303464   2.16960815   2.17505912   2.18540368
   2.20050814   2.22085659   2.26435425   2.30320685   2.46614533
   2.56876777   2.62678374   2.65568971   2.6703234    2.68111765
   2.698776     2.71822337   2.75546912   2.76504625   2.79584048
   2.91319786   2.94515688   2.95538609   2.96472749   2.98989164
   2.99665208   3.02407534   3.03488223   3.05635199   3.08624962
   3.98520305   4.08005353   4.12396671   4.1505442    4.20492428
   4.21081013   4.25157183   4.29150868   4.38712061   4.51261732]
E1 = -2602.3462489240455  E_coul = 1063.6197701440954
cycle= 4 E= -760.203350664169  delta_E= -0.00215  |g|= 0.0133  |ddm|= 0.0758
    CPU time for cycle= 4      1.42 sec, wall time      0.18 sec
diis-norm(errvec)=0.0263587
diis-c [-3.76081518e-04 -5.44643620e-03 -1.98367132e-02 -6.82676446e-02
  1.09355079e+00]
  HOMO = -0.466793683869663  LUMO = 0.167143952455737
  mo_energy =
[-20.62221678 -20.57937805 -20.57455554 -20.57180233 -20.57170382
 -20.55435272 -20.5543067  -20.54325546 -20.53861482 -20.53177001
  -1.41249723  -1.39592718  -1.37471749  -1.36216113  -1.35961006
  -1.35274068  -1.3349549   -1.32474034  -1.32042875  -1.31546762
  -0.79687822  -0.78318124  -0.76704535  -0.74676992  -0.73845285
  -0.72787052  -0.72041296  -0.70917529  -0.70294182  -0.69763437
  -0.66295204  -0.6470389   -0.6332606   -0.62849528  -0.58990072
  -0.58438826  -0.57363178  -0.5550515   -0.54229087  -0.53894554
  -0.53119039  -0.52135885  -0.51421819  -0.51109748  -0.50302038
  -0.49992601  -0.49442888  -0.48281858  -0.48145005  -0.46679368
   0.16714395   0.20207383   0.24768515   0.25458017   0.26353027
   0.29242396   0.29812884   0.30737696   0.3164252    0.32522984
   0.33189557   0.36334697   0.36934401   0.38904989   0.39417186
   0.41161803   0.42920065   0.44475885   0.46596725   0.50468385
   0.93692259   0.95599715   0.98436413   0.99240268   1.00500254
   1.02070832   1.02695487   1.03271875   1.04753121   1.04930411
   1.06270578   1.06928432   1.08288262   1.08590693   1.10751618
   1.11309627   1.12305468   1.14046381   1.1469975    1.15531961
   1.16092455   1.17201257   1.18413897   1.20068635   1.21699191
   1.22076953   1.24374466   1.26267617   1.26545199   1.28077578
   1.29092713   1.31814318   1.33421237   1.33834724   1.35973956
   1.36702193   1.3758979    1.38797004   1.39442757   1.40648531
   1.42809294   1.44537751   1.45259266   1.45656004   1.47953336
   1.49583257   1.51589964   1.52479207   1.53220256   1.54515959
   1.5702733    1.60285045   1.62910883   1.65545889   1.67706801
   1.7040354    1.71410536   1.78120551   1.85652374   1.93124131
   1.96321552   1.98884393   1.9956171    2.00563393   2.00670891
   2.01177535   2.01803383   2.03281596   2.04067615   2.0484397
   2.05244943   2.05773171   2.05963442   2.06394066   2.07526358
   2.08278096   2.09482954   2.10149098   2.11481422   2.12594233
   2.13396256   2.1426021    2.1691685    2.17460911   2.18554802
   2.20048573   2.22063205   2.26382421   2.30236725   2.46559474
   2.56797088   2.62658527   2.65494188   2.66991385   2.68143412
   2.69804683   2.71795053   2.7556765    2.76530098   2.79541614
   2.91253029   2.94540476   2.95499617   2.96479191   2.9896532
   2.99627964   3.02384383   3.03440033   3.05636696   3.08616929
   3.98381956   4.0786655    4.12331571   4.15012943   4.20542066
   4.21116637   4.25154442   4.29137685   4.38662596   4.51190573]
E1 = -2602.3653859968413  E_coul = 1063.6388328538706
cycle= 5 E= -760.20342502719  delta_E= -7.44e-05  |g|= 0.00444  |ddm|= 0.0204
    CPU time for cycle= 5      1.43 sec, wall time      0.19 sec
diis-norm(errvec)=0.00798414
diis-c [-4.56863134e-05  8.51197484e-04 -1.25586467e-03 -3.86731180e-02
  9.63225556e-02  9.42755230e-01]
  HOMO = -0.467091107465875  LUMO = 0.167241630532841
  mo_energy =
[-20.62038949 -20.58129136 -20.57687404 -20.57158016 -20.57100512
 -20.55698396 -20.55418217 -20.54195875 -20.53684145 -20.53159943
  -1.41204705  -1.39626311  -1.37498487  -1.3622257   -1.36002852
  -1.35288211  -1.33506675  -1.32444761  -1.32012414  -1.31542072
  -0.79640426  -0.78352062  -0.76725429  -0.7467605   -0.73825287
  -0.72779698  -0.72054041  -0.70900528  -0.7026964   -0.69757569
  -0.66261921  -0.64730867  -0.63355084  -0.62878866  -0.58971536
  -0.58436564  -0.57342015  -0.55484191  -0.54239838  -0.53902896
  -0.53159739  -0.52197813  -0.51472453  -0.51136135  -0.5032492
  -0.5000793   -0.49466246  -0.48251135  -0.48123085  -0.46709111
   0.16724163   0.20202655   0.24765849   0.25453491   0.26350018
   0.2924501    0.29809934   0.30740881   0.31639617   0.32524358
   0.33188319   0.36331287   0.3692607    0.3889559    0.394192
   0.41158457   0.42929961   0.44478541   0.46592604   0.50469848
   0.93677458   0.95601987   0.98440673   0.99244223   1.00518324
   1.02060666   1.02680403   1.03278026   1.04751873   1.04932722
   1.06266602   1.06928562   1.08281939   1.08609722   1.10741136
   1.11308739   1.12291223   1.14042913   1.14700247   1.15522753
   1.16089861   1.17193388   1.18423478   1.20060081   1.21690079
   1.22072849   1.24351339   1.26266681   1.26549749   1.28073049
   1.29110391   1.3181682    1.33415004   1.338353     1.35965638
   1.36703688   1.37587631   1.38799818   1.39448875   1.40650326
   1.4280133    1.4454355    1.45251262   1.45641511   1.47954143
   1.49576374   1.51588879   1.52474013   1.53185954   1.54494522
   1.57011706   1.60274635   1.6290955    1.65546467   1.67694075
   1.70394956   1.71395311   1.78122269   1.85648859   1.93120572
   1.96360667   1.9885576    1.99531621   2.00556449   2.0069024
   2.01177847   2.01787021   2.03271379   2.04071694   2.04841238
   2.05265996   2.05756159   2.05950481   2.06372069   2.07539492
   2.08279577   2.09479623   2.10143898   2.11480927   2.1259773
   2.13399434   2.14255314   2.16906018   2.17450166   2.18523202
   2.20023088   2.22042609   2.26375214   2.30245773   2.46551335
   2.56830101   2.62656936   2.6550691    2.66994431   2.68111504
   2.69814854   2.71796079   2.75539789   2.7650258    2.79535343
   2.91284499   2.94516273   2.95503655   2.96469481   2.98966903
   2.99632047   3.0238125    3.03442828   3.05616802   3.08601575
   3.98432779   4.07914533   4.12343366   4.15014622   4.20486398
   4.21063697   4.2512279    4.29121058   4.38656947   4.51184744]
E1 = -2602.364536899467  E_coul = 1063.6379774577122
cycle= 6 E= -760.203431325974  delta_E= -6.3e-06  |g|= 0.00182  |ddm|= 0.0058
    CPU time for cycle= 6      1.42 sec, wall time      0.18 sec
diis-norm(errvec)=0.00335392
diis-c [-2.35858684e-06  9.18237133e-04  3.29600111e-03  1.56105296e-03
 -1.43189171e-01  1.83209721e-01  9.54204159e-01]
  HOMO = -0.467074165951781  LUMO = 0.167256927907834
  mo_energy =
[-20.62074006 -20.58052348 -20.57600955 -20.5714175  -20.57109908
 -20.55602154 -20.55414607 -20.54220676 -20.53724302 -20.53154342
  -1.41210626  -1.39609859  -1.37483439  -1.36213928  -1.35984238
  -1.35279301  -1.33499746  -1.32448606  -1.32020347  -1.31540648
  -0.7964055   -0.78330877  -0.76706186  -0.74665034  -0.73815853
  -0.72771532  -0.72039715  -0.70895866  -0.70265757  -0.69747166
  -0.66269719  -0.64720382  -0.63345504  -0.62868733  -0.58978196
  -0.58437751  -0.57349101  -0.55491639  -0.54240401  -0.53903003
  -0.53148577  -0.52183898  -0.51463438  -0.51134405  -0.50325687
  -0.50007767  -0.49468672  -0.48270583  -0.48137773  -0.46707417
   0.16725693   0.2020567    0.24769068   0.25456127   0.26352698
   0.29245202   0.29810826   0.30742274   0.31640544   0.32526096
   0.33189273   0.36337675   0.36933936   0.38900942   0.3942201
   0.41164611   0.42933548   0.44484559   0.46598301   0.50475347
   0.93681265   0.95602121   0.98440143   0.9924317    1.0051668
   1.02062979   1.0268492    1.03278344   1.0475153    1.0492903
   1.06268657   1.06926916   1.08282893   1.08605027   1.10745757
   1.11307598   1.1229554    1.14045232   1.14698604   1.15526722
   1.16090377   1.17195146   1.18421796   1.20061487   1.21692829
   1.22073368   1.24359993   1.26266697   1.26550025   1.28076527
   1.29111709   1.31821071   1.33420503   1.33838205   1.35971346
   1.36705037   1.37591038   1.38800907   1.39450822   1.40652103
   1.42808358   1.44544835   1.45258486   1.45648353   1.47958457
   1.49581567   1.51593197   1.52478722   1.53200559   1.5450448
   1.57018247   1.60280768   1.62912901   1.65548152   1.67700028
   1.7040138    1.71403145   1.78124928   1.85653519   1.9312299
   1.9635253    1.98867923   1.99543489   2.00560652   2.00687489
   2.01178749   2.01793586   2.03275376   2.04071365   2.04843406
   2.05256847   2.05763635   2.05955845   2.06380015   2.07537247
   2.08279451   2.09482244   2.10146991   2.1148186    2.12599266
   2.1339816    2.14255989   2.16910409   2.17455023   2.18535151
   2.20032675   2.22050757   2.26379141   2.30247168   2.465556
   2.56823757   2.62658668   2.65504678   2.66994036   2.6812388
   2.69810207   2.71798475   2.7554925    2.76513494   2.7953758
   2.91279204   2.94525068   2.95502428   2.96475267   2.98967684
   2.99632497   3.02384492   3.03444372   3.05625937   3.08608805
   3.9842267    4.07897684   4.12341767   4.15018038   4.20507708
   4.21083635   4.25135848   4.29128045   4.38661208   4.51187518]
E1 = -2602.358812255118  E_coul = 1063.6322516668968
cycle= 7 E= -760.20343247244  delta_E= -1.15e-06  |g|= 0.000301  |ddm|= 0.00261
    CPU time for cycle= 7      1.42 sec, wall time      0.18 sec
diis-norm(errvec)=0.000534922
diis-c [-1.34331145e-07 -1.73207427e-04 -2.88959655e-04  1.06879193e-03
  1.51768740e-02 -6.83264686e-02 -1.42416229e-01  1.19495920e+00]
  HOMO = -0.467097247466165  LUMO = 0.16725588190945
  mo_energy =
[-20.62072831 -20.58055726 -20.57603044 -20.57143797 -20.57107442
 -20.5560682  -20.5540657  -20.54217002 -20.53724468 -20.5315045
  -1.41210988  -1.3961105   -1.3748509   -1.3621525   -1.35985543
  -1.35280153  -1.33499711  -1.32448758  -1.3202176   -1.31541586
  -0.79639908  -0.78330892  -0.76706156  -0.74664555  -0.73815479
  -0.72769854  -0.72039745  -0.70895848  -0.70265726  -0.69746795
  -0.66270251  -0.64721639  -0.63346774  -0.62870104  -0.58978991
  -0.58438659  -0.57350038  -0.55493128  -0.54242412  -0.53904533
  -0.53150966  -0.52186999  -0.51466665  -0.51137225  -0.50327626
  -0.50009561  -0.49470071  -0.48273187  -0.481397    -0.46709725
   0.16725588   0.20204984   0.24769013   0.25455789   0.2635236
   0.29244852   0.29810104   0.30741997   0.31639836   0.32525969
   0.33189157   0.36337712   0.3693373    0.38900674   0.39420933
   0.41163958   0.42933411   0.44484113   0.46597535   0.50473349
   0.9368035    0.9560181    0.98439489   0.99242101   1.00516517
   1.02061535   1.02683905   1.03277705   1.04750419   1.04927645
   1.06267786   1.06925496   1.08281703   1.08604292   1.10745017
   1.11307365   1.1229526    1.14044403   1.14697693   1.15526021
   1.16089542   1.17194715   1.18421225   1.20060274   1.21691822
   1.22072194   1.24359559   1.26266154   1.26549736   1.28076229
   1.29111638   1.31820693   1.33419835   1.33838056   1.35971031
   1.36704716   1.37590471   1.3880022    1.39450859   1.40652227
   1.4280752    1.44544652   1.45258062   1.45647856   1.47958378
   1.49580935   1.51592664   1.52479113   1.53199274   1.54503942
   1.57018261   1.6028068    1.62911772   1.65546993   1.67699234
   1.70400383   1.71401936   1.78124259   1.85652789   1.93121888
   1.96352366   1.98866627   1.99542147   2.00559527   2.00687074
   2.01177664   2.0179275    2.03274354   2.04071294   2.04842247
   2.05255487   2.05762488   2.05954678   2.06378603   2.07536544
   2.08278372   2.09481343   2.10146268   2.11481096   2.12598718
   2.13396621   2.14254177   2.16909393   2.17453837   2.18533868
   2.20031766   2.22050071   2.26378703   2.30246174   2.46553974
   2.56823637   2.62658489   2.65504158   2.66992761   2.68122758
   2.69808817   2.71797588   2.75548013   2.76512662   2.79535907
   2.91279078   2.94523485   2.95501364   2.96474506   2.98966615
   2.99632187   3.02384411   3.03443649   3.05625023   3.08607544
   3.98422617   4.0789632    4.12341169   4.15017012   4.20506239
   4.21081897   4.25134964   4.29128741   4.38661431   4.51187207]
E1 = -2602.3585905781547  E_coul = 1063.6320299402141
cycle= 8 E= -760.203432522159  delta_E= -4.97e-08  |g|= 6.93e-05  |ddm|= 0.000603
    CPU time for cycle= 8      1.43 sec, wall time      0.18 sec
diis-norm(errvec)=0.000122779
diis-c [-7.19536093e-09 -6.95511071e-05 -2.11742475e-04 -2.02391087e-05
  9.54479031e-03 -1.64454611e-02 -6.61936034e-02  9.87673050e-02
  9.74628502e-01]
  HOMO = -0.467100018725357  LUMO = 0.167257754437688
  mo_energy =
[-20.62070504 -20.58054045 -20.57602408 -20.5714099  -20.57107592
 -20.5560534  -20.55410385 -20.54217317 -20.53722183 -20.53152244
  -1.41210188  -1.39610612  -1.37484443  -1.3621441   -1.35985144
  -1.3528005   -1.3349999   -1.32448643  -1.32021295  -1.31541556
  -0.79639107  -0.78330308  -0.76705356  -0.74664137  -0.73814417
  -0.7276987   -0.72039269  -0.70895322  -0.70265019  -0.69746286
  -0.66269533  -0.64721165  -0.63346391  -0.62869672  -0.58978754
  -0.58438138  -0.57349506  -0.55492391  -0.54242255  -0.53904176
  -0.53150468  -0.52186889  -0.51466511  -0.51136802  -0.50327936
  -0.50009254  -0.49470848  -0.48272692  -0.4813945   -0.46710002
   0.16725775   0.20205172   0.24769207   0.25455908   0.26352525
   0.29244983   0.29810266   0.30742138   0.31640003   0.32526162
   0.33189275   0.36338137   0.36934102   0.38900955   0.39421422
   0.4116445    0.42933773   0.44484624   0.46598019   0.50474019
   0.93680506   0.95602132   0.9843989    0.99242537   1.00516955
   1.0206189    1.02684188   1.032781     1.04750721   1.04927989
   1.06268281   1.06925828   1.08282059   1.08604758   1.10745368
   1.11307436   1.12295411   1.14044729   1.146978     1.15526359
   1.16089884   1.17194594   1.18421457   1.20060433   1.21691955
   1.22072396   1.24359748   1.26266271   1.26549957   1.28076498
   1.29112192   1.31821149   1.33420316   1.33838339   1.35971149
   1.36705065   1.37590897   1.38800563   1.39451191   1.40652248
   1.42808033   1.44544946   1.45258522   1.45648114   1.47958822
   1.49581396   1.51593158   1.52479398   1.53199907   1.54504243
   1.57018394   1.60280835   1.62912214   1.65547442   1.67699579
   1.70400927   1.71402374   1.78124668   1.85653166   1.93122115
   1.96353046   1.9886729    1.99542709   2.00560071   2.00687612
   2.01178155   2.01793015   2.0327461    2.04071289   2.04842723
   2.05255922   2.05762833   2.05955007   2.06378947   2.07536852
   2.08278666   2.09481684   2.10146305   2.11481296   2.12599176
   2.13397069   2.14254693   2.16909645   2.17454174   2.18534256
   2.20032005   2.22050284   2.26378819   2.30246793   2.46554307
   2.56824235   2.62658615   2.65504409   2.66993139   2.6812321
   2.69809127   2.71798187   2.75548315   2.76513127   2.79536302
   2.91279732   2.94523994   2.95501663   2.96475052   2.98967156
   2.99632417   3.02384499   3.03443997   3.05625399   3.08607905
   3.98423471   4.07897064   4.12341331   4.15017886   4.20506702
   4.21082445   4.25135266   4.29128312   4.38661364   4.51186999]
E1 = -2602.3585076555632  E_coul = 1063.6319470157284
cycle= 9 E= -760.203432524054  delta_E= -1.89e-09  |g|= 2.27e-05  |ddm|= 0.000114
    CPU time for cycle= 9      1.42 sec, wall time      0.18 sec
diis-norm(errvec)=4.0507e-05
diis-c [-9.42817428e-10  8.70305431e-01 -1.86419859e-05 -6.29231707e-05
  6.55238808e-04  9.82516161e-04 -2.80600914e-03 -5.04103165e-02
  1.81354705e-01]
  HOMO = -0.467097578245433  LUMO = 0.167257200803625
  mo_energy =
[-20.62071313 -20.58054374 -20.57602351 -20.57141849 -20.57107216
 -20.5560556  -20.55408714 -20.54217018 -20.53722864 -20.53151348
  -1.41210412  -1.3961056   -1.37484464  -1.36214587  -1.35985087
  -1.35279869  -1.33499701  -1.32448521  -1.32021308  -1.31541373
  -0.79639298  -0.78330219  -0.76705332  -0.74663964  -0.73814618
  -0.72769551  -0.72039116  -0.70895254  -0.70265017  -0.69746159
  -0.66269701  -0.64721073  -0.63346255  -0.62869544  -0.58978668
  -0.5843812   -0.57349544  -0.55492579  -0.54242162  -0.5390412
  -0.53150473  -0.52186883  -0.51466403  -0.51136872  -0.50327694
  -0.50009115  -0.49470529  -0.48272785  -0.48139441  -0.46709758
   0.1672572    0.20205202   0.24769215   0.25455931   0.26352543
   0.29245002   0.29810295   0.30742139   0.31640018   0.32526144
   0.33189316   0.36338112   0.36934139   0.38901038   0.39421432
   0.41164504   0.42933891   0.44484704   0.46598085   0.50474204
   0.93680654   0.95602162   0.98439882   0.9924256    1.00516858
   1.02061917   1.02684243   1.03278047   1.04750784   1.04927973
   1.06268226   1.06925865   1.08282071   1.08604695   1.10745306
   1.11307422   1.12295453   1.14044735   1.14697837   1.15526368
   1.16089877   1.17194721   1.18421448   1.20060504   1.21692057
   1.2207247    1.24359808   1.26266356   1.2654999    1.28076526
   1.29112119   1.31821116   1.33420327   1.33838372   1.35971246
   1.36705051   1.3759091    1.38800592   1.39451232   1.40652406
   1.42808026   1.44545002   1.45258531   1.45648216   1.47958823
   1.49581398   1.51593166   1.52479413   1.53199947   1.5450434
   1.57018436   1.60280989   1.62912298   1.65547471   1.67699674
   1.70400962   1.71402491   1.78124696   1.85653218   1.93122269
   1.96352844   1.98867251   1.99542704   2.00560039   2.00687519
   2.01178136   2.01793131   2.03274724   2.04071465   2.04842727
   2.05255903   2.05762921   2.05955095   2.06379034   2.07536908
   2.08278741   2.09481741   2.10146511   2.11481408   2.12599151
   2.13397098   2.142547     2.16909758   2.1745428    2.18534344
   2.20032128   2.2205041    2.26378974   2.30246742   2.46554463
   2.56824064   2.62658742   2.65504495   2.66993224   2.68123277
   2.69809201   2.71798108   2.75548428   2.76513181   2.79536403
   2.91279548   2.9452404    2.95501761   2.96475038   2.98967132
   2.99632505   3.02384686   3.03444068   3.05625498   3.08608054
   3.98423214   4.07896904   4.12341487   4.1501767    4.20506738
   4.21082446   4.25135332   4.29128634   4.38661539   4.51187249]
E1 = -2602.358513108865  E_coul = 1063.631952468865
cycle= 10 E= -760.203432524219  delta_E= -1.65e-10  |g|= 6.97e-06  |ddm|= 2.73e-05
    CPU time for cycle= 10      1.42 sec, wall time      0.18 sec
  HOMO = -0.467098387923569  LUMO = 0.167257210380786
  mo_energy =
[-20.62071159 -20.58054325 -20.57602412 -20.57141671 -20.5710736
 -20.55605568 -20.55409229 -20.5421715  -20.5372273  -20.5315163
  -1.41210368  -1.39610595  -1.37484478  -1.36214555  -1.35985121
  -1.35279936  -1.33499798  -1.32448567  -1.3202131   -1.31541437
  -0.79639277  -0.78330256  -0.76705352  -0.74664024  -0.73814591
  -0.72769647  -0.72039173  -0.70895288  -0.70265036  -0.69746213
  -0.66269663  -0.64721102  -0.63346289  -0.62869573  -0.58978689
  -0.58438112  -0.57349527  -0.55492535  -0.54242199  -0.53904132
  -0.5315049   -0.52186941  -0.51466451  -0.51136868  -0.50327779
  -0.50009134  -0.49470653  -0.48272741  -0.48139433  -0.46709839
   0.16725721   0.20205187   0.24769212   0.25455924   0.26352535
   0.29244994   0.29810285   0.3074213    0.31640015   0.32526144
   0.33189306   0.36338104   0.36934115   0.3890101    0.39421416
   0.41164479   0.42933848   0.44484665   0.4659806    0.50474134
   0.93680597   0.95602147   0.98439877   0.99242549   1.00516867
   1.02061901   1.02684218   1.03278052   1.04750768   1.04927979
   1.06268231   1.06925853   1.08282061   1.08604699   1.10745311
   1.11307415   1.12295436   1.14044722   1.1469782    1.15526355
   1.16089872   1.17194682   1.18421436   1.20060472   1.21692018
   1.22072445   1.24359779   1.26266325   1.26549974   1.28076514
   1.29112117   1.31821107   1.33420316   1.33838355   1.35971201
   1.36705047   1.375909     1.3880058    1.39451214   1.40652354
   1.42808008   1.44544977   1.45258515   1.45648177   1.4795881
   1.49581388   1.51593149   1.52479402   1.53199918   1.54504295
   1.57018418   1.60280939   1.62912262   1.65547451   1.6769964
   1.70400929   1.71402447   1.78124676   1.85653189   1.93122218
   1.96352884   1.9886725    1.99542693   2.00560039   2.00687532
   2.01178136   2.01793091   2.03274683   2.04071408   2.04842719
   2.05255911   2.05762885   2.05955061   2.06379001   2.07536886
   2.08278714   2.09481715   2.10146444   2.11481368   2.12599146
   2.13397086   2.14254693   2.16909716   2.17454241   2.18534305
   2.20032081   2.22050362   2.26378921   2.30246746   2.46554409
   2.56824094   2.626587     2.65504464   2.66993197   2.68123247
   2.69809179   2.71798121   2.75548386   2.76513159   2.79536367
   2.91279582   2.94524017   2.95501729   2.96475033   2.98967131
   2.99632472   3.02384627   3.03444039   3.0562546    3.08608003
   3.98423263   4.07896945   4.12341435   4.15017714   4.20506705
   4.21082426   4.25135294   4.29128525   4.38661474   4.5118717 ]
E1 = -2602.3585335610887  E_coul = 1063.631972921068
Extra cycle  E= -760.20343252424  delta_E= -2.09e-11  |g|= 3.41e-06  |ddm|= 1.04e-05
    CPU time for scf_cycle     28.78 sec, wall time      3.62 sec
    CPU time for SCF     28.84 sec, wall time      3.62 sec
converged SCF energy = -760.20343252424
