#INFO: **** input file is /home/liwei01/wsr/dftpart/test_2body/w19/gfea_c8.py ****
from dftpart import gfea3
from pyscf import lib

par = 8
with lib.with_omp_threads(par):
    fr0 = gfea3.GFEA()
    fr0.inputstyle = 'frg'
    fr0.method = ['hf', '6-31gs','cart','charge']
    fr0.gjfname = 'w19'
    fr0.output = 'w19'
    fr0.verbose = 9
    fr0.showinter = True
    #fr0.do_deriv = True
    fr0.kernel()

#INFO: ******************** input file end ********************


System: uname_result(system='Linux', node='master', release='3.10.0-693.el7.x86_64', version='#1 SMP Tue Aug 22 21:09:27 UTC 2017', machine='x86_64', processor='x86_64')  Threads 8
Python 3.6.4 |Anaconda, Inc.| (default, Jan 16 2018, 18:10:19) 
[GCC 7.2.0]
numpy 1.14.0  scipy 1.0.0
Date: Sat May  9 21:02:02 2020
PySCF version 1.6.1
PySCF path  /home/liwei01/zcheng/pyscf/pyscf
GIT HEAD      ref: refs/heads/master
GIT master branch  3adc7fd25839fe674469a52b764c3661e32d7318

[CONFIG] DEBUG = False
[CONFIG] MAX_MEMORY = 4000
[CONFIG] TMPDIR = .
[CONFIG] UNIT = angstrom
[CONFIG] VERBOSE = 3
[CONFIG] conf_file = None
[INPUT] verbose = 9
[INPUT] max_memory = 4000 
[INPUT] num. atoms = 27
[INPUT] num. electrons = 90
[INPUT] charge = 0
[INPUT] spin (= nelec alpha-beta = 2S) = 0
[INPUT] symmetry False subgroup None
[INPUT] Mole.unit = angstrom
[INPUT] Cartesian GTO integrals (6d 10f)
[INPUT]  1 O     -1.180829120000  -1.233654860000  -1.133670280000 AA   -2.231443636711  -2.331269817639  -2.142326344759 Bohr
[INPUT]  2 O      0.031003940000  -0.096851640000   1.140068090000 AA    0.058588955382  -0.183023074315   2.154416453456 Bohr
[INPUT]  3 O     -0.460734520000   1.401579200000  -1.137331740000 AA   -0.870662058933   2.648600829887  -2.149245501375 Bohr
[INPUT]  4 O      2.046217810000   1.213047810000  -0.274797070000 AA    3.866791252107   2.292328136903  -0.519291202133 Bohr
[INPUT]  5 O      1.230535210000  -1.305251450000  -0.790270110000 AA    2.325374533534  -2.466567764191  -1.493394072330 Bohr
[INPUT]  6 O      2.625694350000   0.098783180000   1.882723090000 AA    4.961843208318   0.186673155914   3.557831008495 Bohr
[INPUT]  7 O      3.745725410000  -1.046508180000  -0.302887060000 AA    7.078395162724  -1.977613847317  -0.572373590075 Bohr
[INPUT]  8 O      5.776651240000   0.199431110000  -0.985969660000 AA   10.916288760729   0.376870178618  -1.863212624531 Bohr
[INPUT]  9 O      4.334011720000   1.534615690000   0.561385830000 AA    8.190095171455   2.900003360560   1.060865468912 Bohr
[INPUT] 10 H     -0.587528670000  -0.503572960000  -1.324916180000 AA   -1.110268276630  -0.951614978137  -2.503728718205 Bohr
[INPUT] 11 H     -0.675028890000  -2.046318510000  -1.060568190000 AA   -1.275619728269  -3.866981547528  -2.004183415526 Bohr
[INPUT] 12 H     -0.461617790000  -0.672070220000   0.550112630000 AA   -0.872331197327  -1.270028652276   1.039562208364 Bohr
[INPUT] 13 H     -0.581631320000   0.417540470000   1.670802290000 AA   -1.099123900269   0.789037134222   3.157358736396 Bohr
[INPUT] 14 H     -0.517622380000   1.140888870000  -0.215158030000 AA   -0.978164534146   2.155967502865  -0.406589750201 Bohr
[INPUT] 15 H      0.439372050000   1.666823220000  -1.339949020000 AA    0.830292841289   3.149839383866  -2.532136668679 Bohr
[INPUT] 16 H      2.833592860000   0.665592930000  -0.318770780000 AA    5.354714453923   1.257788348147  -0.602389470714 Bohr
[INPUT] 17 H      1.629741150000   1.106248960000   0.583539230000 AA    3.079764427434   2.090507559985   1.102729327640 Bohr
[INPUT] 18 H      3.825104610000  -0.531598620000   0.503442340000 AA    7.228400110711  -1.004575799997   0.951368142110 Bohr
[INPUT] 19 H      4.605203840000  -1.401010320000  -0.542104650000 AA    8.702574005395  -2.647525802489  -1.024429319353 Bohr
[INPUT] 20 H      4.844760120000   0.332168630000  -1.174542490000 AA    9.155269766015   0.627707737872  -2.219563627765 Bohr
[INPUT] 21 H      6.064713590000   0.838816360000  -0.330373300000 AA   11.460647709028   1.585133189205  -0.624315055869 Bohr
[INPUT] 22 H      4.096075400000   1.203717560000   1.430576680000 AA    7.740460691568   2.274696519730   2.703398125390 Bohr
[INPUT] 23 H      3.697995060000   2.199237510000   0.286866880000 AA    6.988197873395   4.155956576770   0.542099837408 Bohr
[INPUT] 24 H      1.435705950000  -0.595623610000  -0.177136110000 AA    2.713091040909  -1.125565496225  -0.334738734671 Bohr
[INPUT] 25 H      2.045481130000  -1.713937800000  -1.091000210000 AA    3.865399128666  -3.238873036540  -2.061691598743 Bohr
[INPUT] 26 H      3.312860270000  -0.385621340000   2.346140040000 AA    6.260398599253  -0.728718720388   4.433562125476 Bohr
[INPUT] 27 H      1.766440120000  -0.254195690000   2.124979320000 AA    3.338088042244  -0.480360236145   4.015628935165 Bohr
[INPUT] ---------------- BASIS SET ---------------- 
[INPUT] l, kappa, [nprim/nctr], expnt,             c_1 c_2 ...
[INPUT] H
[INPUT] 0    0    [3    /1   ]  18.731137         0.0334946
                                2.8253937         0.23472695
                                0.6401217         0.81375733
[INPUT] 0    0    [1    /1   ]  0.1612778            1
[INPUT] O
[INPUT] 0    0    [6    /1   ]  5484.6717         0.0018311
                                825.23495         0.0139501
                                188.04696         0.0684451
                                52.9645           0.2327143
                                16.89757          0.470193
                                5.7996353         0.3585209
[INPUT] 0    0    [3    /1   ]  15.539616         -0.1107775
                                3.5999336         -0.1480263
                                1.0137618         1.130767
[INPUT] 0    0    [1    /1   ]  0.2700058            1
[INPUT] 1    0    [3    /1   ]  15.539616         0.0708743
                                3.5999336         0.3397528
                                1.0137618         0.7271586
[INPUT] 1    0    [1    /1   ]  0.2700058            1
[INPUT] 2    0    [1    /1   ]  0.8                  1

nuclear repulsion = 652.865283819369
number of shells = 90
number of NR pGTOs = 324
number of NR cGTOs = 171
basis = 6-31gs
ecp = {}
bas 0, expnt(s) = [5484.6717     825.23495    188.04696     52.9645      16.89757
    5.7996353]
bas 1, expnt(s) = [15.539616   3.5999336  1.0137618]
bas 2, expnt(s) = [0.2700058]
bas 3, expnt(s) = [15.539616   3.5999336  1.0137618]
bas 4, expnt(s) = [0.2700058]
bas 5, expnt(s) = [0.8]
bas 6, expnt(s) = [5484.6717     825.23495    188.04696     52.9645      16.89757
    5.7996353]
bas 7, expnt(s) = [15.539616   3.5999336  1.0137618]
bas 8, expnt(s) = [0.2700058]
bas 9, expnt(s) = [15.539616   3.5999336  1.0137618]
bas 10, expnt(s) = [0.2700058]
bas 11, expnt(s) = [0.8]
bas 12, expnt(s) = [5484.6717     825.23495    188.04696     52.9645      16.89757
    5.7996353]
bas 13, expnt(s) = [15.539616   3.5999336  1.0137618]
bas 14, expnt(s) = [0.2700058]
bas 15, expnt(s) = [15.539616   3.5999336  1.0137618]
bas 16, expnt(s) = [0.2700058]
bas 17, expnt(s) = [0.8]
bas 18, expnt(s) = [5484.6717     825.23495    188.04696     52.9645      16.89757
    5.7996353]
bas 19, expnt(s) = [15.539616   3.5999336  1.0137618]
bas 20, expnt(s) = [0.2700058]
bas 21, expnt(s) = [15.539616   3.5999336  1.0137618]
bas 22, expnt(s) = [0.2700058]
bas 23, expnt(s) = [0.8]
bas 24, expnt(s) = [5484.6717     825.23495    188.04696     52.9645      16.89757
    5.7996353]
bas 25, expnt(s) = [15.539616   3.5999336  1.0137618]
bas 26, expnt(s) = [0.2700058]
bas 27, expnt(s) = [15.539616   3.5999336  1.0137618]
bas 28, expnt(s) = [0.2700058]
bas 29, expnt(s) = [0.8]
bas 30, expnt(s) = [5484.6717     825.23495    188.04696     52.9645      16.89757
    5.7996353]
bas 31, expnt(s) = [15.539616   3.5999336  1.0137618]
bas 32, expnt(s) = [0.2700058]
bas 33, expnt(s) = [15.539616   3.5999336  1.0137618]
bas 34, expnt(s) = [0.2700058]
bas 35, expnt(s) = [0.8]
bas 36, expnt(s) = [5484.6717     825.23495    188.04696     52.9645      16.89757
    5.7996353]
bas 37, expnt(s) = [15.539616   3.5999336  1.0137618]
bas 38, expnt(s) = [0.2700058]
bas 39, expnt(s) = [15.539616   3.5999336  1.0137618]
bas 40, expnt(s) = [0.2700058]
bas 41, expnt(s) = [0.8]
bas 42, expnt(s) = [5484.6717     825.23495    188.04696     52.9645      16.89757
    5.7996353]
bas 43, expnt(s) = [15.539616   3.5999336  1.0137618]
bas 44, expnt(s) = [0.2700058]
bas 45, expnt(s) = [15.539616   3.5999336  1.0137618]
bas 46, expnt(s) = [0.2700058]
bas 47, expnt(s) = [0.8]
bas 48, expnt(s) = [5484.6717     825.23495    188.04696     52.9645      16.89757
    5.7996353]
bas 49, expnt(s) = [15.539616   3.5999336  1.0137618]
bas 50, expnt(s) = [0.2700058]
bas 51, expnt(s) = [15.539616   3.5999336  1.0137618]
bas 52, expnt(s) = [0.2700058]
bas 53, expnt(s) = [0.8]
bas 54, expnt(s) = [18.731137   2.8253937  0.6401217]
bas 55, expnt(s) = [0.1612778]
bas 56, expnt(s) = [18.731137   2.8253937  0.6401217]
bas 57, expnt(s) = [0.1612778]
bas 58, expnt(s) = [18.731137   2.8253937  0.6401217]
bas 59, expnt(s) = [0.1612778]
bas 60, expnt(s) = [18.731137   2.8253937  0.6401217]
bas 61, expnt(s) = [0.1612778]
bas 62, expnt(s) = [18.731137   2.8253937  0.6401217]
bas 63, expnt(s) = [0.1612778]
bas 64, expnt(s) = [18.731137   2.8253937  0.6401217]
bas 65, expnt(s) = [0.1612778]
bas 66, expnt(s) = [18.731137   2.8253937  0.6401217]
bas 67, expnt(s) = [0.1612778]
bas 68, expnt(s) = [18.731137   2.8253937  0.6401217]
bas 69, expnt(s) = [0.1612778]
bas 70, expnt(s) = [18.731137   2.8253937  0.6401217]
bas 71, expnt(s) = [0.1612778]
bas 72, expnt(s) = [18.731137   2.8253937  0.6401217]
bas 73, expnt(s) = [0.1612778]
bas 74, expnt(s) = [18.731137   2.8253937  0.6401217]
bas 75, expnt(s) = [0.1612778]
bas 76, expnt(s) = [18.731137   2.8253937  0.6401217]
bas 77, expnt(s) = [0.1612778]
bas 78, expnt(s) = [18.731137   2.8253937  0.6401217]
bas 79, expnt(s) = [0.1612778]
bas 80, expnt(s) = [18.731137   2.8253937  0.6401217]
bas 81, expnt(s) = [0.1612778]
bas 82, expnt(s) = [18.731137   2.8253937  0.6401217]
bas 83, expnt(s) = [0.1612778]
bas 84, expnt(s) = [18.731137   2.8253937  0.6401217]
bas 85, expnt(s) = [0.1612778]
bas 86, expnt(s) = [18.731137   2.8253937  0.6401217]
bas 87, expnt(s) = [0.1612778]
bas 88, expnt(s) = [18.731137   2.8253937  0.6401217]
bas 89, expnt(s) = [0.1612778]
CPU time:       191.00
arg.atm = [[  8  20   1  23   0   0]
 [  8  24   1  27   0   0]
 [  8  28   1  31   0   0]
 [  8  32   1  35   0   0]
 [  8  36   1  39   0   0]
 [  8  40   1  43   0   0]
 [  8  44   1  47   0   0]
 [  8  48   1  51   0   0]
 [  8  52   1  55   0   0]
 [  1  56   1  59   0   0]
 [  1  60   1  63   0   0]
 [  1  64   1  67   0   0]
 [  1  68   1  71   0   0]
 [  1  72   1  75   0   0]
 [  1  76   1  79   0   0]
 [  1  80   1  83   0   0]
 [  1  84   1  87   0   0]
 [  1  88   1  91   0   0]
 [  1  92   1  95   0   0]
 [  1  96   1  99   0   0]
 [  1 100   1 103   0   0]
 [  1 104   1 107   0   0]
 [  1 108   1 111   0   0]
 [  1 112   1 115   0   0]
 [  1 116   1 119   0   0]
 [  1 120   1 123   0   0]
 [  1 124   1 127   0   0]]
arg.bas = [[  0   0   6   1   0 136 142   0]
 [  0   0   3   1   0 148 151   0]
 [  0   0   1   1   0 154 155   0]
 [  0   1   3   1   0 156 159   0]
 [  0   1   1   1   0 162 163   0]
 [  0   2   1   1   0 164 165   0]
 [  1   0   6   1   0 136 142   0]
 [  1   0   3   1   0 148 151   0]
 [  1   0   1   1   0 154 155   0]
 [  1   1   3   1   0 156 159   0]
 [  1   1   1   1   0 162 163   0]
 [  1   2   1   1   0 164 165   0]
 [  2   0   6   1   0 136 142   0]
 [  2   0   3   1   0 148 151   0]
 [  2   0   1   1   0 154 155   0]
 [  2   1   3   1   0 156 159   0]
 [  2   1   1   1   0 162 163   0]
 [  2   2   1   1   0 164 165   0]
 [  3   0   6   1   0 136 142   0]
 [  3   0   3   1   0 148 151   0]
 [  3   0   1   1   0 154 155   0]
 [  3   1   3   1   0 156 159   0]
 [  3   1   1   1   0 162 163   0]
 [  3   2   1   1   0 164 165   0]
 [  4   0   6   1   0 136 142   0]
 [  4   0   3   1   0 148 151   0]
 [  4   0   1   1   0 154 155   0]
 [  4   1   3   1   0 156 159   0]
 [  4   1   1   1   0 162 163   0]
 [  4   2   1   1   0 164 165   0]
 [  5   0   6   1   0 136 142   0]
 [  5   0   3   1   0 148 151   0]
 [  5   0   1   1   0 154 155   0]
 [  5   1   3   1   0 156 159   0]
 [  5   1   1   1   0 162 163   0]
 [  5   2   1   1   0 164 165   0]
 [  6   0   6   1   0 136 142   0]
 [  6   0   3   1   0 148 151   0]
 [  6   0   1   1   0 154 155   0]
 [  6   1   3   1   0 156 159   0]
 [  6   1   1   1   0 162 163   0]
 [  6   2   1   1   0 164 165   0]
 [  7   0   6   1   0 136 142   0]
 [  7   0   3   1   0 148 151   0]
 [  7   0   1   1   0 154 155   0]
 [  7   1   3   1   0 156 159   0]
 [  7   1   1   1   0 162 163   0]
 [  7   2   1   1   0 164 165   0]
 [  8   0   6   1   0 136 142   0]
 [  8   0   3   1   0 148 151   0]
 [  8   0   1   1   0 154 155   0]
 [  8   1   3   1   0 156 159   0]
 [  8   1   1   1   0 162 163   0]
 [  8   2   1   1   0 164 165   0]
 [  9   0   3   1   0 128 131   0]
 [  9   0   1   1   0 134 135   0]
 [ 10   0   3   1   0 128 131   0]
 [ 10   0   1   1   0 134 135   0]
 [ 11   0   3   1   0 128 131   0]
 [ 11   0   1   1   0 134 135   0]
 [ 12   0   3   1   0 128 131   0]
 [ 12   0   1   1   0 134 135   0]
 [ 13   0   3   1   0 128 131   0]
 [ 13   0   1   1   0 134 135   0]
 [ 14   0   3   1   0 128 131   0]
 [ 14   0   1   1   0 134 135   0]
 [ 15   0   3   1   0 128 131   0]
 [ 15   0   1   1   0 134 135   0]
 [ 16   0   3   1   0 128 131   0]
 [ 16   0   1   1   0 134 135   0]
 [ 17   0   3   1   0 128 131   0]
 [ 17   0   1   1   0 134 135   0]
 [ 18   0   3   1   0 128 131   0]
 [ 18   0   1   1   0 134 135   0]
 [ 19   0   3   1   0 128 131   0]
 [ 19   0   1   1   0 134 135   0]
 [ 20   0   3   1   0 128 131   0]
 [ 20   0   1   1   0 134 135   0]
 [ 21   0   3   1   0 128 131   0]
 [ 21   0   1   1   0 134 135   0]
 [ 22   0   3   1   0 128 131   0]
 [ 22   0   1   1   0 134 135   0]
 [ 23   0   3   1   0 128 131   0]
 [ 23   0   1   1   0 134 135   0]
 [ 24   0   3   1   0 128 131   0]
 [ 24   0   1   1   0 134 135   0]
 [ 25   0   3   1   0 128 131   0]
 [ 25   0   1   1   0 134 135   0]
 [ 26   0   3   1   0 128 131   0]
 [ 26   0   1   1   0 134 135   0]]
arg.env = [ 1.37036000e+02  0.00000000e+00  0.00000000e+00  0.00000000e+00
  0.00000000e+00  0.00000000e+00  0.00000000e+00  0.00000000e+00
  0.00000000e+00  0.00000000e+00  0.00000000e+00  0.00000000e+00
  0.00000000e+00  0.00000000e+00  0.00000000e+00  0.00000000e+00
  0.00000000e+00  0.00000000e+00  0.00000000e+00  0.00000000e+00
 -2.23144364e+00 -2.33126982e+00 -2.14232634e+00  0.00000000e+00
  5.85889554e-02 -1.83023074e-01  2.15441645e+00  0.00000000e+00
 -8.70662059e-01  2.64860083e+00 -2.14924550e+00  0.00000000e+00
  3.86679125e+00  2.29232814e+00 -5.19291202e-01  0.00000000e+00
  2.32537453e+00 -2.46656776e+00 -1.49339407e+00  0.00000000e+00
  4.96184321e+00  1.86673156e-01  3.55783101e+00  0.00000000e+00
  7.07839516e+00 -1.97761385e+00 -5.72373590e-01  0.00000000e+00
  1.09162888e+01  3.76870179e-01 -1.86321262e+00  0.00000000e+00
  8.19009517e+00  2.90000336e+00  1.06086547e+00  0.00000000e+00
 -1.11026828e+00 -9.51614978e-01 -2.50372872e+00  0.00000000e+00
 -1.27561973e+00 -3.86698155e+00 -2.00418342e+00  0.00000000e+00
 -8.72331197e-01 -1.27002865e+00  1.03956221e+00  0.00000000e+00
 -1.09912390e+00  7.89037134e-01  3.15735874e+00  0.00000000e+00
 -9.78164534e-01  2.15596750e+00 -4.06589750e-01  0.00000000e+00
  8.30292841e-01  3.14983938e+00 -2.53213667e+00  0.00000000e+00
  5.35471445e+00  1.25778835e+00 -6.02389471e-01  0.00000000e+00
  3.07976443e+00  2.09050756e+00  1.10272933e+00  0.00000000e+00
  7.22840011e+00 -1.00457580e+00  9.51368142e-01  0.00000000e+00
  8.70257401e+00 -2.64752580e+00 -1.02442932e+00  0.00000000e+00
  9.15526977e+00  6.27707738e-01 -2.21956363e+00  0.00000000e+00
  1.14606477e+01  1.58513319e+00 -6.24315056e-01  0.00000000e+00
  7.74046069e+00  2.27469652e+00  2.70339813e+00  0.00000000e+00
  6.98819787e+00  4.15595658e+00  5.42099837e-01  0.00000000e+00
  2.71309104e+00 -1.12556550e+00 -3.34738735e-01  0.00000000e+00
  3.86539913e+00 -3.23887304e+00 -2.06169160e+00  0.00000000e+00
  6.26039860e+00 -7.28718720e-01  4.43356213e+00  0.00000000e+00
  3.33808804e+00 -4.80360236e-01  4.01562894e+00  0.00000000e+00
  1.87311370e+01  2.82539370e+00  6.40121700e-01  7.61926220e-01
  1.29237100e+00  1.47131900e+00  1.61277800e-01  6.42977783e-01
  5.48467170e+03  8.25234950e+02  1.88046960e+02  5.29645000e+01
  1.68975700e+01  5.79963530e+00  2.94842455e+00  5.42657124e+00
  8.78126489e+00  1.15432129e+01  9.90055015e+00  3.38516599e+00
  1.55396160e+01  3.59993360e+00  1.01376180e+00 -2.19051792e+00
 -9.77405528e-01  2.88629094e+00  2.70005800e-01  9.46334873e-01
  1.55396160e+01  3.59993360e+00  1.01376180e+00  6.37930734e+00
  4.91490975e+00  2.15791055e+00  2.70005800e-01  5.67807022e-01
  8.00000000e-01  1.76578110e+00]
ecpbas  = []


******** <class 'pyscf.qmmm.itrf.mm_charge.<locals>.QMMM'> ********
method = QMMM-RHF
initial guess = minao
damping factor = 0
level shift factor = 0
DIIS = <class 'pyscf.scf.diis.CDIIS'>
DIIS start cycle = 1
DIIS space = 8
SCF tol = 1e-09
SCF gradient tol = None
max. SCF cycles = 50
direct_scf = True
direct_scf_tol = 1e-13
chkfile to save SCF result = /home/liwei01/wsr/dftpart/test_2body/w19/tmpl54oyfxq
max_memory 4000 MB (current use 376 MB)
** Add background charges for <class 'pyscf.scf.hf.RHF'> **
Charge      Location
-1.031354    [-5.20690265  1.6261701  -3.47164916]
0.535493    [-4.57733462  3.3007991  -3.17105778]
0.507015    [-3.81427518  0.4708051  -3.60131712]
0.525337    [-6.23971955 -1.73173962 -2.79375056]
-1.015236    [-6.905328  -2.6482185 -1.3766672]
0.516627    [-5.55552032 -3.51408064 -0.5284954 ]
0.512017    [-5.10838232  0.15729366 -0.02257276]
-1.064699    [-4.39641965  0.92148031  1.46074153]
0.526908    [-5.71568552  1.70053903  2.43218295]
0.516794    [-10.52988433  -3.01188683  -1.33841775]
-1.042298    [-12.04656901  -2.45537924  -0.51315401]
0.526528    [-12.87497143  -1.21338097  -1.54382519]
0.524984    [-11.88536205   1.26190676   0.29971593]
-1.043333    [-13.4849842    2.0932316    0.09673476]
0.49951    [-13.47102064   3.06581942  -1.43459515]
0.5318    [-10.68672782   0.74334584   3.3090493 ]
-1.043971    [-9.17038002  0.43665291  2.36156732]
0.521099    [-9.22593063 -1.23349431  1.65544005]
0.515882    [-8.83460809  0.6606553  -1.45687642]
-1.037471    [-9.91336479  1.15533581 -2.82898014]
0.50719    [-8.89915271  1.59383729 -4.26779342]
0.514071    [-14.69004779   0.66192854   3.1797209 ]
-1.03301    [-13.9755205   -0.83844608   3.90733349]
0.517099    [-13.82769709  -2.11850041   2.63034386]
0.510662    [13.54402868 -1.2027434   0.21934096]
-1.019305    [14.09300408 -0.25214873  1.66367096]
0.501734    [15.80584223  0.29120088  1.41457265]
0.517037    [14.16668686 -0.55019599 -3.22326821]
-1.007951    [15.84836491 -0.72262804 -2.56499814]
0.48223    [17.02232926 -0.88076726 -3.93900434]
Set gradient conv threshold to 3.16228e-05
Nelec from initial guess = 89.92607725607667
cond(S) = 975.7465179141642
E1 = -2235.2477338237923  E_coul = 897.5691549431871
init E= -683.663971384695
    CPU time for initialize scf      8.96 sec, wall time      1.12 sec
  HOMO = -0.433103552326726  LUMO = 0.0426133048029645
  mo_energy =
[-20.89594058 -20.8512982  -20.84283507 -20.82563394 -20.81128148
 -20.80997994 -20.79337289 -20.79275909 -20.77271295  -1.79366082
  -1.74167107  -1.67886693  -1.65477053  -1.63851419  -1.60872732
  -1.59647651  -1.57001155  -1.56625118  -0.87551942  -0.84757462
  -0.83144049  -0.81629217  -0.80258583  -0.80095635  -0.77559335
  -0.73069551  -0.71952274  -0.71505548  -0.6777147   -0.65224782
  -0.63402417  -0.62094816  -0.58562521  -0.56258056  -0.54150715
  -0.53512305  -0.53196243  -0.51939268  -0.51315457  -0.50667066
  -0.48290212  -0.47201059  -0.45986911  -0.45418584  -0.43310355
   0.0426133    0.09242953   0.13417736   0.14561729   0.16545899
   0.18902595   0.19816008   0.21350384   0.21815027   0.24534854
   0.25843711   0.2736032    0.28698476   0.30396488   0.31028545
   0.31585919   0.3347741    0.38081793   0.8211353    0.87277125
   0.87703871   0.88099529   0.89115723   0.90604932   0.93558755
   0.94361236   0.95210915   0.96570937   0.97969297   0.99564049
   1.00196145   1.00899668   1.0228993    1.04020322   1.04669702
   1.05596223   1.0681239    1.080277     1.08437378   1.09930396
   1.10874844   1.14059272   1.14952927   1.16950288   1.17705006
   1.18319047   1.19954155   1.20943238   1.22558188   1.24296437
   1.25827273   1.27032336   1.29899199   1.30850756   1.31546553
   1.3303355    1.33925679   1.35073677   1.36021328   1.38110611
   1.40724676   1.41605551   1.43766749   1.45384197   1.49541878
   1.50891755   1.55512934   1.57991823   1.62260393   1.67628058
   1.7285405    1.76362824   1.81832121   1.86061734   1.86184763
   1.87232528   1.88459821   1.88683614   1.8916463    1.89672304
   1.90534276   1.91669252   1.91908125   1.92709228   1.94245029
   1.95342775   1.96913801   1.97886257   1.99365489   2.00021987
   2.00633294   2.01776652   2.03396801   2.04413294   2.06836317
   2.09729715   2.10700065   2.22358089   2.27668872   2.4883964
   2.5046463    2.51637992   2.53584251   2.55269477   2.59626502
   2.60442332   2.63741927   2.66830484   2.74808022   2.82639335
   2.83244571   2.84799758   2.87692407   2.90663344   2.93802237
   2.94928883   3.01230569   3.89198365   3.90740017   3.94527759
   3.9868553    4.01972202   4.0899452    4.10489153   4.22415959
   4.30236073]
E1 = -2255.6312510014486  E_coul = 917.7226539647113
cycle= 1 E= -683.893989540827  delta_E= -0.23  |g|=  1.2  |ddm|= 3.68
    CPU time for cycle= 1      0.94 sec, wall time      0.12 sec
diis-norm(errvec)=2.24756
diis-c [-5.0515264  1.       ]
  HOMO = -0.393818683179283  LUMO = 0.141775745526997
  mo_energy =
[-20.48152524 -20.45020245 -20.40199758 -20.39258    -20.3558857
 -20.3148475  -20.31144349 -20.29955942 -20.29840125  -1.40006871
  -1.35107557  -1.34435905  -1.32563948  -1.29763274  -1.28080042
  -1.2616718   -1.25846075  -1.24394545  -0.80006961  -0.74499616
  -0.73976188  -0.7336725   -0.68672811  -0.68482275  -0.66489614
  -0.65894176  -0.64806957  -0.63071257  -0.58715795  -0.57157312
  -0.56663708  -0.54273448  -0.52999583  -0.52791195  -0.50327227
  -0.48642503  -0.4740499   -0.46447025  -0.45905388  -0.44614936
  -0.42866203  -0.42090383  -0.40759847  -0.40091884  -0.39381868
   0.14177575   0.22222002   0.23700675   0.2610965    0.27644708
   0.29236165   0.30907612   0.32159307   0.33300731   0.33731411
   0.35856346   0.37730924   0.38908777   0.41429002   0.42908426
   0.44681605   0.46742544   0.51220732   0.97275557   0.9787809
   0.99673859   1.00660716   1.01308572   1.02303494   1.04953864
   1.05925693   1.06365161   1.07776162   1.08454769   1.11606571
   1.12988667   1.13050506   1.15277745   1.15915447   1.17060936
   1.17630387   1.18904514   1.1919757    1.20572      1.22724706
   1.2428044    1.26572137   1.28013676   1.28473136   1.32372964
   1.34095387   1.35053061   1.36745816   1.38683307   1.40130542
   1.40273173   1.4204511    1.42955009   1.44817111   1.45997547
   1.48072366   1.49716023   1.51015809   1.51991098   1.52602368
   1.54839645   1.55389133   1.56743348   1.58514991   1.61222378
   1.62805781   1.67267149   1.74447295   1.75500137   1.8053049
   1.86891448   1.89308348   1.99313973   2.01302764   2.02702373
   2.03587174   2.04892498   2.05001352   2.05824503   2.06923869
   2.08705579   2.10363228   2.10488675   2.11117724   2.1201012
   2.12631464   2.13532674   2.14079839   2.15099469   2.15863085
   2.18262507   2.19290132   2.2053365    2.21647856   2.2186101
   2.24670822   2.28563653   2.34663375   2.40913049   2.55976421
   2.65556209   2.66066402   2.7007575    2.7175913    2.73574012
   2.74975933   2.76767745   2.8071421    2.96065422   2.9621564
   2.97793358   2.99550337   3.01196585   3.02903512   3.06088064
   3.08821548   3.108005     4.08428805   4.17260702   4.17543701
   4.1987363    4.23028609   4.27523338   4.29660696   4.45525899
   4.51494475]
E1 = -2243.4595811925483  E_coul = 905.3210092887006
cycle= 2 E= -684.123964407937  delta_E= -0.23  |g|= 0.567  |ddm|= 1.04
    CPU time for cycle= 2      0.96 sec, wall time      0.12 sec
diis-norm(errvec)=1.00244
diis-c [-0.33600708  0.27358679  0.72641321]
  HOMO = -0.478936038558683  LUMO = 0.148597254359813
  mo_energy =
[-20.64619161 -20.60872764 -20.60837569 -20.60557438 -20.60245586
 -20.59234413 -20.59210376 -20.58680197 -20.56712774  -1.4351233
  -1.39902312  -1.39496434  -1.38166221  -1.37118966  -1.36374912
  -1.35169131  -1.34546375  -1.33168824  -0.82248583  -0.7806835
  -0.77785841  -0.77385091  -0.75777109  -0.73941635  -0.72998825
  -0.72610887  -0.71016873  -0.67653789  -0.6548704   -0.63605795
  -0.61712483  -0.61642149  -0.60086136  -0.58204562  -0.56540166
  -0.55951024  -0.53988055  -0.53844146  -0.53273349  -0.52794102
  -0.52273093  -0.51024464  -0.49990025  -0.49046654  -0.47893604
   0.14859725   0.21769045   0.22759517   0.25022403   0.26063722
   0.28287122   0.29889201   0.30881591   0.3148122    0.32591051
   0.34712005   0.36450889   0.38030005   0.3927471    0.40406364
   0.41121321   0.43880155   0.48673792   0.94221627   0.95497031
   0.96954998   0.97778604   0.98216695   0.99737211   1.01842389
   1.0276709    1.03711135   1.0465317    1.0555729    1.0773672
   1.08046274   1.10332793   1.10708222   1.11394431   1.12877902
   1.1372226    1.14704744   1.14967136   1.15891949   1.18769467
   1.19046038   1.2268354    1.23755441   1.24844612   1.26372723
   1.29431091   1.29499096   1.31789236   1.33076231   1.3540274
   1.35731638   1.36899684   1.38871395   1.39838355   1.4137558
   1.42121697   1.44655005   1.4551448    1.457643     1.47924862
   1.50110995   1.50961958   1.5132327    1.52758999   1.56338732
   1.5832814    1.62904864   1.68773817   1.70819632   1.76127267
   1.82529893   1.84734768   1.95852249   1.97050563   1.98003446
   1.99061495   1.99194224   2.00372748   2.00632886   2.01683085
   2.02621537   2.03284443   2.04205242   2.04791746   2.05372682
   2.06016977   2.07092029   2.07166497   2.0947335    2.10861423
   2.12213305   2.1301716    2.15168939   2.15464375   2.16688362
   2.18568173   2.21246101   2.30341856   2.36440711   2.54076108
   2.61388333   2.62669449   2.65454668   2.6683981    2.68437216
   2.69468968   2.71649547   2.76128167   2.90759679   2.92533578
   2.93493868   2.95349106   2.95943579   2.99634672   3.0123093
   3.03510501   3.07193755   4.03092658   4.06896452   4.09044483
   4.11946386   4.14632034   4.20902241   4.21145182   4.36542509
   4.43343608]
E1 = -2248.831475921535  E_coul = 910.6379402193845
cycle= 3 E= -684.17892820624  delta_E= -0.055  |g|= 0.0933  |ddm|= 0.381
    CPU time for cycle= 3      0.94 sec, wall time      0.12 sec
diis-norm(errvec)=0.174555
diis-c [-0.01079902 -0.05418627  0.03085868  1.02332759]
  HOMO = -0.469799662603151  LUMO = 0.159039600038853
  mo_energy =
[-20.61809621 -20.58411353 -20.58128524 -20.57252639 -20.57158225
 -20.55801841 -20.55298312 -20.55065232 -20.53509703  -1.4198967
  -1.38527433  -1.38236     -1.36831298  -1.35881887  -1.35054717
  -1.33800304  -1.33084359  -1.3201249   -0.807899    -0.76865948
  -0.76595908  -0.76119044  -0.74707198  -0.72651233  -0.71842152
  -0.71405355  -0.69988392  -0.66446771  -0.64601453  -0.62471446
  -0.6075637   -0.60665878  -0.59070714  -0.57016832  -0.55491977
  -0.54819266  -0.52907047  -0.52853849  -0.52261114  -0.51774925
  -0.513183    -0.49992814  -0.48944133  -0.48019529  -0.46979966
   0.1590396    0.22506182   0.23484552   0.25697873   0.26680147
   0.29014408   0.30498506   0.31649211   0.32115882   0.33337268
   0.35520073   0.3727207    0.39004236   0.39998727   0.41006379
   0.41975375   0.44737149   0.49511228   0.95012674   0.96394861
   0.97501636   0.98642486   0.99190342   1.00594926   1.02533649
   1.03800545   1.04566457   1.05501062   1.06662765   1.08740562
   1.08916978   1.11382182   1.115955     1.12465819   1.13797284
   1.14715994   1.1561589    1.15952405   1.16979195   1.1979274
   1.19993826   1.23755503   1.24878673   1.25949452   1.27267382
   1.30353119   1.30619781   1.32958993   1.34247523   1.36421121
   1.36686509   1.37977787   1.3988125    1.40979691   1.42565496
   1.43262992   1.45743627   1.46494586   1.46813175   1.48820809
   1.51154901   1.52090115   1.52387398   1.53716457   1.57327465
   1.59275617   1.63909035   1.69635846   1.71840952   1.77145577
   1.83468048   1.85725694   1.97114708   1.98189777   1.99078159
   2.00096082   2.00369083   2.01481832   2.01723625   2.02764998
   2.03607097   2.04303376   2.05284668   2.05921259   2.06403211
   2.06993139   2.07976848   2.08267468   2.10494845   2.11905167
   2.13197459   2.14082585   2.16259624   2.16483245   2.17917176
   2.1962393    2.22127687   2.31325337   2.37389505   2.5542301
   2.62413964   2.6384016    2.66437172   2.67745112   2.6949325
   2.70508396   2.72648494   2.7713939    2.91690927   2.93632429
   2.94750323   2.96461319   2.97162575   3.00938905   3.0237323
   3.04468366   3.08392885   4.04493917   4.0834161    4.10292058
   4.13267785   4.15816922   4.22116287   4.22387047   4.37682758
   4.44487021]
E1 = -2248.198548659988  E_coul = 910.0029159426512
cycle= 4 E= -684.181025221426  delta_E= -0.0021  |g|= 0.0135  |ddm|= 0.0759
    CPU time for cycle= 4      0.94 sec, wall time      0.12 sec
diis-norm(errvec)=0.0271487
diis-c [-3.71977419e-04 -7.12675595e-03 -2.26018595e-02 -6.20265372e-02
  1.09175515e+00]
  HOMO = -0.47085511926964  LUMO = 0.158908915829568
  mo_energy =
[-20.61828216 -20.58223537 -20.58062246 -20.57559474 -20.57278082
 -20.55824297 -20.55725232 -20.55583464 -20.53630552  -1.42025247
  -1.38580753  -1.3828148   -1.36876241  -1.35953264  -1.35107344
  -1.33982112  -1.33233694  -1.32083476  -0.8078197   -0.76859642
  -0.76593781  -0.76127574  -0.74768052  -0.72726023  -0.71957939
  -0.71438107  -0.70003437  -0.66477444  -0.64647137  -0.62538593
  -0.60808025  -0.60661323  -0.5911982   -0.57086511  -0.55534536
  -0.54913902  -0.52984     -0.52952628  -0.52355205  -0.51850623
  -0.51449913  -0.50174295  -0.49117265  -0.48185736  -0.47085512
   0.15890892   0.224836     0.23473656   0.25685576   0.26663427
   0.2900667    0.30477428   0.31660035   0.32131697   0.33327813
   0.35499927   0.37276478   0.38964312   0.3997866    0.40986621
   0.41926193   0.44717507   0.49507008   0.94955836   0.96319145
   0.97441095   0.98604788   0.99139946   1.00544901   1.02496311
   1.03744327   1.04520723   1.05456744   1.06605831   1.08670498
   1.08870811   1.11301274   1.11541714   1.12434429   1.1373835
   1.14658426   1.15554139   1.15891793   1.1693085    1.1974511
   1.19968921   1.23697737   1.24849078   1.25911024   1.27207762
   1.30298632   1.30576855   1.32935072   1.34170972   1.36407623
   1.36660796   1.37925226   1.39827517   1.40904109   1.42479897
   1.43203178   1.45679671   1.46421085   1.46786983   1.4878204
   1.5114126    1.52059609   1.52314886   1.53665243   1.57268666
   1.5924235    1.63867834   1.69579622   1.7178633    1.77082249
   1.83403805   1.85699774   1.97085073   1.98144543   1.99027797
   2.00047812   2.00314196   2.01455636   2.01701073   2.02757422
   2.03520134   2.04239118   2.05192838   2.05812625   2.06351001
   2.06905495   2.07925615   2.08225345   2.1046296    2.11878047
   2.13150207   2.14022807   2.16186472   2.16415427   2.17864346
   2.19558321   2.22065738   2.31294      2.37369714   2.55418347
   2.62381698   2.63806037   2.66388091   2.67722594   2.69444698
   2.70452381   2.72615033   2.77114179   2.91627553   2.93628302
   2.94735488   2.96430767   2.97081201   3.00934616   3.02345914
   3.04447208   3.0839964    4.04460526   4.0819053    4.10187236
   4.132139     4.15771371   4.22111518   4.22341235   4.37647359
   4.44487495]
E1 = -2248.2177646023392  E_coul = 910.0220503583031
cycle= 5 E= -684.181106748126  delta_E= -8.15e-05  |g|= 0.00427  |ddm|= 0.0217
    CPU time for cycle= 5      0.92 sec, wall time      0.12 sec
diis-norm(errvec)=0.0076301
diis-c [-4.25563105e-05  1.00373095e-03 -2.34783580e-04 -3.48421961e-02
  4.01768089e-02  9.93896440e-01]
  HOMO = -0.471447445454004  LUMO = 0.158967038755333
  mo_energy =
[-20.61853625 -20.58409406 -20.58213688 -20.57412156 -20.57347107
 -20.55879623 -20.55613784 -20.55372471 -20.53669005  -1.42038265
  -1.38599085  -1.3829884   -1.36910002  -1.35950838  -1.35130413
  -1.33931081  -1.33200813  -1.32104504  -0.8078453   -0.76872246
  -0.76615065  -0.7613655   -0.74742302  -0.72698765  -0.71909892
  -0.7143604   -0.70019086  -0.66487667  -0.64662787  -0.62533765
  -0.60814896  -0.60690709  -0.59117639  -0.57103049  -0.55566652
  -0.54915799  -0.53000311  -0.52975269  -0.52375506  -0.51886993
  -0.51453712  -0.50160595  -0.4911727   -0.48198592  -0.47144745
   0.15896704   0.22482061   0.23468385   0.25679541   0.26659794
   0.29001437   0.30474461   0.31651529   0.3212294    0.33323813
   0.35506157   0.3727206    0.38963389   0.39978215   0.40989259
   0.41933019   0.4470735    0.494961     0.94948635   0.96320452
   0.97448333   0.98581869   0.99128492   1.00535348   1.02492615
   1.03747978   1.04512559   1.05451253   1.06592477   1.08673458
   1.08878654   1.11296642   1.11537774   1.12418204   1.13743406
   1.14661      1.1554751    1.15890907   1.16929524   1.19738291
   1.19942291   1.23688512   1.24827014   1.25898541   1.27211052
   1.30292068   1.30568395   1.32928738   1.34186778   1.36391724
   1.36651879   1.37928443   1.39819391   1.40898613   1.42479688
   1.43209184   1.45684029   1.46426116   1.46771578   1.48774121
   1.51118109   1.52041653   1.52317329   1.53659049   1.5726067
   1.59218264   1.63850063   1.69570952   1.71767413   1.77076875
   1.83392014   1.85677731   1.97071031   1.98133639   1.99026087
   2.00046547   2.00309914   2.01438842   2.0167485    2.02737042
   2.03537422   2.04242417   2.05207377   2.0584154    2.06342191
   2.06917005   2.07903693   2.0821223    2.10441523   2.11856356
   2.13136641   2.14020389   2.16186601   2.16409374   2.17850539
   2.19546028   2.22063424   2.31267823   2.37337205   2.55411827
   2.6237723    2.63797133   2.66392339   2.67697737   2.69439907
   2.70457136   2.72611651   2.77095274   2.91650943   2.93601874
   2.94722888   2.96429594   2.97109483   3.00922638   3.02341255
   3.04426578   3.08372877   4.04448265   4.08245726   4.10221014
   4.13201206   4.15765727   4.22070428   4.2232896    4.37618687
   4.44440565]
E1 = -2248.2169135701683  E_coul = 910.0211927473617
cycle= 6 E= -684.181113326896  delta_E= -6.58e-06  |g|= 0.00181  |ddm|= 0.00617
    CPU time for cycle= 6      0.95 sec, wall time      0.12 sec
diis-norm(errvec)=0.00331176
diis-c [-2.77166809e-06  1.13459239e-03  3.53344019e-03 -5.85306113e-04
 -1.37470562e-01  2.18267096e-01  9.15120740e-01]
  HOMO = -0.47138891465743  LUMO = 0.159042137763759
  mo_energy =
[-20.61828196 -20.58319615 -20.58136455 -20.57448652 -20.57304536
 -20.55806664 -20.55674623 -20.55432007 -20.53646158  -1.42024777
  -1.38585484  -1.38286321  -1.36890288  -1.35946776  -1.35116037
  -1.33947626  -1.33208887  -1.32097762  -0.80769015  -0.76855317
  -0.76593567  -0.76118312  -0.74742546  -0.72696998  -0.71918049
  -0.71422802  -0.70004077  -0.66477957  -0.64658748  -0.62533221
  -0.60811861  -0.6067801   -0.59116045  -0.57098847  -0.55555171
  -0.54918068  -0.52996878  -0.52971807  -0.52372784  -0.51879788
  -0.51463524  -0.50177497  -0.49130159  -0.48207321  -0.47138891
   0.15904214   0.22484675   0.23472003   0.25683458   0.26661854
   0.29003875   0.30474333   0.31653935   0.32127651   0.33327521
   0.3550864    0.37279798   0.38973219   0.3998093    0.40988354
   0.41936413   0.4471542    0.49506056   0.94950023   0.9632052
   0.97442087   0.98588538   0.99134263   1.00538744   1.02492941
   1.03748512   1.04514696   1.05451018   1.06597463   1.0866893
   1.08874996   1.11297296   1.11536516   1.1242576    1.1373923
   1.14656592   1.15549046   1.15891983   1.1693177    1.19741091
   1.19951349   1.23693776   1.24837484   1.25904663   1.27207678
   1.30293026   1.30576475   1.32935427   1.34184646   1.36398066
   1.36657759   1.37928819   1.39827208   1.40904987   1.42483933
   1.43211444   1.45685286   1.4642427    1.46781826   1.48778103
   1.51132107   1.52054085   1.52320594   1.53662088   1.57266342
   1.59229124   1.6385946    1.69574187   1.71778069   1.77081537
   1.83397287   1.85688158   1.97080682   1.98139307   1.99027619
   2.00046843   2.00314134   2.01447098   2.01687152   2.02746014
   2.03530282   2.04240974   2.05201913   2.05830254   2.06346515
   2.06910958   2.07907834   2.08219243   2.10450595   2.1186584
   2.13140738   2.1402182    2.16186986   2.16411179   2.17860943
   2.19551048   2.22062105   2.31279755   2.37350914   2.55420742
   2.62378907   2.63803607   2.66390418   2.67703456   2.69442419
   2.70455111   2.72612756   2.77102221   2.91640679   2.93613864
   2.9473105    2.96430981   2.97098663   3.00931982   3.02344685
   3.04430498   3.08387304   4.04458484   4.08226012   4.10210461
   4.13209313   4.15770324   4.22090023   4.22336036   4.3762814
   4.44459119]
E1 = -2248.2108958270305  E_coul = 910.0151738681424
cycle= 7 E= -684.181114462978  delta_E= -1.14e-06  |g|= 0.00033  |ddm|= 0.00256
    CPU time for cycle= 7      0.92 sec, wall time      0.12 sec
diis-norm(errvec)=0.000573992
diis-c [-1.50579716e-07 -1.59276418e-04 -2.41930958e-04  1.18908107e-03
  1.12842992e-02 -7.88938479e-02 -8.81737135e-02  1.15499539e+00]
  HOMO = -0.47142900831557  LUMO = 0.159039086247808
  mo_energy =
[-20.61823257 -20.58328762 -20.58144224 -20.57445702 -20.5730508
 -20.55809997 -20.55668616 -20.55426452 -20.53644254  -1.42024909
  -1.38586958  -1.38288539  -1.36892769  -1.35948201  -1.3511806
  -1.33947228  -1.33209356  -1.32098457  -0.80768077  -0.76855888
  -0.76594727  -0.76118722  -0.74741961  -0.72696459  -0.71916945
  -0.71422674  -0.70003785  -0.66478296  -0.64660517  -0.62534207
  -0.60813707  -0.6068019   -0.5911684   -0.57100372  -0.55557298
  -0.54919478  -0.52999009  -0.52974781  -0.52375481  -0.51883255
  -0.51466575  -0.50179594  -0.49132317  -0.48210179  -0.47142901
   0.15903909   0.22484049   0.23471845   0.25683162   0.26661523
   0.29003396   0.30474129   0.31653987   0.32127851   0.33327054
   0.35508108   0.37279247   0.38971204   0.39980226   0.40987991
   0.41935538   0.44714488   0.49505028   0.94948658   0.96319073
   0.9744143    0.98587172   0.99133149   1.00537381   1.02491955
   1.03747954   1.04513652   1.05450494   1.06596226   1.08668205
   1.08874941   1.1129599    1.11535904   1.12424494   1.13739236
   1.14656362   1.15547607   1.15891313   1.16931546   1.19740763
   1.19950115   1.23692694   1.24836445   1.25903868   1.27207148
   1.30292086   1.30575784   1.3293545    1.34184989   1.36397921
   1.36657362   1.37928861   1.39825672   1.40903902   1.42483214
   1.43211437   1.45685003   1.46423632   1.46780753   1.48777734
   1.51130806   1.5205358    1.52320029   1.53661215   1.57265491
   1.59227818   1.63858284   1.69572767   1.71776857   1.77080551
   1.83396117   1.85686558   1.97079915   1.98137793   1.99026245
   2.00045629   2.00313281   2.01445918   2.01685433   2.02744314
   2.03529529   2.04240001   2.05201055   2.05830064   2.06345006
   2.06910506   2.07906703   2.08217896   2.10448704   2.11864142
   2.13139197   2.14020402   2.161858     2.16409923   2.17859533
   2.19549524   2.22061143   2.31278005   2.37349066   2.55420729
   2.62377671   2.6380237    2.66389385   2.67702311   2.69441087
   2.70454045   2.726115     2.77100662   2.91640271   2.9361175
   2.94730021   2.96429998   2.97098562   3.00931354   3.02343486
   3.04429796   3.08385568   4.04458445   4.08226649   4.10210418
   4.13208337   4.15768903   4.22087379   4.22334673   4.37627192
   4.44457158]
E1 = -2248.210729181508  E_coul = 910.0150071630883
cycle= 8 E= -684.18111452251  delta_E= -5.95e-08  |g|= 7.02e-05  |ddm|= 0.000668
    CPU time for cycle= 8      0.92 sec, wall time      0.12 sec
diis-norm(errvec)=0.000127786
diis-c [-7.23301627e-09 -6.98395023e-05 -2.10803357e-04  1.92012335e-05
  8.49454448e-03 -1.49586197e-02 -5.48452161e-02  1.03357986e-02
  1.05123493e+00]
  HOMO = -0.471433450943211  LUMO = 0.159041876063971
  mo_energy =
[-20.61825747 -20.58325327 -20.58141462 -20.57444018 -20.57305475
 -20.55810319 -20.55668115 -20.55425746 -20.53645223  -1.4202519
  -1.38586667  -1.3828768   -1.36892371  -1.359474    -1.3511786
  -1.33947081  -1.33209121  -1.32098613  -0.80768054  -0.76855128
  -0.76593894  -0.76118219  -0.7474119   -0.72696093  -0.71916475
  -0.71422147  -0.70003354  -0.66478232  -0.64660027  -0.62533992
  -0.60812908  -0.60679495  -0.59116208  -0.57100683  -0.55557113
  -0.54919632  -0.52998794  -0.5297437   -0.52375174  -0.51882972
  -0.51466372  -0.50179628  -0.49132489  -0.48210154  -0.47143345
   0.15904188   0.22484261   0.23471962   0.25683253   0.26661674
   0.29003472   0.30474196   0.31653966   0.32127844   0.33327194
   0.35508298   0.37279515   0.38972003   0.39980753   0.40988292
   0.41936      0.44714909   0.49505465   0.94948974   0.96319467
   0.97441629   0.98587338   0.99133409   1.00537649   1.02492336
   1.03748152   1.04513856   1.05450524   1.06596316   1.08668325
   1.08875054   1.11296243   1.11536071   1.12424754   1.13739294
   1.14656351   1.15547792   1.1589151    1.16931664   1.19740743
   1.19950106   1.23692916   1.24836658   1.25904177   1.272073
   1.30292237   1.30576136   1.32935724   1.34185226   1.36397961
   1.3665765    1.37928992   1.39826046   1.40904366   1.42483536
   1.43211747   1.45685311   1.46423902   1.46781099   1.4877796
   1.51131333   1.52053873   1.52320405   1.53661381   1.5726589
   1.59228178   1.63858687   1.69573189   1.71777149   1.77080892
   1.83396435   1.85686936   1.97079971   1.9813816    1.99026832
   2.00046181   2.00313423   2.01446034   2.01685688   2.02744905
   2.03529914   2.04240315   2.05201364   2.05830218   2.06345411
   2.06910603   2.07906698   2.08218142   2.10449042   2.11864553
   2.13139557   2.14020687   2.16186164   2.16410142   2.17859711
   2.19549722   2.22061369   2.31278342   2.37349344   2.55420666
   2.62378159   2.6380262    2.66389828   2.67702316   2.69441456
   2.70454339   2.72612047   2.7710088    2.91640725   2.93612308
   2.94730217   2.964305     2.9709873    3.00931498   3.02344076
   3.04429762   3.08385913   4.04458241   4.08226804   4.10210837
   4.13208332   4.15769596   4.22088217   4.22335227   4.37627078
   4.44457138]
E1 = -2248.2106245281607  E_coul = 910.0149025073553
cycle= 9 E= -684.181114524895  delta_E= -2.39e-09  |g|= 2.23e-05  |ddm|= 0.000135
    CPU time for cycle= 9      0.96 sec, wall time      0.12 sec
diis-norm(errvec)=3.91347e-05
diis-c [-1.05426845e-09  8.90313687e-01 -1.70195850e-05 -5.54664853e-05
  5.42853631e-04  1.56463585e-03 -2.14613806e-03 -5.07407494e-02
  1.60538197e-01]
  HOMO = -0.47143109638088  LUMO = 0.159042197692058
  mo_energy =
[-20.61824447 -20.58326569 -20.58142272 -20.57444662 -20.57305008
 -20.55809677 -20.55668269 -20.55426099 -20.53644566  -1.42024908
  -1.38586636  -1.38287909  -1.36892342  -1.35947645  -1.35117783
  -1.33947072  -1.33209166  -1.32098455  -0.80767887  -0.76855221
  -0.76593948  -0.76118129  -0.747413    -0.72696084  -0.71916464
  -0.71422113  -0.70003321  -0.66477916  -0.64660023  -0.62533887
  -0.60813029  -0.60679644  -0.59116248  -0.57100475  -0.55556972
  -0.54919502  -0.52998759  -0.52974453  -0.52375199  -0.51883028
  -0.5146655   -0.50179652  -0.49132411  -0.48210174  -0.4714311
   0.1590422    0.22484254   0.2347195    0.25683261   0.26661672
   0.29003492   0.30474208   0.31653969   0.32127824   0.33327203
   0.35508301   0.37279528   0.3897198    0.3998071    0.40988279
   0.41936013   0.44714919   0.49505504   0.94949011   0.96319463
   0.9744165    0.98587409   0.99133455   1.00537689   1.02492306
   1.03748172   1.04513844   1.05450547   1.06596355   1.08668354
   1.08875066   1.11296225   1.11536054   1.12424685   1.13739278
   1.14656328   1.15547799   1.15891508   1.16931645   1.19740831
   1.1995019    1.23692929   1.24836665   1.25904072   1.27207267
   1.30292266   1.30576109   1.32935721   1.34185197   1.36397984
   1.36657607   1.37928976   1.3982613    1.40904311   1.4248356
   1.43211764   1.4568531    1.46423904   1.46781108   1.48777963
   1.51131285   1.52053923   1.52320428   1.53661413   1.57265871
   1.59228168   1.63858683   1.69573154   1.71777278   1.77080911
   1.83396449   1.85686921   1.97080146   1.98138121   1.99026705
   2.00046065   2.00313491   2.01446146   2.01685761   2.02744777
   2.03529846   2.04240297   2.05201329   2.05830206   2.06345379
   2.06910666   2.07906809   2.0821819    2.10449073   2.11864524
   2.13139531   2.14020686   2.16186117   2.16410171   2.17859872
   2.19549797   2.22061394   2.3127838    2.37349403   2.55420886
   2.62378078   2.63802696   2.66389774   2.67702446   2.69441444
   2.70454318   2.72611935   2.77100953   2.91640655   2.93612259
   2.94730314   2.96430431   2.9709869    3.00931621   3.02343974
   3.04429884   3.08385992   4.04458504   4.0822672    4.10210745
   4.13208494   4.15769398   4.22087989   4.22335104   4.37627258
   4.44457305]
E1 = -2248.2106357086295  E_coul = 910.0149136876594
cycle= 10 E= -684.18111452506  delta_E= -1.65e-10  |g|= 8.07e-06  |ddm|= 2.83e-05
    CPU time for cycle= 10      0.93 sec, wall time      0.12 sec
  HOMO = -0.471432060130428  LUMO = 0.159041744076549
  mo_energy =
[-20.61825012 -20.5832621  -20.58142077 -20.57444436 -20.57305265
 -20.55810041 -20.55668211 -20.55426001 -20.536449    -1.42025061
  -1.38586681  -1.38287845  -1.36892391  -1.35947563  -1.35117849
  -1.33947065  -1.33209167  -1.3209853   -0.80768016  -0.76855218
  -0.76593967  -0.76118206  -0.74741249  -0.72696122  -0.71916453
  -0.71422166  -0.70003366  -0.66478036  -0.6466001   -0.62533929
  -0.60812961  -0.60679611  -0.59116216  -0.57100595  -0.55557035
  -0.54919573  -0.52998776  -0.52974433  -0.52375197  -0.51883029
  -0.51466509  -0.5017964   -0.49132431  -0.48210165  -0.47143206
   0.15904174   0.22484247   0.23471948   0.25683253   0.26661679
   0.29003477   0.30474211   0.3165396    0.32127813   0.3332718
   0.35508261   0.37279492   0.38971953   0.3998073    0.40988295
   0.41935996   0.44714885   0.49505462   0.94948989   0.96319446
   0.97441654   0.98587364   0.99133417   1.00537657   1.02492321
   1.03748148   1.04513829   1.05450525   1.06596318   1.08668353
   1.08875066   1.1129623    1.11536062   1.12424683   1.13739285
   1.14656332   1.15547773   1.15891496   1.16931632   1.19740781
   1.19950131   1.23692907   1.24836632   1.25904096   1.27207275
   1.30292248   1.30576089   1.32935698   1.34185194   1.36397955
   1.36657603   1.37928963   1.39826068   1.40904314   1.42483531
   1.43211735   1.45685293   1.46423894   1.4678107    1.48777959
   1.51131273   1.5205388    1.52320404   1.53661385   1.57265864
   1.59228151   1.63858665   1.69573152   1.71777209   1.77080887
   1.83396427   1.85686899   1.9708005    1.98138115   1.99026747
   2.00046106   2.00313441   2.01446079   2.01685708   2.02744803
   2.03529877   2.042403     2.05201339   2.05830208   2.06345382
   2.06910647   2.07906763   2.08218152   2.1044904    2.11864514
   2.13139529   2.14020671   2.16186124   2.16410149   2.1785978
   2.19549754   2.22061389   2.31278337   2.37349349   2.55420761
   2.62378103   2.63802644   2.66389798   2.67702386   2.69441436
   2.70454316   2.72611974   2.77100908   2.91640705   2.93612256
   2.94730254   2.96430454   2.97098694   3.00931542   3.02344005
   3.04429829   3.08385928   4.04458363   4.08226738   4.10210776
   4.13208407   4.15769455   4.22088038   4.22335125   4.3762717
   4.44457207]
E1 = -2248.210651519772  E_coul = 910.0149294987764
Extra cycle  E= -684.181114525085  delta_E= -2.55e-11  |g|= 4.17e-06  |ddm|= 1.1e-05
    CPU time for scf_cycle     19.32 sec, wall time      2.42 sec
    CPU time for SCF     19.38 sec, wall time      2.42 sec
converged SCF energy = -684.181114525085
