Atom number=24                                                          
SP        RHF                                                         6-31G(d)            
Number of atoms                            I               24
Info1-9                                    I   N=           9
          68          67           0           0           0         111
           1           1           2
Full Title                                 C   N=           2
Atom number=24          
Route                                      C   N=           4
#p hf/6-31g(d) pop=npa charge nosymm Guess=read 
Charge                                     I                0
Multiplicity                               I                1
Number of electrons                        I               80
Number of alpha electrons                  I               40
Number of beta electrons                   I               40
Number of basis functions                  I              152
Number of independent functions            I              152
Number of point charges in /Mol/           I                0
Number of translation vectors              I                0
Atomic numbers                             I   N=          24
           8           8           8           8           8           8
           8           8           1           1           1           1
           1           1           1           1           1           1
           1           1           1           1           1           1
Nuclear charges                            R   N=          24
  8.00000000E+00  8.00000000E+00  8.00000000E+00  8.00000000E+00  8.00000000E+00
  8.00000000E+00  8.00000000E+00  8.00000000E+00  1.00000000E+00  1.00000000E+00
  1.00000000E+00  1.00000000E+00  1.00000000E+00  1.00000000E+00  1.00000000E+00
  1.00000000E+00  1.00000000E+00  1.00000000E+00  1.00000000E+00  1.00000000E+00
  1.00000000E+00  1.00000000E+00  1.00000000E+00  1.00000000E+00
Current cartesian coordinates              R   N=          72
  3.86679125E+00  2.29232814E+00 -5.19291202E-01  2.32537453E+00 -2.46656776E+00
 -1.49339407E+00  4.96184321E+00  1.86673156E-01  3.55783101E+00  7.07839516E+00
 -1.97761385E+00 -5.72373590E-01  1.09162888E+01  3.76870179E-01 -1.86321262E+00
  8.19009517E+00  2.90000336E+00  1.06086547E+00  1.40930041E+01 -2.52148727E-01
  1.66367096E+00  1.58483649E+01 -7.22628039E-01 -2.56499814E+00  5.35471445E+00
  1.25778835E+00 -6.02389471E-01  3.07976443E+00  2.09050756E+00  1.10272933E+00
  7.22840011E+00 -1.00457580E+00  9.51368142E-01  8.70257401E+00 -2.64752580E+00
 -1.02442932E+00  9.15526977E+00  6.27707738E-01 -2.21956363E+00  1.14606477E+01
  1.58513319E+00 -6.24315056E-01  7.74046069E+00  2.27469652E+00  2.70339813E+00
  6.98819787E+00  4.15595658E+00  5.42099837E-01  2.71309104E+00 -1.12556550E+00
 -3.34738735E-01  3.86539913E+00 -3.23887304E+00 -2.06169160E+00  6.26039860E+00
 -7.28718720E-01  4.43356213E+00  3.33808804E+00 -4.80360236E-01  4.01562894E+00
  1.35440287E+01 -1.20274340E+00  2.19340965E-01  1.58058422E+01  2.91200881E-01
  1.41457265E+00  1.41666869E+01 -5.50195991E-01 -3.22326821E+00  1.70223293E+01
 -8.80767256E-01 -3.93900434E+00
Number of symbols in /Mol/                 I                0
Force Field                                I                0
Atom Types                                 C   N=          24
                                                            
                                                            
                                                            
                                                            
                                                
Int Atom Types                             I   N=          24
           0           0           0           0           0           0
           0           0           0           0           0           0
           0           0           0           0           0           0
           0           0           0           0           0           0
MM charges                                 R   N=          24
  0.00000000E+00  0.00000000E+00  0.00000000E+00  0.00000000E+00  0.00000000E+00
  0.00000000E+00  0.00000000E+00  0.00000000E+00  0.00000000E+00  0.00000000E+00
  0.00000000E+00  0.00000000E+00  0.00000000E+00  0.00000000E+00  0.00000000E+00
  0.00000000E+00  0.00000000E+00  0.00000000E+00  0.00000000E+00  0.00000000E+00
  0.00000000E+00  0.00000000E+00  0.00000000E+00  0.00000000E+00
Integer atomic weights                     I   N=          24
          16          16          16          16          16          16
          16          16           1           1           1           1
           1           1           1           1           1           1
           1           1           1           1           1           1
Real atomic weights                        R   N=          24
  1.59949146E+01  1.59949146E+01  1.59949146E+01  1.59949146E+01  1.59949146E+01
  1.59949146E+01  1.59949146E+01  1.59949146E+01  1.00782504E+00  1.00782504E+00
  1.00782504E+00  1.00782504E+00  1.00782504E+00  1.00782504E+00  1.00782504E+00
  1.00782504E+00  1.00782504E+00  1.00782504E+00  1.00782504E+00  1.00782504E+00
  1.00782504E+00  1.00782504E+00  1.00782504E+00  1.00782504E+00
Atom fragment info                         I   N=          24
           0           0           0           0           0           0
           0           0           0           0           0           0
           0           0           0           0           0           0
           0           0           0           0           0           0
Atom residue num                           I   N=          24
           0           0           0           0           0           0
           0           0           0           0           0           0
           0           0           0           0           0           0
           0           0           0           0           0           0
Nuclear spins                              I   N=          24
           0           0           0           0           0           0
           0           0           1           1           1           1
           1           1           1           1           1           1
           1           1           1           1           1           1
Nuclear ZEff                               R   N=          24
 -5.60000000E+00 -5.60000000E+00 -5.60000000E+00 -5.60000000E+00 -5.60000000E+00
 -5.60000000E+00 -5.60000000E+00 -5.60000000E+00 -1.00000000E+00 -1.00000000E+00
 -1.00000000E+00 -1.00000000E+00 -1.00000000E+00 -1.00000000E+00 -1.00000000E+00
 -1.00000000E+00 -1.00000000E+00 -1.00000000E+00 -1.00000000E+00 -1.00000000E+00
 -1.00000000E+00 -1.00000000E+00 -1.00000000E+00 -1.00000000E+00
Nuclear ZNuc                               R   N=          24
  8.00000000E+00  8.00000000E+00  8.00000000E+00  8.00000000E+00  8.00000000E+00
  8.00000000E+00  8.00000000E+00  8.00000000E+00  1.00000000E+00  1.00000000E+00
  1.00000000E+00  1.00000000E+00  1.00000000E+00  1.00000000E+00  1.00000000E+00
  1.00000000E+00  1.00000000E+00  1.00000000E+00  1.00000000E+00  1.00000000E+00
  1.00000000E+00  1.00000000E+00  1.00000000E+00  1.00000000E+00
Nuclear QMom                               R   N=          24
  0.00000000E+00  0.00000000E+00  0.00000000E+00  0.00000000E+00  0.00000000E+00
  0.00000000E+00  0.00000000E+00  0.00000000E+00  0.00000000E+00  0.00000000E+00
  0.00000000E+00  0.00000000E+00  0.00000000E+00  0.00000000E+00  0.00000000E+00
  0.00000000E+00  0.00000000E+00  0.00000000E+00  0.00000000E+00  0.00000000E+00
  0.00000000E+00  0.00000000E+00  0.00000000E+00  0.00000000E+00
Nuclear GFac                               R   N=          24
  0.00000000E+00  0.00000000E+00  0.00000000E+00  0.00000000E+00  0.00000000E+00
  0.00000000E+00  0.00000000E+00  0.00000000E+00  2.79284600E+00  2.79284600E+00
  2.79284600E+00  2.79284600E+00  2.79284600E+00  2.79284600E+00  2.79284600E+00
  2.79284600E+00  2.79284600E+00  2.79284600E+00  2.79284600E+00  2.79284600E+00
  2.79284600E+00  2.79284600E+00  2.79284600E+00  2.79284600E+00
MicOpt                                     I   N=          24
          -1          -1          -1          -1          -1          -1
          -1          -1          -1          -1          -1          -1
          -1          -1          -1          -1          -1          -1
          -1          -1          -1          -1          -1          -1
Number of residues                         I                0
Number of secondary structures             I                0
Number of contracted shells                I               64
Number of primitive shells                 I              152
Pure/Cartesian d shells                    I                1
Pure/Cartesian f shells                    I                0
Highest angular momentum                   I                2
Largest degree of contraction              I                6
Shell types                                I   N=          64
           0          -1          -1           2           0          -1
          -1           2           0          -1          -1           2
           0          -1          -1           2           0          -1
          -1           2           0          -1          -1           2
           0          -1          -1           2           0          -1
          -1           2           0           0           0           0
           0           0           0           0           0           0
           0           0           0           0           0           0
           0           0           0           0           0           0
           0           0           0           0           0           0
           0           0           0           0
Number of primitives per shell             I   N=          64
           6           3           1           1           6           3
           1           1           6           3           1           1
           6           3           1           1           6           3
           1           1           6           3           1           1
           6           3           1           1           6           3
           1           1           3           1           3           1
           3           1           3           1           3           1
           3           1           3           1           3           1
           3           1           3           1           3           1
           3           1           3           1           3           1
           3           1           3           1
Shell to atom map                          I   N=          64
           1           1           1           1           2           2
           2           2           3           3           3           3
           4           4           4           4           5           5
           5           5           6           6           6           6
           7           7           7           7           8           8
           8           8           9           9          10          10
          11          11          12          12          13          13
          14          14          15          15          16          16
          17          17          18          18          19          19
          20          20          21          21          22          22
          23          23          24          24
Primitive exponents                        R   N=         152
  5.48467166E+03  8.25234946E+02  1.88046958E+02  5.29645000E+01  1.68975704E+01
  5.79963534E+00  1.55396162E+01  3.59993359E+00  1.01376175E+00  2.70005823E-01
  8.00000000E-01  5.48467166E+03  8.25234946E+02  1.88046958E+02  5.29645000E+01
  1.68975704E+01  5.79963534E+00  1.55396162E+01  3.59993359E+00  1.01376175E+00
  2.70005823E-01  8.00000000E-01  5.48467166E+03  8.25234946E+02  1.88046958E+02
  5.29645000E+01  1.68975704E+01  5.79963534E+00  1.55396162E+01  3.59993359E+00
  1.01376175E+00  2.70005823E-01  8.00000000E-01  5.48467166E+03  8.25234946E+02
  1.88046958E+02  5.29645000E+01  1.68975704E+01  5.79963534E+00  1.55396162E+01
  3.59993359E+00  1.01376175E+00  2.70005823E-01  8.00000000E-01  5.48467166E+03
  8.25234946E+02  1.88046958E+02  5.29645000E+01  1.68975704E+01  5.79963534E+00
  1.55396162E+01  3.59993359E+00  1.01376175E+00  2.70005823E-01  8.00000000E-01
  5.48467166E+03  8.25234946E+02  1.88046958E+02  5.29645000E+01  1.68975704E+01
  5.79963534E+00  1.55396162E+01  3.59993359E+00  1.01376175E+00  2.70005823E-01
  8.00000000E-01  5.48467166E+03  8.25234946E+02  1.88046958E+02  5.29645000E+01
  1.68975704E+01  5.79963534E+00  1.55396162E+01  3.59993359E+00  1.01376175E+00
  2.70005823E-01  8.00000000E-01  5.48467166E+03  8.25234946E+02  1.88046958E+02
  5.29645000E+01  1.68975704E+01  5.79963534E+00  1.55396162E+01  3.59993359E+00
  1.01376175E+00  2.70005823E-01  8.00000000E-01  1.87311370E+01  2.82539436E+00
  6.40121692E-01  1.61277759E-01  1.87311370E+01  2.82539436E+00  6.40121692E-01
  1.61277759E-01  1.87311370E+01  2.82539436E+00  6.40121692E-01  1.61277759E-01
  1.87311370E+01  2.82539436E+00  6.40121692E-01  1.61277759E-01  1.87311370E+01
  2.82539436E+00  6.40121692E-01  1.61277759E-01  1.87311370E+01  2.82539436E+00
  6.40121692E-01  1.61277759E-01  1.87311370E+01  2.82539436E+00  6.40121692E-01
  1.61277759E-01  1.87311370E+01  2.82539436E+00  6.40121692E-01  1.61277759E-01
  1.87311370E+01  2.82539436E+00  6.40121692E-01  1.61277759E-01  1.87311370E+01
  2.82539436E+00  6.40121692E-01  1.61277759E-01  1.87311370E+01  2.82539436E+00
  6.40121692E-01  1.61277759E-01  1.87311370E+01  2.82539436E+00  6.40121692E-01
  1.61277759E-01  1.87311370E+01  2.82539436E+00  6.40121692E-01  1.61277759E-01
  1.87311370E+01  2.82539436E+00  6.40121692E-01  1.61277759E-01  1.87311370E+01
  2.82539436E+00  6.40121692E-01  1.61277759E-01  1.87311370E+01  2.82539436E+00
  6.40121692E-01  1.61277759E-01
Contraction coefficients                   R   N=         152
  1.83107443E-03  1.39501722E-02  6.84450781E-02  2.32714336E-01  4.70192898E-01
  3.58520853E-01 -1.10777550E-01 -1.48026263E-01  1.13076702E+00  1.00000000E+00
  1.00000000E+00  1.83107443E-03  1.39501722E-02  6.84450781E-02  2.32714336E-01
  4.70192898E-01  3.58520853E-01 -1.10777550E-01 -1.48026263E-01  1.13076702E+00
  1.00000000E+00  1.00000000E+00  1.83107443E-03  1.39501722E-02  6.84450781E-02
  2.32714336E-01  4.70192898E-01  3.58520853E-01 -1.10777550E-01 -1.48026263E-01
  1.13076702E+00  1.00000000E+00  1.00000000E+00  1.83107443E-03  1.39501722E-02
  6.84450781E-02  2.32714336E-01  4.70192898E-01  3.58520853E-01 -1.10777550E-01
 -1.48026263E-01  1.13076702E+00  1.00000000E+00  1.00000000E+00  1.83107443E-03
  1.39501722E-02  6.84450781E-02  2.32714336E-01  4.70192898E-01  3.58520853E-01
 -1.10777550E-01 -1.48026263E-01  1.13076702E+00  1.00000000E+00  1.00000000E+00
  1.83107443E-03  1.39501722E-02  6.84450781E-02  2.32714336E-01  4.70192898E-01
  3.58520853E-01 -1.10777550E-01 -1.48026263E-01  1.13076702E+00  1.00000000E+00
  1.00000000E+00  1.83107443E-03  1.39501722E-02  6.84450781E-02  2.32714336E-01
  4.70192898E-01  3.58520853E-01 -1.10777550E-01 -1.48026263E-01  1.13076702E+00
  1.00000000E+00  1.00000000E+00  1.83107443E-03  1.39501722E-02  6.84450781E-02
  2.32714336E-01  4.70192898E-01  3.58520853E-01 -1.10777550E-01 -1.48026263E-01
  1.13076702E+00  1.00000000E+00  1.00000000E+00  3.34946043E-02  2.34726953E-01
  8.13757326E-01  1.00000000E+00  3.34946043E-02  2.34726953E-01  8.13757326E-01
  1.00000000E+00  3.34946043E-02  2.34726953E-01  8.13757326E-01  1.00000000E+00
  3.34946043E-02  2.34726953E-01  8.13757326E-01  1.00000000E+00  3.34946043E-02
  2.34726953E-01  8.13757326E-01  1.00000000E+00  3.34946043E-02  2.34726953E-01
  8.13757326E-01  1.00000000E+00  3.34946043E-02  2.34726953E-01  8.13757326E-01
  1.00000000E+00  3.34946043E-02  2.34726953E-01  8.13757326E-01  1.00000000E+00
  3.34946043E-02  2.34726953E-01  8.13757326E-01  1.00000000E+00  3.34946043E-02
  2.34726953E-01  8.13757326E-01  1.00000000E+00  3.34946043E-02  2.34726953E-01
  8.13757326E-01  1.00000000E+00  3.34946043E-02  2.34726953E-01  8.13757326E-01
  1.00000000E+00  3.34946043E-02  2.34726953E-01  8.13757326E-01  1.00000000E+00
  3.34946043E-02  2.34726953E-01  8.13757326E-01  1.00000000E+00  3.34946043E-02
  2.34726953E-01  8.13757326E-01  1.00000000E+00  3.34946043E-02  2.34726953E-01
  8.13757326E-01  1.00000000E+00
P(S=P) Contraction coefficients            R   N=         152
  0.00000000E+00  0.00000000E+00  0.00000000E+00  0.00000000E+00  0.00000000E+00
  0.00000000E+00  7.08742682E-02  3.39752839E-01  7.27158577E-01  1.00000000E+00
  0.00000000E+00  0.00000000E+00  0.00000000E+00  0.00000000E+00  0.00000000E+00
  0.00000000E+00  0.00000000E+00  7.08742682E-02  3.39752839E-01  7.27158577E-01
  1.00000000E+00  0.00000000E+00  0.00000000E+00  0.00000000E+00  0.00000000E+00
  0.00000000E+00  0.00000000E+00  0.00000000E+00  7.08742682E-02  3.39752839E-01
  7.27158577E-01  1.00000000E+00  0.00000000E+00  0.00000000E+00  0.00000000E+00
  0.00000000E+00  0.00000000E+00  0.00000000E+00  0.00000000E+00  7.08742682E-02
  3.39752839E-01  7.27158577E-01  1.00000000E+00  0.00000000E+00  0.00000000E+00
  0.00000000E+00  0.00000000E+00  0.00000000E+00  0.00000000E+00  0.00000000E+00
  7.08742682E-02  3.39752839E-01  7.27158577E-01  1.00000000E+00  0.00000000E+00
  0.00000000E+00  0.00000000E+00  0.00000000E+00  0.00000000E+00  0.00000000E+00
  0.00000000E+00  7.08742682E-02  3.39752839E-01  7.27158577E-01  1.00000000E+00
  0.00000000E+00  0.00000000E+00  0.00000000E+00  0.00000000E+00  0.00000000E+00
  0.00000000E+00  0.00000000E+00  7.08742682E-02  3.39752839E-01  7.27158577E-01
  1.00000000E+00  0.00000000E+00  0.00000000E+00  0.00000000E+00  0.00000000E+00
  0.00000000E+00  0.00000000E+00  0.00000000E+00  7.08742682E-02  3.39752839E-01
  7.27158577E-01  1.00000000E+00  0.00000000E+00  0.00000000E+00  0.00000000E+00
  0.00000000E+00  0.00000000E+00  0.00000000E+00  0.00000000E+00  0.00000000E+00
  0.00000000E+00  0.00000000E+00  0.00000000E+00  0.00000000E+00  0.00000000E+00
  0.00000000E+00  0.00000000E+00  0.00000000E+00  0.00000000E+00  0.00000000E+00
  0.00000000E+00  0.00000000E+00  0.00000000E+00  0.00000000E+00  0.00000000E+00
  0.00000000E+00  0.00000000E+00  0.00000000E+00  0.00000000E+00  0.00000000E+00
  0.00000000E+00  0.00000000E+00  0.00000000E+00  0.00000000E+00  0.00000000E+00
  0.00000000E+00  0.00000000E+00  0.00000000E+00  0.00000000E+00  0.00000000E+00
  0.00000000E+00  0.00000000E+00  0.00000000E+00  0.00000000E+00  0.00000000E+00
  0.00000000E+00  0.00000000E+00  0.00000000E+00  0.00000000E+00  0.00000000E+00
  0.00000000E+00  0.00000000E+00  0.00000000E+00  0.00000000E+00  0.00000000E+00
  0.00000000E+00  0.00000000E+00  0.00000000E+00  0.00000000E+00  0.00000000E+00
  0.00000000E+00  0.00000000E+00  0.00000000E+00  0.00000000E+00  0.00000000E+00
  0.00000000E+00  0.00000000E+00
Coordinates of each shell                  R   N=         192
  3.86679125E+00  2.29232814E+00 -5.19291202E-01  3.86679125E+00  2.29232814E+00
 -5.19291202E-01  3.86679125E+00  2.29232814E+00 -5.19291202E-01  3.86679125E+00
  2.29232814E+00 -5.19291202E-01  2.32537453E+00 -2.46656776E+00 -1.49339407E+00
  2.32537453E+00 -2.46656776E+00 -1.49339407E+00  2.32537453E+00 -2.46656776E+00
 -1.49339407E+00  2.32537453E+00 -2.46656776E+00 -1.49339407E+00  4.96184321E+00
  1.86673156E-01  3.55783101E+00  4.96184321E+00  1.86673156E-01  3.55783101E+00
  4.96184321E+00  1.86673156E-01  3.55783101E+00  4.96184321E+00  1.86673156E-01
  3.55783101E+00  7.07839516E+00 -1.97761385E+00 -5.72373590E-01  7.07839516E+00
 -1.97761385E+00 -5.72373590E-01  7.07839516E+00 -1.97761385E+00 -5.72373590E-01
  7.07839516E+00 -1.97761385E+00 -5.72373590E-01  1.09162888E+01  3.76870179E-01
 -1.86321262E+00  1.09162888E+01  3.76870179E-01 -1.86321262E+00  1.09162888E+01
  3.76870179E-01 -1.86321262E+00  1.09162888E+01  3.76870179E-01 -1.86321262E+00
  8.19009517E+00  2.90000336E+00  1.06086547E+00  8.19009517E+00  2.90000336E+00
  1.06086547E+00  8.19009517E+00  2.90000336E+00  1.06086547E+00  8.19009517E+00
  2.90000336E+00  1.06086547E+00  1.40930041E+01 -2.52148727E-01  1.66367096E+00
  1.40930041E+01 -2.52148727E-01  1.66367096E+00  1.40930041E+01 -2.52148727E-01
  1.66367096E+00  1.40930041E+01 -2.52148727E-01  1.66367096E+00  1.58483649E+01
 -7.22628039E-01 -2.56499814E+00  1.58483649E+01 -7.22628039E-01 -2.56499814E+00
  1.58483649E+01 -7.22628039E-01 -2.56499814E+00  1.58483649E+01 -7.22628039E-01
 -2.56499814E+00  5.35471445E+00  1.25778835E+00 -6.02389471E-01  5.35471445E+00
  1.25778835E+00 -6.02389471E-01  3.07976443E+00  2.09050756E+00  1.10272933E+00
  3.07976443E+00  2.09050756E+00  1.10272933E+00  7.22840011E+00 -1.00457580E+00
  9.51368142E-01  7.22840011E+00 -1.00457580E+00  9.51368142E-01  8.70257401E+00
 -2.64752580E+00 -1.02442932E+00  8.70257401E+00 -2.64752580E+00 -1.02442932E+00
  9.15526977E+00  6.27707738E-01 -2.21956363E+00  9.15526977E+00  6.27707738E-01
 -2.21956363E+00  1.14606477E+01  1.58513319E+00 -6.24315056E-01  1.14606477E+01
  1.58513319E+00 -6.24315056E-01  7.74046069E+00  2.27469652E+00  2.70339813E+00
  7.74046069E+00  2.27469652E+00  2.70339813E+00  6.98819787E+00  4.15595658E+00
  5.42099837E-01  6.98819787E+00  4.15595658E+00  5.42099837E-01  2.71309104E+00
 -1.12556550E+00 -3.34738735E-01  2.71309104E+00 -1.12556550E+00 -3.34738735E-01
  3.86539913E+00 -3.23887304E+00 -2.06169160E+00  3.86539913E+00 -3.23887304E+00
 -2.06169160E+00  6.26039860E+00 -7.28718720E-01  4.43356213E+00  6.26039860E+00
 -7.28718720E-01  4.43356213E+00  3.33808804E+00 -4.80360236E-01  4.01562894E+00
  3.33808804E+00 -4.80360236E-01  4.01562894E+00  1.35440287E+01 -1.20274340E+00
  2.19340965E-01  1.35440287E+01 -1.20274340E+00  2.19340965E-01  1.58058422E+01
  2.91200881E-01  1.41457265E+00  1.58058422E+01  2.91200881E-01  1.41457265E+00
  1.41666869E+01 -5.50195991E-01 -3.22326821E+00  1.41666869E+01 -5.50195991E-01
 -3.22326821E+00  1.70223293E+01 -8.80767256E-01 -3.93900434E+00  1.70223293E+01
 -8.80767256E-01 -3.93900434E+00
Num ILSW                                   I              100
ILSW                                       I   N=         100
           0           1           0           0           2           0
           0           0           0           0           0          -1
           5           0           0           0           0           0
           0           0           0           0           0           0
           1           1           0           0           0           0
           0           0      100000           0          -1           0
           0           0           0           0           0           0
           0           0           0           1           0           0
           0 -2000000000           1           0           0           0
           0           0           4          52           0           0
           0           1           0           0           0           0
           0           0           0          24           0           1
           0           0           0           0           0           0
           0           0           0           0           0           0
           0           0           0           0           0           0
           0           0           0           0           0           0
           0           0           0           0
Num RLSW                                   I               52
RLSW                                       R   N=          52
  1.00000000E+00  1.00000000E+00  1.00000000E+00  1.00000000E+00  1.00000000E+00
  0.00000000E+00  0.00000000E+00  1.00000000E+00  0.00000000E+00  0.00000000E+00
  0.00000000E+00  0.00000000E+00  1.00000000E+00  0.00000000E+00  0.00000000E+00
  0.00000000E+00  0.00000000E+00  1.00000000E+00  0.00000000E+00  0.00000000E+00
  0.00000000E+00  0.00000000E+00  1.00000000E+00  0.00000000E+00  0.00000000E+00
  0.00000000E+00  0.00000000E+00  1.00000000E+00  0.00000000E+00  0.00000000E+00
  0.00000000E+00  0.00000000E+00  1.00000000E+00  0.00000000E+00  0.00000000E+00
  0.00000000E+00  0.00000000E+00  0.00000000E+00  1.00000000E+00  1.00000000E+00
  0.00000000E+00  1.00000000E+00  0.00000000E+00  0.00000000E+00  0.00000000E+00
  0.00000000E+00  0.00000000E+00  0.00000000E+00  0.00000000E+00  0.00000000E+00
  0.00000000E+00  0.00000000E+00
MxBond                                     I                2
NBond                                      I   N=          24
           2           2           2           2           2           2
           2           2           1           1           1           1
           1           1           1           1           1           1
           1           1           1           1           1           1
IBond                                      I   N=          48
           9          10          17          18          19          20
          11          12          13          14          15          16
          21          22          23          24           1           0
           1           0           4           0           4           0
           5           0           5           0           6           0
           6           0           2           0           2           0
           3           0           3           0           7           0
           7           0           8           0           8           0
RBond                                      R   N=          48
  1.00000000E+00  1.00000000E+00  1.00000000E+00  1.00000000E+00  1.00000000E+00
  1.00000000E+00  1.00000000E+00  1.00000000E+00  1.00000000E+00  1.00000000E+00
  1.00000000E+00  1.00000000E+00  1.00000000E+00  1.00000000E+00  1.00000000E+00
  1.00000000E+00  1.00000000E+00  0.00000000E+00  1.00000000E+00  0.00000000E+00
  1.00000000E+00  0.00000000E+00  1.00000000E+00  0.00000000E+00  1.00000000E+00
  0.00000000E+00  1.00000000E+00  0.00000000E+00  1.00000000E+00  0.00000000E+00
  1.00000000E+00  0.00000000E+00  1.00000000E+00  0.00000000E+00  1.00000000E+00
  0.00000000E+00  1.00000000E+00  0.00000000E+00  1.00000000E+00  0.00000000E+00
  1.00000000E+00  0.00000000E+00  1.00000000E+00  0.00000000E+00  1.00000000E+00
  0.00000000E+00  1.00000000E+00  0.00000000E+00
Virial Ratio                               R      2.011300904093632E+00
SCF Energy                                 R     -6.139416382513145E+02
Total Energy                               R     -6.139416382513145E+02
RMS Density                                R      5.180474673025408E-09
Job Status                                 I                1
Nuclear derivative order                   I                0
External E-field                           R   N=          35
  0.00000000E+00  0.00000000E+00  0.00000000E+00  0.00000000E+00  0.00000000E+00
  0.00000000E+00  0.00000000E+00  0.00000000E+00  0.00000000E+00  0.00000000E+00
  0.00000000E+00  0.00000000E+00  0.00000000E+00  0.00000000E+00  0.00000000E+00
  0.00000000E+00  0.00000000E+00  0.00000000E+00  0.00000000E+00  0.00000000E+00
  0.00000000E+00  0.00000000E+00  0.00000000E+00  0.00000000E+00  0.00000000E+00
  0.00000000E+00  0.00000000E+00  0.00000000E+00  0.00000000E+00  0.00000000E+00
  0.00000000E+00  0.00000000E+00  0.00000000E+00  0.00000000E+00  0.00000000E+00
IOpCl                                      I                0
IROHF                                      I                0
Alpha Orbital Energies                     R   N=         152
 -2.06297176E+01 -2.05893162E+01 -2.05809908E+01 -2.05701515E+01 -2.05605498E+01
 -2.05592195E+01 -2.05455607E+01 -2.05266243E+01 -1.42746007E+00 -1.39399157E+00
 -1.37662851E+00 -1.36286216E+00 -1.35387739E+00 -1.33825504E+00 -1.32791112E+00
 -1.30700117E+00 -8.10876364E-01 -7.73434445E-01 -7.67929457E-01 -7.55698721E-01
 -7.26524230E-01 -7.19353443E-01 -7.13173274E-01 -6.84823980E-01 -6.71937745E-01
 -6.37775254E-01 -6.29780259E-01 -6.00119356E-01 -5.86666296E-01 -5.70898162E-01
 -5.56893350E-01 -5.48337283E-01 -5.38086134E-01 -5.32828539E-01 -5.10312416E-01
 -5.06463441E-01 -5.02909761E-01 -4.90893369E-01 -4.80767877E-01 -4.66637398E-01
  1.47176534E-01  2.08391830E-01  2.36967185E-01  2.49655076E-01  2.62269386E-01
  2.87716340E-01  2.89868094E-01  3.04037047E-01  3.12896376E-01  3.50809306E-01
  3.58288515E-01  3.72856772E-01  3.83463409E-01  4.02048991E-01  4.24548154E-01
  4.76094425E-01  9.45126223E-01  9.68889600E-01  9.76235824E-01  9.86256699E-01
  9.97428463E-01  1.02625395E+00  1.04800734E+00  1.05929099E+00  1.06907983E+00
  1.07564507E+00  1.09064130E+00  1.09366324E+00  1.10093274E+00  1.10752416E+00
  1.12093163E+00  1.13360712E+00  1.15337553E+00  1.15822715E+00  1.16656854E+00
  1.17364821E+00  1.19195723E+00  1.20955466E+00  1.22152084E+00  1.24839386E+00
  1.28006933E+00  1.29864001E+00  1.33367901E+00  1.33852215E+00  1.34741432E+00
  1.35367879E+00  1.36172044E+00  1.37295320E+00  1.38658791E+00  1.39684249E+00
  1.41800848E+00  1.41936689E+00  1.44121361E+00  1.47291830E+00  1.49214524E+00
  1.50517327E+00  1.51966180E+00  1.56364441E+00  1.57680719E+00  1.58892418E+00
  1.65197546E+00  1.66599259E+00  1.71485662E+00  1.84217001E+00  1.95910487E+00
  1.98279912E+00  1.99175604E+00  2.00052495E+00  2.00344153E+00  2.01839681E+00
  2.03405395E+00  2.03733436E+00  2.04188883E+00  2.05417505E+00  2.05962943E+00
  2.06543469E+00  2.07624705E+00  2.09068931E+00  2.09742055E+00  2.09999837E+00
  2.12315897E+00  2.14770510E+00  2.15805299E+00  2.16883159E+00  2.17476846E+00
  2.19139556E+00  2.20659666E+00  2.33643440E+00  2.53203304E+00  2.62503037E+00
  2.63847111E+00  2.66079119E+00  2.66655497E+00  2.69748075E+00  2.71461680E+00
  2.74958088E+00  2.91591952E+00  2.92711295E+00  2.95486543E+00  2.95879459E+00