#INFO: **** input file is /home/liwei01/wsr/dftpart/test_2body/c8/eda_c8.py ****
from dftpart import scfeda

test1 = scfeda.EDA()
test1.gjf = 'c8.xyz'
test1.method = ['hf','3-21g']
test1.output = 'c8'
#test1.build()
test1.showinter=True
test1.kernel()
        

#INFO: ******************** input file end ********************


System: uname_result(system='Linux', node='master', release='3.10.0-693.el7.x86_64', version='#1 SMP Tue Aug 22 21:09:27 UTC 2017', machine='x86_64', processor='x86_64')  Threads 20
Python 3.6.4 |Anaconda, Inc.| (default, Jan 16 2018, 18:10:19) 
[GCC 7.2.0]
numpy 1.14.0  scipy 1.0.0
Date: Sun Feb  9 21:04:58 2020
PySCF version 1.5.4
PySCF path  /home/liwei01/liaokang/anaconda3/lib/python3.6/site-packages/pyscf

[CONFIG] conf_file None
[INPUT] verbose = 4
[INPUT] num. atoms = 23
[INPUT] num. electrons = 74
[INPUT] charge = 0
[INPUT] spin (= nelec alpha-beta = 2S) = 0
[INPUT] symmetry False subgroup None
[INPUT] Mole.unit = angstrom
[INPUT]  1 C     -7.241242980000   0.108119710000  -0.522802850000 AA  -13.683966033629   0.204316640567  -0.987954203642 Bohr
[INPUT]  2 H     -7.548001040000   1.132595610000  -0.487467080000 AA  -14.263654753532   2.140295512785  -0.921179275941 Bohr
[INPUT]  3 H     -7.637948220000  -0.352815550000  -1.403179830000 AA  -14.433630289409  -0.666724761988  -2.651625582214 Bohr
[INPUT]  4 C     -5.703344760000   0.033502950000  -0.552826490000 AA  -10.777759590373   0.063311399865  -1.044690660505 Bohr
[INPUT]  5 H     -5.306639520000   0.494438220000   0.327550490000 AA  -10.028095334593   0.934352821317   0.618980718067 Bohr
[INPUT]  6 C     -5.177907760000   0.769963360000  -1.799077680000 AA   -9.784827564660   1.455019876350  -3.399764092018 Bohr
[INPUT]  7 H     -5.484665830000   1.794439260000  -1.763741910000 AA  -10.364516303460   3.390998748567  -3.332989164317 Bohr
[INPUT]  8 H     -5.574613010000   0.309028090000  -2.679454660000 AA  -10.534491839337   0.583978454897  -5.063435470590 Bohr
[INPUT]  9 C     -3.114572550000   1.431807010000  -3.075352510000 AA   -5.885689114588   2.705723112132  -5.811573980394 Bohr
[INPUT] 10 H     -3.421330610000   2.456282910000  -3.040016740000 AA   -6.465377834491   4.641701984350  -5.744799052693 Bohr
[INPUT] 11 H     -3.511277790000   0.970871740000  -3.955729490000 AA   -6.635353370368   1.834681690680  -7.475245358965 Bohr
[INPUT] 12 C     -1.576674330000   1.357190240000  -3.105376150000 AA   -2.979482671332   2.564717852533  -5.868310437256 Bohr
[INPUT] 13 H     -1.269916260000   0.332714340000  -3.140711910000 AA   -2.399793932532   0.628738980315  -5.935085346060 Bohr
[INPUT] 14 H     -1.179969090000   1.818125510000  -2.224999170000 AA   -2.229818415552   3.435759273985  -4.204639058685 Bohr
[INPUT] 15 N     -1.075120830000   2.060175180000  -4.294979550000 AA   -2.031683919515   3.893166858827  -8.116335060108 Bohr
[INPUT] 16 H     -1.361810610000   3.017629290000  -4.261955470000 AA   -2.573449086427   5.702492903566  -8.053928593392 Bohr
[INPUT] 17 H     -0.076485620000   2.011722740000  -4.314475430000 AA   -0.144536874268   3.801605017160  -8.153176933865 Bohr
[INPUT] 18 F     -5.316313560000  -1.259060100000  -0.597409000000 AA  -10.046376620711  -2.379278763367  -1.128939394350 Bohr
[INPUT] 19 O     -7.729148760000  -0.575736380000   0.634430400000 AA  -14.605974332422  -1.087984078149   1.198899701098 Bohr
[INPUT] 20 H     -8.687838560000  -0.529222040000   0.653146440000 AA  -16.417635492836  -1.000084714684   1.234267890835 Bohr
[INPUT] 21 C     -3.640009550000   0.695346600000  -1.829101320000 AA   -6.878621140301   1.314014635647  -3.456500548880 Bohr
[INPUT] 22 H     -3.333251480000  -0.329129310000  -1.864437080000 AA   -6.298932401501  -0.621964255467  -3.523275457684 Bohr
[INPUT] 23 H     -3.243304300000   1.156281860000  -0.948724340000 AA   -6.128956865624   2.185056038203  -1.792829170309 Bohr

nuclear repulsion = 470.404719938659
number of shells = 73
number of NR pGTOs = 177
number of NR cGTOs = 109
basis = 3-21g
ecp = {}
CPU time:         2.68


******** <class 'pyscf.scf.hf.RHF'> flags ********
method = RHF
initial guess = minao
damping factor = 0
level shift factor = 0
DIIS = <class 'pyscf.scf.diis.CDIIS'>
DIIS start cycle = 1
DIIS space = 8
SCF tol = 1e-09
SCF gradient tol = None
max. SCF cycles = 50
direct_scf = True
direct_scf_tol = 1e-13
chkfile to save SCF result = /home/liwei01/wsr/dftpart/test_2body/c8/tmpwkok54zr
max_memory 4000 MB (current use 85 MB)
Set gradient conv threshold to 3.16228e-05
init E= -463.642193003301
  HOMO = -0.277541689527486  LUMO = 0.126757197369551
cycle= 1 E= -461.400877076715  delta_E= 2.24  |g|= 0.689  |ddm|= 4.22
  HOMO = -0.354599111403128  LUMO = 0.236432410942035
cycle= 2 E= -461.50113296984  delta_E= -0.1  |g|= 0.338  |ddm|= 0.842
  HOMO = -0.370009260052465  LUMO = 0.250413152130585
cycle= 3 E= -461.519668550928  delta_E= -0.0185  |g|= 0.073  |ddm|= 0.342
  HOMO = -0.369696359458367  LUMO = 0.25372625023483
cycle= 4 E= -461.521048988297  delta_E= -0.00138  |g|= 0.00913  |ddm|= 0.0894
  HOMO = -0.369125519481812  LUMO = 0.253468435929732
cycle= 5 E= -461.521090727826  delta_E= -4.17e-05  |g|= 0.00352  |ddm|= 0.023
  HOMO = -0.369774723280348  LUMO = 0.25335016933913
cycle= 6 E= -461.52109699184  delta_E= -6.26e-06  |g|= 0.000908  |ddm|= 0.00872
  HOMO = -0.369718675776645  LUMO = 0.253413137674184
cycle= 7 E= -461.521097533453  delta_E= -5.42e-07  |g|= 0.000204  |ddm|= 0.00295
  HOMO = -0.369753582530863  LUMO = 0.253407412769657
cycle= 8 E= -461.52109755984  delta_E= -2.64e-08  |g|= 6.87e-05  |ddm|= 0.000621
  HOMO = -0.369746143345693  LUMO = 0.253405125809226
cycle= 9 E= -461.521097562258  delta_E= -2.42e-09  |g|= 1.9e-05  |ddm|= 0.000174
  HOMO = -0.369747728531513  LUMO = 0.253405785336859
cycle= 10 E= -461.521097562543  delta_E= -2.85e-10  |g|= 5.74e-06  |ddm|= 6.9e-05
  HOMO = -0.369747682216823  LUMO = 0.253405499608679
Extra cycle  E= -461.521097562559  delta_E= -1.67e-11  |g|= 2.72e-06  |ddm|= 1.26e-05
converged SCF energy = -461.521097562559
