 Entering Gaussian System, Link 0=g16
 Input=beta.gjf
 Output=beta.log
 Initial command:
 /home/soft/g16/l1.exe "/tmp/gaussian/Gau-182091.inp" -scrdir="/tmp/gaussian/"
 Entering Link 1 = /home/soft/g16/l1.exe PID=    182092.
  
 Copyright (c) 1988,1990,1992,1993,1995,1998,2003,2009,2016,
            Gaussian, Inc.  All Rights Reserved.
  
 This is part of the Gaussian(R) 16 program.  It is based on
 the Gaussian(R) 09 system (copyright 2009, Gaussian, Inc.),
 the Gaussian(R) 03 system (copyright 2003, Gaussian, Inc.),
 the Gaussian(R) 98 system (copyright 1998, Gaussian, Inc.),
 the Gaussian(R) 94 system (copyright 1995, Gaussian, Inc.),
 the Gaussian 92(TM) system (copyright 1992, Gaussian, Inc.),
 the Gaussian 90(TM) system (copyright 1990, Gaussian, Inc.),
 the Gaussian 88(TM) system (copyright 1988, Gaussian, Inc.),
 the Gaussian 86(TM) system (copyright 1986, Carnegie Mellon
 University), and the Gaussian 82(TM) system (copyright 1983,
 Carnegie Mellon University). Gaussian is a federally registered
 trademark of Gaussian, Inc.
  
 This software contains proprietary and confidential information,
 including trade secrets, belonging to Gaussian, Inc.
  
 This software is provided under written license and may be
 used, copied, transmitted, or stored only in accord with that
 written license.
  
 The following legend is applicable only to US Government
 contracts under FAR:
  
                    RESTRICTED RIGHTS LEGEND
  
 Use, reproduction and disclosure by the US Government is
 subject to restrictions as set forth in subparagraphs (a)
 and (c) of the Commercial Computer Software - Restricted
 Rights clause in FAR 52.227-19.
  
 Gaussian, Inc.
 340 Quinnipiac St., Bldg. 40, Wallingford CT 06492
  
  
 ---------------------------------------------------------------
 Warning -- This program may not be used in any manner that
 competes with the business of Gaussian, Inc. or will provide
 assistance to any competitor of Gaussian, Inc.  The licensee
 of this program is prohibited from giving any competitor of
 Gaussian, Inc. access to this program.  By using this program,
 the user acknowledges that Gaussian, Inc. is engaged in the
 business of creating and licensing software in the field of
 computational chemistry and represents and warrants to the
 licensee that it is not a competitor of Gaussian, Inc. and that
 it will not use this program in any manner prohibited above.
 ---------------------------------------------------------------
  

 Cite this work as:
 Gaussian 16, Revision A.03,
 M. J. Frisch, G. W. Trucks, H. B. Schlegel, G. E. Scuseria, 
 M. A. Robb, J. R. Cheeseman, G. Scalmani, V. Barone, 
 G. A. Petersson, H. Nakatsuji, X. Li, M. Caricato, A. V. Marenich, 
 J. Bloino, B. G. Janesko, R. Gomperts, B. Mennucci, H. P. Hratchian, 
 J. V. Ortiz, A. F. Izmaylov, J. L. Sonnenberg, D. Williams-Young, 
 F. Ding, F. Lipparini, F. Egidi, J. Goings, B. Peng, A. Petrone, 
 T. Henderson, D. Ranasinghe, V. G. Zakrzewski, J. Gao, N. Rega, 
 G. Zheng, W. Liang, M. Hada, M. Ehara, K. Toyota, R. Fukuda, 
 J. Hasegawa, M. Ishida, T. Nakajima, Y. Honda, O. Kitao, H. Nakai, 
 T. Vreven, K. Throssell, J. A. Montgomery, Jr., J. E. Peralta, 
 F. Ogliaro, M. J. Bearpark, J. J. Heyd, E. N. Brothers, K. N. Kudin, 
 V. N. Staroverov, T. A. Keith, R. Kobayashi, J. Normand, 
 K. Raghavachari, A. P. Rendell, J. C. Burant, S. S. Iyengar, 
 J. Tomasi, M. Cossi, J. M. Millam, M. Klene, C. Adamo, R. Cammi, 
 J. W. Ochterski, R. L. Martin, K. Morokuma, O. Farkas, 
 J. B. Foresman, and D. J. Fox, Gaussian, Inc., Wallingford CT, 2016.
 
 ******************************************
 Gaussian 16:  ES64L-G16RevA.03 25-Dec-2016
                 9-Feb-2020 
 ******************************************
 %chk=0.chk
 %nprocshared=24
 Will use up to   24 processors via shared memory.
 --------------------------------
 #p hf/6-31g(d,p) 5d 7f geom=conn
 --------------------------------
 1/38=1,57=2,172=1/1;
 2/12=2,17=6,18=5,40=1/2;
 3/5=1,6=6,7=101,8=11,11=9,25=1,30=1/1,2,3;
 4//1;
 5/5=2,38=5/2;
 6/7=2,8=2,9=2,10=2,28=1/1;
 99/5=1,9=1/99;
 Leave Link    1 at Sun Feb  9 22:23:10 2020, MaxMem=           0 cpu:               2.0 elap:               0.1
 (Enter /home/soft/g16/l101.exe)
 ----------------------------------
 gebf{dis=3.0 frag=conn charge=npa}
 ----------------------------------
 Symbolic Z-matrix:
 Charge =  1 Multiplicity = 1
 C                    -28.92011  -0.10957   0.40843 
 O                    -28.95071  -0.89273   1.39294 
 N                    -27.79756   0.02248  -0.30676 
 H                    -27.77391   0.64422  -1.08962 
 C                    -26.59861  -0.74575   0.05777 
 C                    -25.34085   0.0508   -0.33544 
 O                    -25.37454   0.83348  -1.32025 
 N                    -24.21266  -0.08852   0.36951 
 H                    -24.18479  -0.71167   1.15111 
 C                    -23.014    0.67529  -0.00513 
 C                    -21.75465  -0.12467   0.3759 
 O                    -21.78078  -0.90889   1.35973 
 N                    -20.63281   0.01471  -0.33915 
 H                    -20.61294   0.63684  -1.12181 
 C                    -19.42917  -0.74612   0.02558 
 C                    -18.17588   0.05842  -0.36634 
 O                    -18.21307   0.8408   -1.35123 
 N                    -17.04789  -0.07397   0.34037 
 H                    -17.01783  -0.69687   1.12205 
 C                    -15.85266   0.6966   -0.03174 
 C                    -14.58994  -0.0965    0.35301 
 O                    -14.61516  -0.88109   1.33654 
 N                    -13.46626   0.04883  -0.35814 
 H                    -13.44636   0.6723   -1.13971 
 C                    -12.26061  -0.70772   0.00934 
 C                    -11.00897   0.10189  -0.37724 
 O                    -11.0461   0.88686  -1.36013 
 H                    -26.59441  -0.921     1.11335 
 H                    -23.01877   0.85141  -1.06052 
 H                    -19.42453  -0.92175   1.08104 
 H                    -15.85574   0.8724   -1.08721 
 H                    -12.25871  -0.88517   1.06452 
 N                    -31.37754  -0.06005   0.40219 
 H                    -30.17893   0.87252  -1.02883 
 C                    -30.175    0.69726   0.02673 
 C                    -32.50544   0.08362  -0.30247 
 O                    -32.53684   0.86697  -1.2868 
 H                    -31.35244  -0.68259   1.18438 
 C                    -12.25193  -2.05435  -0.73772 
 H                    -13.12156  -2.61688  -0.46911 
 H                    -11.37433  -2.60494  -0.47027 
 H                    -12.25382  -1.87686  -1.7929 
 C                    -15.85891   2.04442   0.71319 
 H                    -16.73625   2.59556   0.4459 
 H                    -14.98898   2.60555   0.44261 
 H                    -15.85592   1.86861   1.76864 
 C                    -19.4282  -2.09414  -0.71902 
 H                    -20.2992  -2.65273  -0.44654 
 H                    -18.55192  -2.64775  -0.45338 
 H                    -19.43282  -1.91859  -1.77451 
 C                    -23.01089   2.02279   0.74037 
 H                    -23.88588   2.57884   0.47562 
 H                    -22.13861   2.57926   0.46774 
 H                    -23.00608   1.84653   1.79575 
 C                    -26.6064  -2.09405  -0.68625 
 H                    -27.48062  -2.64718  -0.41295 
 H                    -25.73335  -2.65287  -0.42095 
 H                    -26.61066  -1.91888  -1.7418 
 C                    -30.16432   2.04548   0.77087 
 H                    -29.28888   2.59675   0.49767 
 H                    -30.1605   1.87026   1.82641 
 H                    -31.03614   2.60623   0.50556 
 C                    -33.76534  -0.70963   0.091 
 H                    -34.34129  -0.14033   0.79034 
 H                    -33.47709  -1.63791   0.53836 
 N                    -34.57269  -0.97365  -1.10871 
 H                    -34.03433  -1.50561  -1.76233 
 H                    -35.39076  -1.48885  -0.85321 
 H                    -34.84216  -0.10611  -1.52673 
 O                    -9.91295  -0.02574   0.31254 
 H                    -9.13268   0.47906   0.0717 
 
 ITRead=  0  0  0  0  0  0  0  0  0  0  0  0  0  0  0  0  0  0  0  0
 ITRead=  0  0  0  0  0  0  0  0  0  0  0  0  0  0  0  0  0  0  0  0
 ITRead=  0  0  0  0  0  0  0  0  0  0  0  0  0  0  0  0  0  0  0  0
 ITRead=  0  0  0  0  0  0  0  0  0  0  0
 MicOpt= -1 -1 -1 -1 -1 -1 -1 -1 -1 -1 -1 -1 -1 -1 -1 -1 -1 -1 -1 -1
 MicOpt= -1 -1 -1 -1 -1 -1 -1 -1 -1 -1 -1 -1 -1 -1 -1 -1 -1 -1 -1 -1
 MicOpt= -1 -1 -1 -1 -1 -1 -1 -1 -1 -1 -1 -1 -1 -1 -1 -1 -1 -1 -1 -1
 MicOpt= -1 -1 -1 -1 -1 -1 -1 -1 -1 -1 -1
 NAtoms=     71 NQM=       71 NQMF=       0 NMMI=      0 NMMIF=      0
                NMic=       0 NMicF=      0.
                    Isotopes and Nuclear Properties:
 (Nuclear quadrupole moments (NQMom) in fm**2, nuclear magnetic moments (NMagM)
  in nuclear magnetons)

  Atom         1           2           3           4           5           6           7           8           9          10
 IAtWgt=          12          16          14           1          12          12          16          14           1          12
 AtmWgt=  12.0000000  15.9949146  14.0030740   1.0078250  12.0000000  12.0000000  15.9949146  14.0030740   1.0078250  12.0000000
 NucSpn=           0           0           2           1           0           0           0           2           1           0
 AtZEff=  -0.0000000  -0.0000000  -0.0000000  -0.0000000  -0.0000000  -0.0000000  -0.0000000  -0.0000000  -0.0000000  -0.0000000
 NQMom=    0.0000000   0.0000000   2.0440000   0.0000000   0.0000000   0.0000000   0.0000000   2.0440000   0.0000000   0.0000000
 NMagM=    0.0000000   0.0000000   0.4037610   2.7928460   0.0000000   0.0000000   0.0000000   0.4037610   2.7928460   0.0000000
 AtZNuc=   6.0000000   8.0000000   7.0000000   1.0000000   6.0000000   6.0000000   8.0000000   7.0000000   1.0000000   6.0000000

  Atom        11          12          13          14          15          16          17          18          19          20
 IAtWgt=          12          16          14           1          12          12          16          14           1          12
 AtmWgt=  12.0000000  15.9949146  14.0030740   1.0078250  12.0000000  12.0000000  15.9949146  14.0030740   1.0078250  12.0000000
 NucSpn=           0           0           2           1           0           0           0           2           1           0
 AtZEff=  -0.0000000  -0.0000000  -0.0000000  -0.0000000  -0.0000000  -0.0000000  -0.0000000  -0.0000000  -0.0000000  -0.0000000
 NQMom=    0.0000000   0.0000000   2.0440000   0.0000000   0.0000000   0.0000000   0.0000000   2.0440000   0.0000000   0.0000000
 NMagM=    0.0000000   0.0000000   0.4037610   2.7928460   0.0000000   0.0000000   0.0000000   0.4037610   2.7928460   0.0000000
 AtZNuc=   6.0000000   8.0000000   7.0000000   1.0000000   6.0000000   6.0000000   8.0000000   7.0000000   1.0000000   6.0000000

  Atom        21          22          23          24          25          26          27          28          29          30
 IAtWgt=          12          16          14           1          12          12          16           1           1           1
 AtmWgt=  12.0000000  15.9949146  14.0030740   1.0078250  12.0000000  12.0000000  15.9949146   1.0078250   1.0078250   1.0078250
 NucSpn=           0           0           2           1           0           0           0           1           1           1
 AtZEff=  -0.0000000  -0.0000000  -0.0000000  -0.0000000  -0.0000000  -0.0000000  -0.0000000  -0.0000000  -0.0000000  -0.0000000
 NQMom=    0.0000000   0.0000000   2.0440000   0.0000000   0.0000000   0.0000000   0.0000000   0.0000000   0.0000000   0.0000000
 NMagM=    0.0000000   0.0000000   0.4037610   2.7928460   0.0000000   0.0000000   0.0000000   2.7928460   2.7928460   2.7928460
 AtZNuc=   6.0000000   8.0000000   7.0000000   1.0000000   6.0000000   6.0000000   8.0000000   1.0000000   1.0000000   1.0000000

  Atom        31          32          33          34          35          36          37          38          39          40
 IAtWgt=           1           1          14           1          12          12          16           1          12           1
 AtmWgt=   1.0078250   1.0078250  14.0030740   1.0078250  12.0000000  12.0000000  15.9949146   1.0078250  12.0000000   1.0078250
 NucSpn=           1           1           2           1           0           0           0           1           0           1
 AtZEff=  -0.0000000  -0.0000000  -0.0000000  -0.0000000  -0.0000000  -0.0000000  -0.0000000  -0.0000000  -0.0000000  -0.0000000
 NQMom=    0.0000000   0.0000000   2.0440000   0.0000000   0.0000000   0.0000000   0.0000000   0.0000000   0.0000000   0.0000000
 NMagM=    2.7928460   2.7928460   0.4037610   2.7928460   0.0000000   0.0000000   0.0000000   2.7928460   0.0000000   2.7928460
 AtZNuc=   1.0000000   1.0000000   7.0000000   1.0000000   6.0000000   6.0000000   8.0000000   1.0000000   6.0000000   1.0000000

  Atom        41          42          43          44          45          46          47          48          49          50
 IAtWgt=           1           1          12           1           1           1          12           1           1           1
 AtmWgt=   1.0078250   1.0078250  12.0000000   1.0078250   1.0078250   1.0078250  12.0000000   1.0078250   1.0078250   1.0078250
 NucSpn=           1           1           0           1           1           1           0           1           1           1
 AtZEff=  -0.0000000  -0.0000000  -0.0000000  -0.0000000  -0.0000000  -0.0000000  -0.0000000  -0.0000000  -0.0000000  -0.0000000
 NQMom=    0.0000000   0.0000000   0.0000000   0.0000000   0.0000000   0.0000000   0.0000000   0.0000000   0.0000000   0.0000000
 NMagM=    2.7928460   2.7928460   0.0000000   2.7928460   2.7928460   2.7928460   0.0000000   2.7928460   2.7928460   2.7928460
 AtZNuc=   1.0000000   1.0000000   6.0000000   1.0000000   1.0000000   1.0000000   6.0000000   1.0000000   1.0000000   1.0000000

  Atom        51          52          53          54          55          56          57          58          59          60
 IAtWgt=          12           1           1           1          12           1           1           1          12           1
 AtmWgt=  12.0000000   1.0078250   1.0078250   1.0078250  12.0000000   1.0078250   1.0078250   1.0078250  12.0000000   1.0078250
 NucSpn=           0           1           1           1           0           1           1           1           0           1
 AtZEff=  -0.0000000  -0.0000000  -0.0000000  -0.0000000  -0.0000000  -0.0000000  -0.0000000  -0.0000000  -0.0000000  -0.0000000
 NQMom=    0.0000000   0.0000000   0.0000000   0.0000000   0.0000000   0.0000000   0.0000000   0.0000000   0.0000000   0.0000000
 NMagM=    0.0000000   2.7928460   2.7928460   2.7928460   0.0000000   2.7928460   2.7928460   2.7928460   0.0000000   2.7928460
 AtZNuc=   6.0000000   1.0000000   1.0000000   1.0000000   6.0000000   1.0000000   1.0000000   1.0000000   6.0000000   1.0000000

  Atom        61          62          63          64          65          66          67          68          69          70
 IAtWgt=           1           1          12           1           1          14           1           1           1          16
 AtmWgt=   1.0078250   1.0078250  12.0000000   1.0078250   1.0078250  14.0030740   1.0078250   1.0078250   1.0078250  15.9949146
 NucSpn=           1           1           0           1           1           2           1           1           1           0
 AtZEff=  -0.0000000  -0.0000000  -0.0000000  -0.0000000  -0.0000000  -0.0000000  -0.0000000  -0.0000000  -0.0000000  -0.0000000
 NQMom=    0.0000000   0.0000000   0.0000000   0.0000000   0.0000000   2.0440000   0.0000000   0.0000000   0.0000000   0.0000000
 NMagM=    2.7928460   2.7928460   0.0000000   2.7928460   2.7928460   0.4037610   2.7928460   2.7928460   2.7928460   0.0000000
 AtZNuc=   1.0000000   1.0000000   6.0000000   1.0000000   1.0000000   7.0000000   1.0000000   1.0000000   1.0000000   8.0000000

  Atom        71
 IAtWgt=           1
 AtmWgt=   1.0078250
 NucSpn=           1
 AtZEff=  -0.0000000
 NQMom=    0.0000000
 NMagM=    2.7928460
 AtZNuc=   1.0000000
 Leave Link  101 at Sun Feb  9 22:23:10 2020, MaxMem=   280000000 cpu:               4.7 elap:               0.2
 (Enter /home/soft/g16/l202.exe)
 Stoichiometry    C20H36N7O8(1+)
 Framework group  C1[X(C20H36N7O8)]
 Deg. of freedom   207
 Full point group                 C1      NOp   1
 Largest Abelian subgroup         C1      NOp   1
 Largest concise Abelian subgroup C1      NOp   1
                         Standard orientation:                         
 ---------------------------------------------------------------------
 Center     Atomic      Atomic             Coordinates (Angstroms)
 Number     Number       Type             X           Y           Z
 ---------------------------------------------------------------------
      1          6           0       -6.791629   -0.025446    0.484081
      2          8           0       -6.818577   -0.685507    1.555125
      3          7           0       -5.670309    0.023743   -0.243429
      4          1           0       -5.649559    0.547604   -1.094977
      5          6           0       -4.468443   -0.691705    0.208458
      6          6           0       -3.213735    0.056092   -0.278940
      7          8           0       -3.251074    0.715443   -1.350122
      8          7           0       -2.084318    0.005489    0.435923
      9          1           0       -2.053547   -0.519765    1.286309
     10          6           0       -0.888584    0.722819   -0.029041
     11          6           0        0.373805   -0.021980    0.442925
     12          8           0        0.351329   -0.683157    1.513413
     13          7           0        1.494386    0.034500   -0.285314
     14          1           0        1.511362    0.558767   -1.136711
     15          6           0        2.700919   -0.673562    0.165875
     16          6           0        3.951132    0.082310   -0.321188
     17          8           0        3.910292    0.741341   -1.392411
     18          7           0        5.080328    0.038790    0.394593
     19          1           0        5.113297   -0.486198    1.245027
     20          6           0        6.272618    0.763128   -0.068662
     21          6           0        7.538357    0.025597    0.406174
     22          8           0        7.516788   -0.635982    1.476408
     23          7           0        8.660768    0.088454   -0.318905
     24          1           0        8.677763    0.614176   -1.169379
     25          6           0        9.869292   -0.615029    0.134495
     26          6           0       11.117845    0.146516   -0.347866
     27          8           0       11.077064    0.808357   -1.417412
     28          1           0       -4.462504   -0.739617    1.277402
     29          1           0       -0.895090    0.771613   -1.097897
     30          1           0        2.707296   -0.721867    1.234745
     31          1           0        6.267798    0.811606   -1.137561
     32          1           0        9.872940   -0.665179    1.203314
     33          7           0       -9.249213    0.015316    0.475628
     34          1           0       -8.055245    0.774027   -1.058302
     35          6           0       -8.049570    0.726110    0.010622
     36          6           0      -10.378353    0.070277   -0.239464
     37          8           0      -10.413408    0.730354   -1.310257
     38          1           0       -9.221205   -0.509272    1.326534
     39          6           0        9.881557   -2.041204   -0.446405
     40          1           0        9.014066   -2.570341   -0.111239
     41          1           0       10.761249   -2.553177   -0.116409
     42          1           0        9.877912   -1.991011   -1.515219
     43          6           0        6.262777    2.190247    0.509984
     44          1           0        5.383344    2.702774    0.180089
     45          1           0        7.130563    2.717754    0.173025
     46          1           0        6.267509    2.141763    1.578866
     47          6           0        2.705478   -2.100859   -0.412405
     48          1           0        1.836607   -2.625618   -0.073866
     49          1           0        3.583853   -2.616043   -0.083849
     50          1           0        2.699113   -2.052637   -1.481293
     51          6           0       -0.889061    2.149715    0.550190
     52          1           0       -1.766159    2.667435    0.222231
     53          1           0       -0.018901    2.672356    0.211751
     54          1           0       -0.882509    2.100774    1.619061
     55          6           0       -4.472649   -2.119235   -0.369201
     56          1           0       -5.344748   -2.638490   -0.030494
     57          1           0       -3.597475   -2.639648   -0.040353
     58          1           0       -4.478649   -2.071407   -1.438103
     59          6           0       -8.042485    2.153577    0.588406
     60          1           0       -7.169159    2.670999    0.250023
     61          1           0       -8.036926    2.105687    1.657314
     62          1           0       -8.916429    2.675902    0.259320
     63          6           0      -11.635216   -0.674224    0.247798
     64          1           0      -12.212257   -0.027276    0.874998
     65          1           0      -11.343430   -1.541536    0.802390
     66          7           0      -12.443018   -1.082158   -0.910592
     67          1           0      -11.903646   -1.686693   -1.496797
     68          1           0      -13.259117   -1.565703   -0.594172
     69          1           0      -12.715790   -0.271603   -1.428825
     70          8           0       12.215034    0.105601    0.350591
     71          1           0       12.993384    0.580457    0.050019
 ---------------------------------------------------------------------
 Rotational constants (GHZ):           0.5688970           0.0184836           0.0183200
 Leave Link  202 at Sun Feb  9 22:23:10 2020, MaxMem=   280000000 cpu:               0.2 elap:               0.0
 (Enter /home/soft/g16/l301.exe)
 Standard basis: 6-31G(d,p) (5D, 7F)
 Ernie: Thresh=  0.10000D-02 Tol=  0.10000D-05 Strict=F.
 There are   705 symmetry adapted cartesian basis functions of A   symmetry.
 There are   670 symmetry adapted basis functions of A   symmetry.
   670 basis functions,  1232 primitive gaussians,   705 cartesian basis functions
   134 alpha electrons      134 beta electrons
       nuclear repulsion energy      3487.2083026877 Hartrees.
 IExCor=    0 DFT=F Ex=HF Corr=None ExCW=0 ScaHFX=  1.000000
 ScaDFX=  1.000000  1.000000  1.000000  1.000000 ScalE2=  1.000000  1.000000
 IRadAn=      5 IRanWt=     -1 IRanGd=            0 ICorTp=0 IEmpDi=  4
 NAtoms=   71 NActive=   71 NUniq=   71 SFac= 1.00D+00 NAtFMM=   60 NAOKFM=T Big=T
 Integral buffers will be    131072 words long.
 Raffenetti 1 integral format.
 Two-electron integral symmetry is turned on.
 Leave Link  301 at Sun Feb  9 22:23:11 2020, MaxMem=   280000000 cpu:               1.9 elap:               0.1
 (Enter /home/soft/g16/l302.exe)
 NPDir=0 NMtPBC=     1 NCelOv=     1 NCel=       1 NClECP=     1 NCelD=      1
         NCelK=      1 NCelE2=     1 NClLst=     1 CellRange=     0.0.
 One-electron integrals computed using PRISM.
 One-electron integral symmetry used in STVInt
 NBasis=   670 RedAO= T EigKep=  2.23D-03  NBF=   670
 NBsUse=   670 1.00D-06 EigRej= -1.00D+00 NBFU=   670
 Leave Link  302 at Sun Feb  9 22:23:11 2020, MaxMem=   280000000 cpu:              21.6 elap:               1.0
 (Enter /home/soft/g16/l303.exe)
 DipDrv:  MaxL=1.
 Leave Link  303 at Sun Feb  9 22:23:12 2020, MaxMem=   280000000 cpu:               2.0 elap:               0.1
 (Enter /home/soft/g16/l401.exe)
 ExpMin= 1.61D-01 ExpMax= 5.48D+03 ExpMxC= 8.25D+02 IAcc=3 IRadAn=         5 AccDes= 0.00D+00
 Harris functional with IExCor=  205 and IRadAn=       5 diagonalized for initial guess.
 HarFok:  IExCor=  205 AccDes= 0.00D+00 IRadAn=         5 IDoV= 1 UseB2=F ITyADJ=14
 ICtDFT=  3500011 ScaDFX=  1.000000  1.000000  1.000000  1.000000
 FoFCou: FMM=F IPFlag=           0 FMFlag=      100000 FMFlg1=        2001
         NFxFlg=           0 DoJE=T BraDBF=F KetDBF=T FulRan=T
         wScrn=  0.000000 ICntrl=       500 IOpCl=  0 I1Cent=   200000004 NGrid=           0
         NMat0=    1 NMatS0=      1 NMatT0=    0 NMatD0=    1 NMtDS0=    0 NMtDT0=    0
 Petite list used in FoFCou.
 Harris En= -1760.28734467440    
 JPrj=0 DoOrth=F DoCkMO=F.
 Leave Link  401 at Sun Feb  9 22:23:13 2020, MaxMem=   280000000 cpu:              36.4 elap:               1.6
 (Enter /home/soft/g16/l502.exe)
 Integral symmetry usage will be decided dynamically.
 Closed shell SCF:
 Using DIIS extrapolation, IDIIS=  1040.
 NGot=   280000000 LenX=   278981509 LenY=   278483779
 Requested convergence on RMS density matrix=1.00D-08 within 128 cycles.
 Requested convergence on MAX density matrix=1.00D-06.
 Requested convergence on             energy=1.00D-06.
 No special actions if energy rises.
 Fock matrices will be formed incrementally for  20 cycles.
 Integral accuracy reduced to 1.0D-05 until final iterations.

 Cycle   1  Pass 0  IDiag  1:
 FoFJK:  IHMeth= 1 ICntrl=       0 DoSepK=F KAlg= 0 I1Cent=           0 FoldK=F
 IRaf= 590000000 NMat=       1 IRICut=       1 DoRegI=T DoRafI=F ISym2E= 0 IDoP0=0 IntGTp=1.
 FoFCou: FMM=T IPFlag=           0 FMFlag=      100000 FMFlg1=        2001
         NFxFlg=           0 DoJE=F BraDBF=F KetDBF=F FulRan=T
         wScrn=  0.000000 ICntrl=         0 IOpCl=  0 I1Cent=           0 NGrid=           0
         NMat0=    1 NMatS0=      1 NMatT0=    0 NMatD0=    1 NMtDS0=    0 NMtDT0=    0
 Symmetry not used in FoFCou.
 FMM levels:  10  Number of levels for PrismC:   9
 E= -1757.02743857140    
 DIIS: error= 3.16D-02 at cycle   1 NSaved=   1.
 NSaved= 1 IEnMin= 1 EnMin= -1757.02743857140     IErMin= 1 ErrMin= 3.16D-02
 ErrMax= 3.16D-02  0.00D+00 EMaxC= 1.00D-01 BMatC= 1.80D+00 BMatP= 1.80D+00
 IDIUse=3 WtCom= 6.84D-01 WtEn= 3.16D-01
 Coeff-Com:  0.100D+01
 Coeff-En:   0.100D+01
 Coeff:      0.100D+01
 Gap=     0.544 Goal=   None    Shift=    0.000
 GapD=    0.544 DampG=2.000 DampE=0.500 DampFc=1.0000 IDamp=-1.
 RMSDP=2.20D-03 MaxDP=1.14D-01              OVMax= 1.23D-01

 Cycle   2  Pass 0  IDiag  1:
 RMSU=  2.18D-03    CP:  9.78D-01
 E= -1758.06051266076     Delta-E=       -1.033074089359 Rises=F Damp=F
 DIIS: error= 1.43D-02 at cycle   2 NSaved=   2.
 NSaved= 2 IEnMin= 2 EnMin= -1758.06051266076     IErMin= 2 ErrMin= 1.43D-02
 ErrMax= 1.43D-02  0.00D+00 EMaxC= 1.00D-01 BMatC= 3.41D-01 BMatP= 1.80D+00
 IDIUse=3 WtCom= 8.57D-01 WtEn= 1.43D-01
 Coeff-Com:  0.260D+00 0.740D+00
 Coeff-En:   0.000D+00 0.100D+01
 Coeff:      0.222D+00 0.778D+00
 Gap=     0.453 Goal=   None    Shift=    0.000
 RMSDP=8.81D-04 MaxDP=5.50D-02 DE=-1.03D+00 OVMax= 5.00D-02

 Cycle   3  Pass 0  IDiag  1:
 RMSU=  7.01D-04    CP:  9.78D-01  7.55D-01
 E= -1758.30202818698     Delta-E=       -0.241515526225 Rises=F Damp=F
 DIIS: error= 5.22D-03 at cycle   3 NSaved=   3.
 NSaved= 3 IEnMin= 3 EnMin= -1758.30202818698     IErMin= 3 ErrMin= 5.22D-03
 ErrMax= 5.22D-03  0.00D+00 EMaxC= 1.00D-01 BMatC= 3.71D-02 BMatP= 3.41D-01
 IDIUse=3 WtCom= 9.48D-01 WtEn= 5.22D-02
 Coeff-Com: -0.615D-02 0.221D+00 0.785D+00
 Coeff-En:   0.000D+00 0.000D+00 0.100D+01
 Coeff:     -0.583D-02 0.210D+00 0.796D+00
 Gap=     0.417 Goal=   None    Shift=    0.000
 RMSDP=2.43D-04 MaxDP=1.98D-02 DE=-2.42D-01 OVMax= 2.64D-02

 Cycle   4  Pass 0  IDiag  1:
 RMSU=  1.81D-04    CP:  9.79D-01  8.19D-01  8.85D-01
 E= -1758.32947749998     Delta-E=       -0.027449312994 Rises=F Damp=F
 DIIS: error= 1.28D-03 at cycle   4 NSaved=   4.
 NSaved= 4 IEnMin= 4 EnMin= -1758.32947749998     IErMin= 4 ErrMin= 1.28D-03
 ErrMax= 1.28D-03  0.00D+00 EMaxC= 1.00D-01 BMatC= 2.39D-03 BMatP= 3.71D-02
 IDIUse=3 WtCom= 9.87D-01 WtEn= 1.28D-02
 Coeff-Com: -0.155D-01 0.164D-01 0.237D+00 0.762D+00
 Coeff-En:   0.000D+00 0.000D+00 0.000D+00 0.100D+01
 Coeff:     -0.153D-01 0.162D-01 0.234D+00 0.765D+00
 Gap=     0.411 Goal=   None    Shift=    0.000
 RMSDP=7.91D-05 MaxDP=4.24D-03 DE=-2.74D-02 OVMax= 5.53D-03

 Cycle   5  Pass 0  IDiag  1:
 RMSU=  5.09D-05    CP:  9.78D-01  8.20D-01  9.67D-01  9.11D-01
 E= -1758.33188278346     Delta-E=       -0.002405283487 Rises=F Damp=F
 DIIS: error= 3.42D-04 at cycle   5 NSaved=   5.
 NSaved= 5 IEnMin= 5 EnMin= -1758.33188278346     IErMin= 5 ErrMin= 3.42D-04
 ErrMax= 3.42D-04  0.00D+00 EMaxC= 1.00D-01 BMatC= 1.00D-04 BMatP= 2.39D-03
 IDIUse=3 WtCom= 9.97D-01 WtEn= 3.42D-03
 Coeff-Com:  0.220D-02-0.157D-01-0.820D-01-0.903D-01 0.119D+01
 Coeff-En:   0.000D+00 0.000D+00 0.000D+00 0.000D+00 0.100D+01
 Coeff:      0.220D-02-0.156D-01-0.817D-01-0.900D-01 0.119D+01
 Gap=     0.412 Goal=   None    Shift=    0.000
 RMSDP=3.64D-05 MaxDP=1.25D-03 DE=-2.41D-03 OVMax= 4.28D-03

 Cycle   6  Pass 0  IDiag  1:
 RMSU=  1.53D-05    CP:  9.78D-01  8.21D-01  9.92D-01  1.02D+00  1.39D+00
 E= -1758.33218230622     Delta-E=       -0.000299522759 Rises=F Damp=F
 DIIS: error= 1.17D-04 at cycle   6 NSaved=   6.
 NSaved= 6 IEnMin= 6 EnMin= -1758.33218230622     IErMin= 6 ErrMin= 1.17D-04
 ErrMax= 1.17D-04  0.00D+00 EMaxC= 1.00D-01 BMatC= 1.97D-05 BMatP= 1.00D-04
 IDIUse=3 WtCom= 9.99D-01 WtEn= 1.17D-03
 Coeff-Com:  0.187D-02-0.482D-02-0.380D-01-0.106D+00 0.214D+00 0.932D+00
 Coeff-En:   0.000D+00 0.000D+00 0.000D+00 0.000D+00 0.000D+00 0.100D+01
 Coeff:      0.187D-02-0.482D-02-0.380D-01-0.106D+00 0.214D+00 0.933D+00
 Gap=     0.412 Goal=   None    Shift=    0.000
 RMSDP=1.32D-05 MaxDP=5.89D-04 DE=-3.00D-04 OVMax= 1.48D-03

 Cycle   7  Pass 0  IDiag  1:
 RMSU=  5.01D-06    CP:  9.78D-01  8.21D-01  9.99D-01  1.05D+00  1.57D+00
                    CP:  1.21D+00
 E= -1758.33222438707     Delta-E=       -0.000042080845 Rises=F Damp=F
 DIIS: error= 5.08D-05 at cycle   7 NSaved=   7.
 NSaved= 7 IEnMin= 7 EnMin= -1758.33222438707     IErMin= 7 ErrMin= 5.08D-05
 ErrMax= 5.08D-05  0.00D+00 EMaxC= 1.00D-01 BMatC= 2.56D-06 BMatP= 1.97D-05
 IDIUse=1 WtCom= 1.00D+00 WtEn= 0.00D+00
 Coeff-Com: -0.254D-03 0.223D-02 0.137D-01 0.567D-02-0.148D+00-0.376D-01
 Coeff-Com:  0.116D+01
 Coeff:     -0.254D-03 0.223D-02 0.137D-01 0.567D-02-0.148D+00-0.376D-01
 Coeff:      0.116D+01
 Gap=     0.412 Goal=   None    Shift=    0.000
 RMSDP=6.36D-06 MaxDP=2.70D-04 DE=-4.21D-05 OVMax= 7.82D-04

 Initial convergence to 1.0D-05 achieved.  Increase integral accuracy.
 Cycle   8  Pass 1  IDiag  1:
 E= -1758.33224478671     Delta-E=       -0.000020399648 Rises=F Damp=F
 DIIS: error= 4.39D-05 at cycle   1 NSaved=   1.
 NSaved= 1 IEnMin= 1 EnMin= -1758.33224478671     IErMin= 1 ErrMin= 4.39D-05
 ErrMax= 4.39D-05  0.00D+00 EMaxC= 1.00D-01 BMatC= 1.80D-06 BMatP= 1.80D-06
 IDIUse=1 WtCom= 1.00D+00 WtEn= 0.00D+00
 Coeff-Com:  0.100D+01
 Coeff:      0.100D+01
 Gap=     0.411 Goal=   None    Shift=    0.000
 RMSDP=6.36D-06 MaxDP=2.70D-04 DE=-2.04D-05 OVMax= 1.98D-04

 Cycle   9  Pass 1  IDiag  1:
 RMSU=  1.06D-05    CP:  1.00D+00
 E= -1758.33224674465     Delta-E=       -0.000001957933 Rises=F Damp=F
 DIIS: error= 1.30D-05 at cycle   2 NSaved=   2.
 NSaved= 2 IEnMin= 2 EnMin= -1758.33224674465     IErMin= 2 ErrMin= 1.30D-05
 ErrMax= 1.30D-05  0.00D+00 EMaxC= 1.00D-01 BMatC= 1.84D-07 BMatP= 1.80D-06
 IDIUse=1 WtCom= 1.00D+00 WtEn= 0.00D+00
 Coeff-Com:  0.794D-01 0.921D+00
 Coeff:      0.794D-01 0.921D+00
 Gap=     0.411 Goal=   None    Shift=    0.000
 RMSDP=1.10D-06 MaxDP=1.05D-04 DE=-1.96D-06 OVMax= 1.83D-04

 Cycle  10  Pass 1  IDiag  1:
 RMSU=  9.39D-07    CP:  1.00D+00  1.05D+00
 E= -1758.33224703425     Delta-E=       -0.000000289602 Rises=F Damp=F
 DIIS: error= 1.09D-05 at cycle   3 NSaved=   3.
 NSaved= 3 IEnMin= 3 EnMin= -1758.33224703425     IErMin= 3 ErrMin= 1.09D-05
 ErrMax= 1.09D-05  0.00D+00 EMaxC= 1.00D-01 BMatC= 9.24D-08 BMatP= 1.84D-07
 IDIUse=1 WtCom= 1.00D+00 WtEn= 0.00D+00
 Coeff-Com: -0.644D-01 0.358D+00 0.706D+00
 Coeff:     -0.644D-01 0.358D+00 0.706D+00
 Gap=     0.411 Goal=   None    Shift=    0.000
 RMSDP=5.31D-07 MaxDP=4.64D-05 DE=-2.90D-07 OVMax= 5.68D-05

 Cycle  11  Pass 1  IDiag  1:
 RMSU=  4.83D-07    CP:  1.00D+00  1.07D+00  1.10D+00
 E= -1758.33224715979     Delta-E=       -0.000000125541 Rises=F Damp=F
 DIIS: error= 3.62D-06 at cycle   4 NSaved=   4.
 NSaved= 4 IEnMin= 4 EnMin= -1758.33224715979     IErMin= 4 ErrMin= 3.62D-06
 ErrMax= 3.62D-06  0.00D+00 EMaxC= 1.00D-01 BMatC= 1.22D-08 BMatP= 9.24D-08
 IDIUse=1 WtCom= 1.00D+00 WtEn= 0.00D+00
 Coeff-Com:  0.148D-01-0.401D+00-0.512D+00 0.190D+01
 Coeff:      0.148D-01-0.401D+00-0.512D+00 0.190D+01
 Gap=     0.411 Goal=   None    Shift=    0.000
 RMSDP=6.90D-07 MaxDP=2.62D-05 DE=-1.26D-07 OVMax= 9.13D-05

 Cycle  12  Pass 1  IDiag  1:
 RMSU=  1.32D-07    CP:  1.00D+00  1.08D+00  1.59D+00  1.99D+00
 E= -1758.33224722043     Delta-E=       -0.000000060641 Rises=F Damp=F
 DIIS: error= 6.91D-07 at cycle   5 NSaved=   5.
 NSaved= 5 IEnMin= 5 EnMin= -1758.33224722043     IErMin= 5 ErrMin= 6.91D-07
 ErrMax= 6.91D-07  0.00D+00 EMaxC= 1.00D-01 BMatC= 6.62D-10 BMatP= 1.22D-08
 IDIUse=1 WtCom= 1.00D+00 WtEn= 0.00D+00
 Coeff-Com:  0.819D-02-0.135D+00-0.196D+00 0.544D+00 0.779D+00
 Coeff:      0.819D-02-0.135D+00-0.196D+00 0.544D+00 0.779D+00
 Gap=     0.411 Goal=   None    Shift=    0.000
 RMSDP=8.00D-08 MaxDP=3.74D-06 DE=-6.06D-08 OVMax= 9.01D-06

 Cycle  13  Pass 1  IDiag  1:
 RMSU=  3.61D-08    CP:  1.00D+00  1.08D+00  1.64D+00  2.11D+00  1.10D+00
 E= -1758.33224722153     Delta-E=       -0.000000001100 Rises=F Damp=F
 DIIS: error= 1.34D-07 at cycle   6 NSaved=   6.
 NSaved= 6 IEnMin= 6 EnMin= -1758.33224722153     IErMin= 6 ErrMin= 1.34D-07
 ErrMax= 1.34D-07  0.00D+00 EMaxC= 1.00D-01 BMatC= 3.68D-11 BMatP= 6.62D-10
 IDIUse=1 WtCom= 1.00D+00 WtEn= 0.00D+00
 Coeff-Com: -0.147D-02 0.369D-01 0.444D-01-0.168D+00-0.282D-01 0.112D+01
 Coeff:     -0.147D-02 0.369D-01 0.444D-01-0.168D+00-0.282D-01 0.112D+01
 Gap=     0.411 Goal=   None    Shift=    0.000
 RMSDP=2.35D-08 MaxDP=1.18D-06 DE=-1.10D-09 OVMax= 2.01D-06

 Cycle  14  Pass 1  IDiag  1:
 RMSU=  1.18D-08    CP:  1.00D+00  1.08D+00  1.64D+00  2.13D+00  1.21D+00
                    CP:  1.27D+00
 E= -1758.33224722164     Delta-E=       -0.000000000110 Rises=F Damp=F
 DIIS: error= 3.99D-08 at cycle   7 NSaved=   7.
 NSaved= 7 IEnMin= 7 EnMin= -1758.33224722164     IErMin= 7 ErrMin= 3.99D-08
 ErrMax= 3.99D-08  0.00D+00 EMaxC= 1.00D-01 BMatC= 5.97D-12 BMatP= 3.68D-11
 IDIUse=1 WtCom= 1.00D+00 WtEn= 0.00D+00
 Coeff-Com: -0.120D-02 0.224D-01 0.297D-01-0.913D-01-0.912D-01 0.222D+00
 Coeff-Com:  0.909D+00
 Coeff:     -0.120D-02 0.224D-01 0.297D-01-0.913D-01-0.912D-01 0.222D+00
 Coeff:      0.909D+00
 Gap=     0.411 Goal=   None    Shift=    0.000
 RMSDP=6.87D-09 MaxDP=4.47D-07 DE=-1.10D-10 OVMax= 6.48D-07

 SCF Done:  E(RHF) =  -1758.33224722     A.U. after   14 cycles
            NFock= 14  Conv=0.69D-08     -V/T= 2.0014
 KE= 1.755814330674D+03 PE=-1.107925553454D+04 EE= 4.077900653956D+03
 Leave Link  502 at Sun Feb  9 22:23:35 2020, MaxMem=   280000000 cpu:             507.8 elap:              21.4
 (Enter /home/soft/g16/l601.exe)
 Copying SCF densities to generalized density rwf, IOpCl= 0 IROHF=0.

 **********************************************************************

            Population analysis using the SCF density.

 **********************************************************************

 Orbital symmetries:
       Occupied  (A) (A) (A) (A) (A) (A) (A) (A) (A) (A) (A) (A)
                 (A) (A) (A) (A) (A) (A) (A) (A) (A) (A) (A) (A)
                 (A) (A) (A) (A) (A) (A) (A) (A) (A) (A) (A) (A)
                 (A) (A) (A) (A) (A) (A) (A) (A) (A) (A) (A) (A)
                 (A) (A) (A) (A) (A) (A) (A) (A) (A) (A) (A) (A)
                 (A) (A) (A) (A) (A) (A) (A) (A) (A) (A) (A) (A)
                 (A) (A) (A) (A) (A) (A) (A) (A) (A) (A) (A) (A)
                 (A) (A) (A) (A) (A) (A) (A) (A) (A) (A) (A) (A)
                 (A) (A) (A) (A) (A) (A) (A) (A) (A) (A) (A) (A)
                 (A) (A) (A) (A) (A) (A) (A) (A) (A) (A) (A) (A)
                 (A) (A) (A) (A) (A) (A) (A) (A) (A) (A) (A) (A)
                 (A) (A)
       Virtual   (A) (A) (A) (A) (A) (A) (A) (A) (A) (A) (A) (A)
                 (A) (A) (A) (A) (A) (A) (A) (A) (A) (A) (A) (A)
                 (A) (A) (A) (A) (A) (A) (A) (A) (A) (A) (A) (A)
                 (A) (A) (A) (A) (A) (A) (A) (A) (A) (A) (A) (A)
                 (A) (A) (A) (A) (A) (A) (A) (A) (A) (A) (A) (A)
                 (A) (A) (A) (A) (A) (A) (A) (A) (A) (A) (A) (A)
                 (A) (A) (A) (A) (A) (A) (A) (A) (A) (A) (A) (A)
                 (A) (A) (A) (A) (A) (A) (A) (A) (A) (A) (A) (A)
                 (A) (A) (A) (A) (A) (A) (A) (A) (A) (A) (A) (A)
                 (A) (A) (A) (A) (A) (A) (A) (A) (A) (A) (A) (A)
                 (A) (A) (A) (A) (A) (A) (A) (A) (A) (A) (A) (A)
                 (A) (A) (A) (A) (A) (A) (A) (A) (A) (A) (A) (A)
                 (A) (A) (A) (A) (A) (A) (A) (A) (A) (A) (A) (A)
                 (A) (A) (A) (A) (A) (A) (A) (A) (A) (A) (A) (A)
                 (A) (A) (A) (A) (A) (A) (A) (A) (A) (A) (A) (A)
                 (A) (A) (A) (A) (A) (A) (A) (A) (A) (A) (A) (A)
                 (A) (A) (A) (A) (A) (A) (A) (A) (A) (A) (A) (A)
                 (A) (A) (A) (A) (A) (A) (A) (A) (A) (A) (A) (A)
                 (A) (A) (A) (A) (A) (A) (A) (A) (A) (A) (A) (A)
                 (A) (A) (A) (A) (A) (A) (A) (A) (A) (A) (A) (A)
                 (A) (A) (A) (A) (A) (A) (A) (A) (A) (A) (A) (A)
                 (A) (A) (A) (A) (A) (A) (A) (A) (A) (A) (A) (A)
                 (A) (A) (A) (A) (A) (A) (A) (A) (A) (A) (A) (A)
                 (A) (A) (A) (A) (A) (A) (A) (A) (A) (A) (A) (A)
                 (A) (A) (A) (A) (A) (A) (A) (A) (A) (A) (A) (A)
                 (A) (A) (A) (A) (A) (A) (A) (A) (A) (A) (A) (A)
                 (A) (A) (A) (A) (A) (A) (A) (A) (A) (A) (A) (A)
                 (A) (A) (A) (A) (A) (A) (A) (A) (A) (A) (A) (A)
                 (A) (A) (A) (A) (A) (A) (A) (A) (A) (A) (A) (A)
                 (A) (A) (A) (A) (A) (A) (A) (A) (A) (A) (A) (A)
                 (A) (A) (A) (A) (A) (A) (A) (A) (A) (A) (A) (A)
                 (A) (A) (A) (A) (A) (A) (A) (A) (A) (A) (A) (A)
                 (A) (A) (A) (A) (A) (A) (A) (A) (A) (A) (A) (A)
                 (A) (A) (A) (A) (A) (A) (A) (A) (A) (A) (A) (A)
                 (A) (A) (A) (A) (A) (A) (A) (A) (A) (A) (A) (A)
                 (A) (A) (A) (A) (A) (A) (A) (A) (A) (A) (A) (A)
                 (A) (A) (A) (A) (A) (A) (A) (A) (A) (A) (A) (A)
                 (A) (A) (A) (A) (A) (A) (A) (A) (A) (A) (A) (A)
                 (A) (A) (A) (A) (A) (A) (A) (A) (A) (A) (A) (A)
                 (A) (A) (A) (A) (A) (A) (A) (A) (A) (A) (A) (A)
                 (A) (A) (A) (A) (A) (A) (A) (A) (A) (A) (A) (A)
                 (A) (A) (A) (A) (A) (A) (A) (A) (A) (A) (A) (A)
                 (A) (A) (A) (A) (A) (A) (A) (A) (A) (A) (A) (A)
                 (A) (A) (A) (A) (A) (A) (A) (A) (A) (A) (A) (A)
                 (A) (A) (A) (A) (A) (A) (A) (A)
 The electronic state is 1-A.
 Alpha  occ. eigenvalues --  -20.68103 -20.66871 -20.61608 -20.58884 -20.58521
 Alpha  occ. eigenvalues --  -20.57472 -20.56753 -20.56569 -15.90373 -15.74044
 Alpha  occ. eigenvalues --  -15.68591 -15.66176 -15.64925 -15.64344 -15.64307
 Alpha  occ. eigenvalues --  -11.52551 -11.49305 -11.45551 -11.44126 -11.42719
 Alpha  occ. eigenvalues --  -11.41255 -11.40518 -11.40349 -11.40101 -11.36542
 Alpha  occ. eigenvalues --  -11.34672 -11.33879 -11.33748 -11.33338 -11.32181
 Alpha  occ. eigenvalues --  -11.29509 -11.27662 -11.26817 -11.26427 -11.26331
 Alpha  occ. eigenvalues --   -1.55051  -1.51791  -1.51378  -1.46368  -1.43671
 Alpha  occ. eigenvalues --   -1.42338  -1.41654  -1.40828  -1.37735  -1.37652
 Alpha  occ. eigenvalues --   -1.32389  -1.29992  -1.28769  -1.28306  -1.27978
 Alpha  occ. eigenvalues --   -1.20999  -1.15774  -1.13109  -1.11825  -1.10460
 Alpha  occ. eigenvalues --   -1.08669  -1.06840  -1.01640  -1.00073  -0.99748
 Alpha  occ. eigenvalues --   -0.98072  -0.96892  -0.96483  -0.95243  -0.93982
 Alpha  occ. eigenvalues --   -0.92692  -0.90051  -0.88692  -0.87863  -0.86572
 Alpha  occ. eigenvalues --   -0.85304  -0.85171  -0.84398  -0.83726  -0.82384
 Alpha  occ. eigenvalues --   -0.81079  -0.79194  -0.77856  -0.76578  -0.74730
 Alpha  occ. eigenvalues --   -0.73856  -0.73736  -0.73618  -0.72936  -0.71943
 Alpha  occ. eigenvalues --   -0.71336  -0.71023  -0.70294  -0.69506  -0.69321
 Alpha  occ. eigenvalues --   -0.68849  -0.68280  -0.68241  -0.67207  -0.66722
 Alpha  occ. eigenvalues --   -0.65968  -0.65424  -0.65158  -0.64602  -0.64150
 Alpha  occ. eigenvalues --   -0.63505  -0.63229  -0.63048  -0.63016  -0.62253
 Alpha  occ. eigenvalues --   -0.61741  -0.60716  -0.60067  -0.59527  -0.59354
 Alpha  occ. eigenvalues --   -0.58974  -0.58761  -0.58558  -0.58318  -0.57812
 Alpha  occ. eigenvalues --   -0.57507  -0.57073  -0.56761  -0.55800  -0.54595
 Alpha  occ. eigenvalues --   -0.53549  -0.53490  -0.51337  -0.50033  -0.49464
 Alpha  occ. eigenvalues --   -0.48752  -0.48065  -0.47493  -0.47007  -0.46188
 Alpha  occ. eigenvalues --   -0.45336  -0.44300  -0.43917  -0.43162
 Alpha virt. eigenvalues --   -0.02017   0.02530   0.06020   0.07122   0.07919
 Alpha virt. eigenvalues --    0.08582   0.11339   0.12549   0.12729   0.13110
 Alpha virt. eigenvalues --    0.13572   0.13814   0.14513   0.14952   0.16595
 Alpha virt. eigenvalues --    0.17550   0.17978   0.18143   0.18792   0.19256
 Alpha virt. eigenvalues --    0.19303   0.20785   0.21566   0.22422   0.22953
 Alpha virt. eigenvalues --    0.23038   0.23199   0.23728   0.24189   0.24724
 Alpha virt. eigenvalues --    0.24850   0.25304   0.25571   0.26291   0.26358
 Alpha virt. eigenvalues --    0.26509   0.26847   0.27256   0.27906   0.28051
 Alpha virt. eigenvalues --    0.28269   0.28706   0.28801   0.29344   0.29503
 Alpha virt. eigenvalues --    0.29653   0.30077   0.30577   0.31275   0.32361
 Alpha virt. eigenvalues --    0.32479   0.33575   0.34084   0.34285   0.34766
 Alpha virt. eigenvalues --    0.35267   0.35472   0.35961   0.36737   0.37342
 Alpha virt. eigenvalues --    0.38449   0.39918   0.41349   0.41824   0.44129
 Alpha virt. eigenvalues --    0.45661   0.45948   0.47414   0.48757   0.49294
 Alpha virt. eigenvalues --    0.50054   0.50419   0.52938   0.53342   0.53734
 Alpha virt. eigenvalues --    0.54792   0.55255   0.56597   0.57863   0.58879
 Alpha virt. eigenvalues --    0.60380   0.63064   0.63527   0.64532   0.65622
 Alpha virt. eigenvalues --    0.65853   0.66452   0.66664   0.66945   0.67384
 Alpha virt. eigenvalues --    0.68149   0.68534   0.69066   0.69642   0.69866
 Alpha virt. eigenvalues --    0.70122   0.70690   0.71124   0.71930   0.72779
 Alpha virt. eigenvalues --    0.72984   0.73719   0.73957   0.74703   0.75810
 Alpha virt. eigenvalues --    0.77042   0.77303   0.78630   0.79130   0.79476
 Alpha virt. eigenvalues --    0.80504   0.80666   0.80903   0.81494   0.81734
 Alpha virt. eigenvalues --    0.82297   0.82571   0.83312   0.83695   0.84308
 Alpha virt. eigenvalues --    0.84595   0.85087   0.85554   0.85787   0.86125
 Alpha virt. eigenvalues --    0.86266   0.86692   0.87146   0.88000   0.88426
 Alpha virt. eigenvalues --    0.88779   0.90163   0.90260   0.90861   0.91314
 Alpha virt. eigenvalues --    0.91786   0.92500   0.93953   0.94708   0.95493
 Alpha virt. eigenvalues --    0.95926   0.96912   0.97294   0.98233   0.98776
 Alpha virt. eigenvalues --    0.99076   0.99453   1.00069   1.00401   1.00678
 Alpha virt. eigenvalues --    1.01631   1.02230   1.02579   1.02871   1.03406
 Alpha virt. eigenvalues --    1.03756   1.04007   1.04546   1.04851   1.05229
 Alpha virt. eigenvalues --    1.05564   1.06092   1.06730   1.06886   1.07325
 Alpha virt. eigenvalues --    1.07478   1.07899   1.08230   1.08631   1.09123
 Alpha virt. eigenvalues --    1.09293   1.09613   1.09771   1.10377   1.10533
 Alpha virt. eigenvalues --    1.10722   1.10996   1.11304   1.11835   1.12235
 Alpha virt. eigenvalues --    1.12589   1.13040   1.13255   1.14063   1.14304
 Alpha virt. eigenvalues --    1.14588   1.15197   1.15323   1.15394   1.16323
 Alpha virt. eigenvalues --    1.16931   1.16980   1.17429   1.17997   1.18352
 Alpha virt. eigenvalues --    1.18633   1.18774   1.19984   1.20496   1.20722
 Alpha virt. eigenvalues --    1.21459   1.23130   1.23925   1.24179   1.25079
 Alpha virt. eigenvalues --    1.26340   1.27877   1.28880   1.29987   1.30551
 Alpha virt. eigenvalues --    1.31196   1.31274   1.32022   1.32952   1.34809
 Alpha virt. eigenvalues --    1.35960   1.36267   1.36505   1.36743   1.37852
 Alpha virt. eigenvalues --    1.39069   1.39642   1.41025   1.41568   1.43128
 Alpha virt. eigenvalues --    1.44698   1.45640   1.47025   1.49006   1.49262
 Alpha virt. eigenvalues --    1.51644   1.52993   1.53601   1.54898   1.55426
 Alpha virt. eigenvalues --    1.55832   1.57116   1.58155   1.58833   1.59554
 Alpha virt. eigenvalues --    1.59881   1.61326   1.62460   1.63159   1.64235
 Alpha virt. eigenvalues --    1.65577   1.66317   1.67325   1.68329   1.69172
 Alpha virt. eigenvalues --    1.69696   1.70086   1.70447   1.71200   1.72595
 Alpha virt. eigenvalues --    1.73339   1.75515   1.75754   1.76390   1.77319
 Alpha virt. eigenvalues --    1.78243   1.79017   1.79440   1.79782   1.80657
 Alpha virt. eigenvalues --    1.82411   1.83529   1.83797   1.84323   1.85724
 Alpha virt. eigenvalues --    1.86386   1.86896   1.87417   1.87676   1.88474
 Alpha virt. eigenvalues --    1.90589   1.90788   1.91365   1.92779   1.93149
 Alpha virt. eigenvalues --    1.93826   1.94144   1.94794   1.95913   1.98462
 Alpha virt. eigenvalues --    1.98741   1.98808   2.00153   2.00366   2.00826
 Alpha virt. eigenvalues --    2.01538   2.02139   2.02524   2.03360   2.03978
 Alpha virt. eigenvalues --    2.04350   2.04786   2.05194   2.05583   2.06808
 Alpha virt. eigenvalues --    2.07554   2.08036   2.08799   2.09464   2.09640
 Alpha virt. eigenvalues --    2.10259   2.11192   2.11530   2.12227   2.12574
 Alpha virt. eigenvalues --    2.12853   2.13246   2.13884   2.14583   2.14896
 Alpha virt. eigenvalues --    2.15268   2.15783   2.16511   2.16738   2.18089
 Alpha virt. eigenvalues --    2.18409   2.19459   2.19840   2.19884   2.20486
 Alpha virt. eigenvalues --    2.20794   2.21710   2.21787   2.23003   2.23168
 Alpha virt. eigenvalues --    2.23346   2.24375   2.25942   2.27119   2.27624
 Alpha virt. eigenvalues --    2.28404   2.28835   2.29260   2.29705   2.30303
 Alpha virt. eigenvalues --    2.30812   2.31207   2.31561   2.31609   2.32169
 Alpha virt. eigenvalues --    2.32832   2.33176   2.33421   2.33686   2.33968
 Alpha virt. eigenvalues --    2.34340   2.34835   2.35627   2.36035   2.36746
 Alpha virt. eigenvalues --    2.36809   2.37260   2.37757   2.38145   2.38514
 Alpha virt. eigenvalues --    2.38875   2.39435   2.39450   2.39968   2.40421
 Alpha virt. eigenvalues --    2.41303   2.41726   2.42405   2.43158   2.43647
 Alpha virt. eigenvalues --    2.44258   2.45679   2.45921   2.47087   2.47392
 Alpha virt. eigenvalues --    2.49147   2.49674   2.51184   2.51966   2.52228
 Alpha virt. eigenvalues --    2.52531   2.53657   2.53782   2.54974   2.55303
 Alpha virt. eigenvalues --    2.55738   2.56313   2.57118   2.57204   2.58001
 Alpha virt. eigenvalues --    2.58123   2.59294   2.61196   2.62902   2.63476
 Alpha virt. eigenvalues --    2.63574   2.64895   2.65243   2.65751   2.66454
 Alpha virt. eigenvalues --    2.67703   2.68216   2.69022   2.70903   2.71389
 Alpha virt. eigenvalues --    2.71795   2.73032   2.73298   2.74323   2.74615
 Alpha virt. eigenvalues --    2.75344   2.77142   2.77998   2.78964   2.79286
 Alpha virt. eigenvalues --    2.80087   2.81470   2.82279   2.82456   2.83491
 Alpha virt. eigenvalues --    2.84139   2.84533   2.85256   2.86412   2.87253
 Alpha virt. eigenvalues --    2.87705   2.88703   2.88924   2.89347   2.89917
 Alpha virt. eigenvalues --    2.90989   2.91358   2.92063   2.92330   2.93137
 Alpha virt. eigenvalues --    2.94108   2.95184   2.95882   2.96118   2.96632
 Alpha virt. eigenvalues --    2.96748   2.97077   2.97240   2.98584   2.99201
 Alpha virt. eigenvalues --    2.99709   3.00182   3.00510   3.01200   3.01833
 Alpha virt. eigenvalues --    3.02305   3.02601   3.02830   3.04066   3.04335
 Alpha virt. eigenvalues --    3.06162   3.07140   3.07600   3.07951   3.08330
 Alpha virt. eigenvalues --    3.10024   3.10304   3.10811   3.11149   3.12277
 Alpha virt. eigenvalues --    3.13856   3.15138   3.15198   3.16370   3.16599
 Alpha virt. eigenvalues --    3.16983   3.18767   3.19793   3.20444   3.20771
 Alpha virt. eigenvalues --    3.20910   3.21827   3.22473   3.22953   3.23374
 Alpha virt. eigenvalues --    3.23820   3.24007   3.24351   3.25414   3.26577
 Alpha virt. eigenvalues --    3.27210   3.27885   3.30688   3.32111   3.33521
 Alpha virt. eigenvalues --    3.34986   3.35627   3.36534   3.37609   3.40602
 Alpha virt. eigenvalues --    3.42101   3.44124   3.46398   3.48188   3.48960
 Alpha virt. eigenvalues --    3.50852   3.51115   3.52631   3.54258   3.56888
 Alpha virt. eigenvalues --    3.58722   3.59551   3.60003   3.60192   3.60309
 Alpha virt. eigenvalues --    3.66499   3.69537   3.71003   3.71360   3.72218
 Alpha virt. eigenvalues --    3.72735   3.73357   3.75729   3.78261   3.80108
 Alpha virt. eigenvalues --    3.80953   3.81219   3.81321   3.81925   3.82939
 Alpha virt. eigenvalues --    3.84312   3.85441   3.85987   3.86814   3.87428
 Alpha virt. eigenvalues --    3.88337   3.88520   3.90754   3.92336   3.94128
 Alpha virt. eigenvalues --    3.95982
          Condensed to atoms (all electrons):
 Mulliken charges:
               1
     1  C    0.790812
     2  O   -0.692093
     3  N   -0.721692
     4  H    0.343811
     5  C    0.004163
     6  C    0.789994
     7  O   -0.695275
     8  N   -0.723523
     9  H    0.341812
    10  C    0.006392
    11  C    0.789086
    12  O   -0.696374
    13  N   -0.724515
    14  H    0.341360
    15  C    0.007976
    16  C    0.788984
    17  O   -0.696280
    18  N   -0.725132
    19  H    0.341418
    20  C    0.008120
    21  C    0.789652
    22  O   -0.692873
    23  N   -0.724931
    24  H    0.342323
    25  C    0.012820
    26  C    0.818923
    27  O   -0.640017
    28  H    0.195056
    29  H    0.191771
    30  H    0.191062
    31  H    0.190624
    32  H    0.211398
    33  N   -0.706948
    34  H    0.199356
    35  C   -0.006546
    36  C    0.762974
    37  O   -0.655308
    38  H    0.350333
    39  C   -0.331476
    40  H    0.159001
    41  H    0.135616
    42  H    0.138442
    43  C   -0.321750
    44  H    0.154393
    45  H    0.126453
    46  H    0.139422
    47  C   -0.321728
    48  H    0.151809
    49  H    0.127976
    50  H    0.138607
    51  C   -0.321789
    52  H    0.149990
    53  H    0.131720
    54  H    0.139752
    55  C   -0.322066
    56  H    0.143696
    57  H    0.138820
    58  H    0.140585
    59  C   -0.324463
    60  H    0.152356
    61  H    0.149343
    62  H    0.152061
    63  C   -0.202082
    64  H    0.248956
    65  H    0.223376
    66  N   -0.591566
    67  H    0.401638
    68  H    0.396329
    69  H    0.411528
    70  O   -0.615475
    71  H    0.391814
 Sum of Mulliken charges =   1.00000
 Mulliken charges with hydrogens summed into heavy atoms:
               1
     1  C    0.790812
     2  O   -0.692093
     3  N   -0.377882
     5  C    0.199219
     6  C    0.789994
     7  O   -0.695275
     8  N   -0.381711
    10  C    0.198162
    11  C    0.789086
    12  O   -0.696374
    13  N   -0.383155
    15  C    0.199038
    16  C    0.788984
    17  O   -0.696280
    18  N   -0.383715
    20  C    0.198745
    21  C    0.789652
    22  O   -0.692873
    23  N   -0.382609
    25  C    0.224218
    26  C    0.818923
    27  O   -0.640017
    33  N   -0.356615
    35  C    0.192810
    36  C    0.762974
    37  O   -0.655308
    39  C    0.101582
    43  C    0.098518
    47  C    0.096663
    51  C    0.099672
    55  C    0.101035
    59  C    0.129297
    63  C    0.270250
    66  N    0.617929
    70  O   -0.223661
 Electronic spatial extent (au):  <R**2>=          53722.7934
 Charge=              1.0000 electrons
 Dipole moment (field-independent basis, Debye):
    X=            -48.1271    Y=             -5.2444    Z=             -1.1760  Tot=             48.4263
 Quadrupole moment (field-independent basis, Debye-Ang):
   XX=            524.4925   YY=           -192.5477   ZZ=           -222.4373
   XY=             62.1902   XZ=             23.9479   YZ=             17.5532
 Traceless Quadrupole moment (field-independent basis, Debye-Ang):
   XX=            487.9900   YY=           -229.0502   ZZ=           -258.9398
   XY=             62.1902   XZ=             23.9479   YZ=             17.5532
 Octapole moment (field-independent basis, Debye-Ang**2):
  XXX=          -7335.4311  YYY=            -15.0176  ZZZ=            -10.8967  XYY=            -99.9720
  XXY=           -847.1647  XXZ=           -194.8906  XZZ=           -109.8524  YZZ=            -10.0492
  YYZ=             -4.7721  XYZ=            -39.3936
 Hexadecapole moment (field-independent basis, Debye-Ang**3):
 XXXX=          54356.8408 YYYY=          -1747.0425 ZZZZ=           -981.5478 XXXY=          10474.4178
 XXXZ=           4719.5541 YYYX=            218.5185 YYYZ=              0.5843 ZZZX=            144.7227
 ZZZY=             27.0160 XXYY=          -9721.1797 XXZZ=         -11378.2389 YYZZ=           -461.1315
 XXYZ=           1395.2118 YYXZ=            101.9474 ZZXY=            101.3182
 N-N= 3.487208302688D+03 E-N=-1.107925552810D+04  KE= 1.755814330674D+03
 No NMR shielding tensors so no spin-rotation constants.
 Leave Link  601 at Sun Feb  9 22:23:35 2020, MaxMem=   280000000 cpu:               7.1 elap:               0.4
 (Enter /home/soft/g16/l9999.exe)
 1\1\GINC-NODE13\SP\RHF\6-31G(d,p)\C20H36N7O8(1+)\ROOT\09-Feb-2020\0\\#
 p hf/6-31g(d,p) 5d 7f geom=conn\\gebf{dis=3.0 frag=conn charge=npa}\\1
 ,1\C,0,-28.92011103,-0.10957075,0.40842711\O,0,-28.95071106,-0.8927293
 8,1.39294189\N,0,-27.79756193,0.02248095,-0.30676127\H,0,-27.77391109,
 0.64422092,-1.08962406\C,0,-26.59860648,-0.74574567,0.05777073\C,0,-25
 .34084859,0.05079684,-0.33544078\O,0,-25.37453753,0.83347782,-1.320246
 88\N,0,-24.21266043,-0.08851648,0.36951011\H,0,-24.18479271,-0.7116695
 1,1.15111005\C,0,-23.01400434,0.67529095,-0.00513183\C,0,-21.75464747,
 -0.12467167,0.37589694\O,0,-21.78077866,-0.90888683,1.35973061\N,0,-20
 .632814,0.01470798,-0.33914568\H,0,-20.6129361,0.6368448,-1.12181425\C
 ,0,-19.42916758,-0.74611779,0.02558019\C,0,-18.17588033,0.05841713,-0.
 36633878\O,0,-18.21307112,0.84079634,-1.35122805\N,0,-17.04789203,-0.0
 7397281,0.34036862\H,0,-17.01782543,-0.69687498,1.12205073\C,0,-15.852
 66112,0.69659926,-0.03174289\C,0,-14.58993554,-0.09650152,0.35300664\O
 ,0,-14.61516027,-0.88108862,1.33654158\N,0,-13.46625697,0.0488256,-0.3
 5813501\H,0,-13.44635633,0.6722978,-1.13971313\C,0,-12.26060756,-0.707
 72358,0.00933655\C,0,-11.00896958,0.10188677,-0.37723903\O,0,-11.04609
 56,0.88685584,-1.36012807\H,0,-26.59440733,-0.92099605,1.11334726\H,0,
 -23.01876762,0.85140986,-1.06051668\H,0,-19.4245311,-0.9217513,1.08103
 723\H,0,-15.85573906,0.87240344,-1.08720598\H,0,-12.25870636,-0.885174
 46,1.06451874\N,0,-31.37754044,-0.06004522,0.40218815\H,0,-30.17893174
 ,0.87251768,-1.02882779\C,0,-30.17499615,0.69726489,0.02672781\C,0,-32
 .50543829,0.08362068,-0.30246823\O,0,-32.53684167,0.86696814,-1.286800
 63\H,0,-31.35243531,-0.68259063,1.18438064\C,0,-12.25192619,-2.0543474
 8,-0.7377247\H,0,-13.12156044,-2.61688295,-0.46911276\H,0,-11.37432661
 ,-2.60494402,-0.47026516\H,0,-12.25382395,-1.87685506,-1.79289696\C,0,
 -15.85891261,2.04442139,0.71319459\H,0,-16.73625128,2.5955559,0.445902
 08\H,0,-14.98898493,2.60555186,0.44260872\H,0,-15.8559221,1.86861426,1
 .76863982\C,0,-19.4281988,-2.09414299,-0.71902108\H,0,-20.29920458,-2.
 65272994,-0.44653879\H,0,-18.55192429,-2.64775115,-0.45337636\H,0,-19.
 432823,-1.91859011,-1.77450535\C,0,-23.01089409,2.02279208,0.74037059\
 H,0,-23.88588443,2.57884226,0.47562253\H,0,-22.13860563,2.57925996,0.4
 6773647\H,0,-23.00608464,1.84652552,1.79575177\C,0,-26.60640476,-2.094
 04775,-0.68625187\H,0,-27.48062171,-2.64717984,-0.41294921\H,0,-25.733
 34779,-2.65287191,-0.42094504\H,0,-26.61066487,-1.91888468,-1.74179632
 \C,0,-30.16431954,2.04548029,0.77087064\H,0,-29.28888196,2.59674987,0.
 4976725\H,0,-30.16050049,1.87025712,1.82641317\H,0,-31.03614071,2.6062
 2754,0.50555805\C,0,-33.7653409,-0.70962604,0.09099903\H,0,-34.3412941
 6,-0.14032862,0.79033893\H,0,-33.47708669,-1.63791452,0.53835734\N,0,-
 34.57268696,-0.9736481,-1.1087118\H,0,-34.03433082,-1.50560911,-1.7623
 264\H,0,-35.39075971,-1.48884766,-0.85321049\H,0,-34.84215795,-0.10611
 349,-1.5267302\O,0,-9.91295445,-0.02574276,0.31254415\H,0,-9.13268089,
 0.47906053,0.07169634\\Version=ES64L-G16RevA.03\State=1-A\HF=-1758.332
 2472\RMSD=6.873e-09\Dipole=-18.9403031,-1.9312841,-0.7267108\Quadrupol
 e=363.0374387,-173.9859442,-189.0514945,42.0053252,23.8593482,15.28348
 36\PG=C01 [X(C20H36N7O8)]\\@


 HE THAT FOLLOWS NATURE IS NEVER LOST.

                             -- BACON
 Job cpu time:       0 days  0 hours  9 minutes 44.8 seconds.
 Elapsed time:       0 days  0 hours  0 minutes 25.0 seconds.
 File lengths (MBytes):  RWF=    300 Int=      0 D2E=      0 Chk=     32 Scr=      8
 Normal termination of Gaussian 16 at Sun Feb  9 22:23:35 2020.
