 Entering Gaussian System, Link 0=g16
 Input=c8.gjf
 Output=c8.log
 Initial command:
 /home/soft/g16/l1.exe "/tmp/gaussian/Gau-55423.inp" -scrdir="/tmp/gaussian/"
 Entering Link 1 = /home/soft/g16/l1.exe PID=     55424.
  
 Copyright (c) 1988,1990,1992,1993,1995,1998,2003,2009,2016,
            Gaussian, Inc.  All Rights Reserved.
  
 This is part of the Gaussian(R) 16 program.  It is based on
 the Gaussian(R) 09 system (copyright 2009, Gaussian, Inc.),
 the Gaussian(R) 03 system (copyright 2003, Gaussian, Inc.),
 the Gaussian(R) 98 system (copyright 1998, Gaussian, Inc.),
 the Gaussian(R) 94 system (copyright 1995, Gaussian, Inc.),
 the Gaussian 92(TM) system (copyright 1992, Gaussian, Inc.),
 the Gaussian 90(TM) system (copyright 1990, Gaussian, Inc.),
 the Gaussian 88(TM) system (copyright 1988, Gaussian, Inc.),
 the Gaussian 86(TM) system (copyright 1986, Carnegie Mellon
 University), and the Gaussian 82(TM) system (copyright 1983,
 Carnegie Mellon University). Gaussian is a federally registered
 trademark of Gaussian, Inc.
  
 This software contains proprietary and confidential information,
 including trade secrets, belonging to Gaussian, Inc.
  
 This software is provided under written license and may be
 used, copied, transmitted, or stored only in accord with that
 written license.
  
 The following legend is applicable only to US Government
 contracts under FAR:
  
                    RESTRICTED RIGHTS LEGEND
  
 Use, reproduction and disclosure by the US Government is
 subject to restrictions as set forth in subparagraphs (a)
 and (c) of the Commercial Computer Software - Restricted
 Rights clause in FAR 52.227-19.
  
 Gaussian, Inc.
 340 Quinnipiac St., Bldg. 40, Wallingford CT 06492
  
  
 ---------------------------------------------------------------
 Warning -- This program may not be used in any manner that
 competes with the business of Gaussian, Inc. or will provide
 assistance to any competitor of Gaussian, Inc.  The licensee
 of this program is prohibited from giving any competitor of
 Gaussian, Inc. access to this program.  By using this program,
 the user acknowledges that Gaussian, Inc. is engaged in the
 business of creating and licensing software in the field of
 computational chemistry and represents and warrants to the
 licensee that it is not a competitor of Gaussian, Inc. and that
 it will not use this program in any manner prohibited above.
 ---------------------------------------------------------------
  

 Cite this work as:
 Gaussian 16, Revision A.03,
 M. J. Frisch, G. W. Trucks, H. B. Schlegel, G. E. Scuseria, 
 M. A. Robb, J. R. Cheeseman, G. Scalmani, V. Barone, 
 G. A. Petersson, H. Nakatsuji, X. Li, M. Caricato, A. V. Marenich, 
 J. Bloino, B. G. Janesko, R. Gomperts, B. Mennucci, H. P. Hratchian, 
 J. V. Ortiz, A. F. Izmaylov, J. L. Sonnenberg, D. Williams-Young, 
 F. Ding, F. Lipparini, F. Egidi, J. Goings, B. Peng, A. Petrone, 
 T. Henderson, D. Ranasinghe, V. G. Zakrzewski, J. Gao, N. Rega, 
 G. Zheng, W. Liang, M. Hada, M. Ehara, K. Toyota, R. Fukuda, 
 J. Hasegawa, M. Ishida, T. Nakajima, Y. Honda, O. Kitao, H. Nakai, 
 T. Vreven, K. Throssell, J. A. Montgomery, Jr., J. E. Peralta, 
 F. Ogliaro, M. J. Bearpark, J. J. Heyd, E. N. Brothers, K. N. Kudin, 
 V. N. Staroverov, T. A. Keith, R. Kobayashi, J. Normand, 
 K. Raghavachari, A. P. Rendell, J. C. Burant, S. S. Iyengar, 
 J. Tomasi, M. Cossi, J. M. Millam, M. Klene, C. Adamo, R. Cammi, 
 J. W. Ochterski, R. L. Martin, K. Morokuma, O. Farkas, 
 J. B. Foresman, and D. J. Fox, Gaussian, Inc., Wallingford CT, 2016.
 
 ******************************************
 Gaussian 16:  ES64L-G16RevA.03 25-Dec-2016
                 9-Feb-2020 
 ******************************************
 %chk=c8.chk
 %nprocs=4
 Will use up to    4 processors via shared memory.
 -----------
 #p hf/3-21g
 -----------
 1/38=1,172=1/1;
 2/12=2,17=6,18=5,40=1/2;
 3/5=5,11=9,25=1,30=1/1,2,3;
 4//1;
 5/5=2,38=5/2;
 6/7=2,8=2,9=2,10=2,28=1/1;
 99/5=1,9=1/99;
 Leave Link    1 at Sun Feb  9 19:22:39 2020, MaxMem=           0 cpu:               0.3 elap:               0.1
 (Enter /home/soft/g16/l101.exe)
 ----------------------------------
 gebf{dis=3.0 frag=conn charge=npa}
 ----------------------------------
 Symbolic Z-matrix:
 Charge =  0 Multiplicity = 1
 C                    -7.24124   0.10812  -0.5228 
 H                    -7.548     1.1326   -0.48747 
 H                    -7.63795  -0.35282  -1.40318 
 C                    -5.70334   0.0335   -0.55283 
 H                    -5.30664   0.49444   0.32755 
 C                    -5.17791   0.76996  -1.79908 
 H                    -5.48467   1.79444  -1.76374 
 H                    -5.57461   0.30903  -2.67945 
 C                    -3.11457   1.43181  -3.07535 
 H                    -3.42133   2.45628  -3.04002 
 H                    -3.51128   0.97087  -3.95573 
 C                    -1.57667   1.35719  -3.10538 
 H                    -1.26992   0.33271  -3.14071 
 H                    -1.17997   1.81813  -2.225 
 N                    -1.07512   2.06018  -4.29498 
 H                    -1.36181   3.01763  -4.26196 
 H                    -0.07649   2.01172  -4.31448 
 F                    -5.31631  -1.25906  -0.59741 
 O                    -7.72915  -0.57574   0.63443 
 H                    -8.68784  -0.52922   0.65315 
 C                    -3.64001   0.69535  -1.8291 
 H                    -3.33325  -0.32913  -1.86444 
 H                    -3.2433    1.15628  -0.94872 
 
 ITRead=  0  0  0  0  0  0  0  0  0  0  0  0  0  0  0  0  0  0  0  0
 ITRead=  0  0  0
 MicOpt= -1 -1 -1 -1 -1 -1 -1 -1 -1 -1 -1 -1 -1 -1 -1 -1 -1 -1 -1 -1
 MicOpt= -1 -1 -1
 NAtoms=     23 NQM=       23 NQMF=       0 NMMI=      0 NMMIF=      0
                NMic=       0 NMicF=      0.
                    Isotopes and Nuclear Properties:
 (Nuclear quadrupole moments (NQMom) in fm**2, nuclear magnetic moments (NMagM)
  in nuclear magnetons)

  Atom         1           2           3           4           5           6           7           8           9          10
 IAtWgt=          12           1           1          12           1          12           1           1          12           1
 AtmWgt=  12.0000000   1.0078250   1.0078250  12.0000000   1.0078250  12.0000000   1.0078250   1.0078250  12.0000000   1.0078250
 NucSpn=           0           1           1           0           1           0           1           1           0           1
 AtZEff=  -0.0000000  -0.0000000  -0.0000000  -0.0000000  -0.0000000  -0.0000000  -0.0000000  -0.0000000  -0.0000000  -0.0000000
 NQMom=    0.0000000   0.0000000   0.0000000   0.0000000   0.0000000   0.0000000   0.0000000   0.0000000   0.0000000   0.0000000
 NMagM=    0.0000000   2.7928460   2.7928460   0.0000000   2.7928460   0.0000000   2.7928460   2.7928460   0.0000000   2.7928460
 AtZNuc=   6.0000000   1.0000000   1.0000000   6.0000000   1.0000000   6.0000000   1.0000000   1.0000000   6.0000000   1.0000000

  Atom        11          12          13          14          15          16          17          18          19          20
 IAtWgt=           1          12           1           1          14           1           1          19          16           1
 AtmWgt=   1.0078250  12.0000000   1.0078250   1.0078250  14.0030740   1.0078250   1.0078250  18.9984033  15.9949146   1.0078250
 NucSpn=           1           0           1           1           2           1           1           1           0           1
 AtZEff=  -0.0000000  -0.0000000  -0.0000000  -0.0000000  -0.0000000  -0.0000000  -0.0000000  -0.0000000  -0.0000000  -0.0000000
 NQMom=    0.0000000   0.0000000   0.0000000   0.0000000   2.0440000   0.0000000   0.0000000   0.0000000   0.0000000   0.0000000
 NMagM=    2.7928460   0.0000000   2.7928460   2.7928460   0.4037610   2.7928460   2.7928460   2.6288670   0.0000000   2.7928460
 AtZNuc=   1.0000000   6.0000000   1.0000000   1.0000000   7.0000000   1.0000000   1.0000000   9.0000000   8.0000000   1.0000000

  Atom        21          22          23
 IAtWgt=          12           1           1
 AtmWgt=  12.0000000   1.0078250   1.0078250
 NucSpn=           0           1           1
 AtZEff=  -0.0000000  -0.0000000  -0.0000000
 NQMom=    0.0000000   0.0000000   0.0000000
 NMagM=    0.0000000   2.7928460   2.7928460
 AtZNuc=   6.0000000   1.0000000   1.0000000
 Leave Link  101 at Sun Feb  9 19:22:39 2020, MaxMem=   280000000 cpu:               0.5 elap:               0.1
 (Enter /home/soft/g16/l202.exe)
                          Input orientation:                          
 ---------------------------------------------------------------------
 Center     Atomic      Atomic             Coordinates (Angstroms)
 Number     Number       Type             X           Y           Z
 ---------------------------------------------------------------------
      1          6           0       -7.241243    0.108120   -0.522803
      2          1           0       -7.548001    1.132596   -0.487467
      3          1           0       -7.637948   -0.352816   -1.403180
      4          6           0       -5.703345    0.033503   -0.552826
      5          1           0       -5.306640    0.494438    0.327550
      6          6           0       -5.177908    0.769963   -1.799078
      7          1           0       -5.484666    1.794439   -1.763742
      8          1           0       -5.574613    0.309028   -2.679455
      9          6           0       -3.114573    1.431807   -3.075353
     10          1           0       -3.421331    2.456283   -3.040017
     11          1           0       -3.511278    0.970872   -3.955729
     12          6           0       -1.576674    1.357190   -3.105376
     13          1           0       -1.269916    0.332714   -3.140712
     14          1           0       -1.179969    1.818126   -2.224999
     15          7           0       -1.075121    2.060175   -4.294980
     16          1           0       -1.361811    3.017629   -4.261955
     17          1           0       -0.076486    2.011723   -4.314475
     18          9           0       -5.316314   -1.259060   -0.597409
     19          8           0       -7.729149   -0.575736    0.634430
     20          1           0       -8.687839   -0.529222    0.653146
     21          6           0       -3.640010    0.695347   -1.829101
     22          1           0       -3.333251   -0.329129   -1.864437
     23          1           0       -3.243304    1.156282   -0.948724
 ---------------------------------------------------------------------
                    Distance matrix (angstroms):
                    1          2          3          4          5
     1  C    0.000000
     2  H    1.070000   0.000000
     3  H    1.070000   1.747303   0.000000
     4  C    1.540000   2.148263   2.148263   0.000000
     5  H    2.148263   2.468846   3.024610   1.070000   0.000000
     6  C    2.514809   2.732978   2.732978   1.540000   2.148263
     7  H    2.732978   2.514809   3.062243   2.148263   2.468846
     8  H    2.732978   3.062243   2.514809   2.148263   3.024610
     9  C    5.029619   5.142175   5.142175   3.875582   4.154945
    10  H    5.142175   5.029619   5.324484   4.154945   4.329403
    11  H    5.142175   5.324484   5.029619   4.154945   4.668704
    12  C    6.349583   6.523851   6.523851   5.029619   5.142175
    13  H    6.523851   6.862497   6.636324   5.142175   5.324484
    14  H    6.523851   6.636324   6.862497   5.142175   5.029619
    15  N    7.487383   7.566752   7.566752   6.287413   6.459494
    16  H    7.550777   7.487928   7.676093   6.442947   6.556808
    17  H    8.326718   8.440521   8.440521   7.051588   7.155772
    18  F    2.362224   3.273001   2.619262   1.350000   1.982524
    19  O    1.430000   2.051796   2.051796   2.425826   2.666083
    20  H    1.970203   2.315570   2.315570   3.267757   3.547732
    21  C    3.875582   4.154945   4.154945   2.514809   2.732978
    22  H    4.154945   4.668704   4.329403   2.732978   3.062243
    23  H    4.154945   4.329403   4.668704   2.732978   2.514809
                    6          7          8          9         10
     6  C    0.000000
     7  H    1.070000   0.000000
     8  H    1.070000   1.747303   0.000000
     9  C    2.514809   2.732978   2.732978   0.000000
    10  H    2.732978   2.514809   3.062243   1.070000   0.000000
    11  H    2.732978   3.062243   2.514809   1.070000   1.747303
    12  C    3.875582   4.154945   4.154945   1.540000   2.148263
    13  H    4.154945   4.668704   4.329403   2.148263   3.024610
    14  H    4.154945   4.329403   4.668704   2.148263   2.468846
    15  N    4.972628   5.091352   5.091352   2.457987   2.690081
    16  H    5.067580   4.973450   5.252479   2.644813   2.459648
    17  H    5.821830   5.983466   5.983466   3.331921   3.606919
    18  F    2.362224   3.273001   2.619262   4.269500   4.833329
    19  O    3.773818   4.050514   4.050514   6.251962   6.422772
    20  H    4.474472   4.636924   4.636924   6.986318   7.091460
    21  C    1.540000   2.148263   2.148263   1.540000   2.148263
    22  H    2.148263   3.024610   2.468846   2.148263   3.024610
    23  H    2.148263   2.468846   3.024610   2.148263   2.468846
                   11         12         13         14         15
    11  H    0.000000
    12  C    2.148263   0.000000
    13  H    2.468846   1.070000   0.000000
    14  H    3.024610   1.070000   1.747303   0.000000
    15  N    2.690081   1.470000   2.086720   2.086720   0.000000
    16  H    2.983823   2.034920   2.911082   2.370879   1.000000
    17  H    3.606919   2.034920   2.370879   2.370879   1.000000
    18  F    4.416907   5.207645   5.037407   5.406243   6.532769
    19  O    6.422772   7.454884   7.536489   7.536489   8.690409
    20  H    7.091460   8.261580   8.376268   8.376268   9.441525
    21  C    2.148263   2.514809   2.732978   2.732978   3.810770
    22  H    2.468846   2.732978   2.514809   3.062243   4.088455
    23  H    3.024610   2.732978   3.062243   2.514809   4.088455
                   16         17         18         19         20
    16  H    0.000000
    17  H    1.632993   0.000000
    18  F    6.881647   7.209050   0.000000
    19  O    8.799424   9.473641   2.793946   0.000000
    20  H    9.508368  10.261046   3.669296   0.960000   0.000000
    21  C    4.062261   4.539673   2.854254   4.940213   5.756883
    22  H    4.564588   4.699872   2.530349   5.062516   5.920293
    23  H    4.240535   4.699872   3.202291   5.062516   5.920293
                   21         22         23
    21  C    0.000000
    22  H    1.070000   0.000000
    23  H    1.070000   1.747303   0.000000
 Stoichiometry    C6H14FNO
 Framework group  C1[X(C6H14FNO)]
 Deg. of freedom    63
 Full point group                 C1      NOp   1
 Largest Abelian subgroup         C1      NOp   1
 Largest concise Abelian subgroup C1      NOp   1
                         Standard orientation:                         
 ---------------------------------------------------------------------
 Center     Atomic      Atomic             Coordinates (Angstroms)
 Number     Number       Type             X           Y           Z
 ---------------------------------------------------------------------
      1          6           0        2.908029   -0.728403   -0.126211
      2          1           0        2.849218   -1.667307    0.383595
      3          1           0        2.907656   -0.895752   -1.183044
      4          6           0        1.695362    0.140307    0.256386
      5          1           0        1.695735    0.307656    1.313218
      6          6           0        0.397515   -0.583157   -0.148325
      7          1           0        0.338703   -1.522060    0.361481
      8          1           0        0.397142   -0.750506   -1.205158
      9          6           0       -2.113000   -0.437910   -0.170439
     10          1           0       -2.171811   -1.376814    0.339367
     11          1           0       -2.113372   -0.605259   -1.227271
     12          6           0       -3.325666    0.430801    0.212158
     13          1           0       -3.266855    1.369704   -0.297648
     14          1           0       -3.325293    0.598149    1.268990
     15          7           0       -4.564521   -0.259779   -0.174157
     16          1           0       -4.619484   -1.137259    0.302297
     17          1           0       -5.351966    0.304319    0.074283
     18          9           0        1.769563    1.324905   -0.386827
     19          8           0        4.113173   -0.056615    0.249592
     20          1           0        4.869121   -0.598149    0.011090
     21          6           0       -0.815152    0.285554    0.234272
     22          1           0       -0.756341    1.224457   -0.275534
     23          1           0       -0.814779    0.452903    1.291104
 ---------------------------------------------------------------------
 Rotational constants (GHZ):           6.1714960           0.4607731           0.4415079
 Leave Link  202 at Sun Feb  9 19:22:39 2020, MaxMem=   280000000 cpu:               0.0 elap:               0.0
 (Enter /home/soft/g16/l301.exe)
 Standard basis: 3-21G (6D, 7F)
 Ernie: Thresh=  0.10000D-02 Tol=  0.10000D-05 Strict=F.
 There are   109 symmetry adapted cartesian basis functions of A   symmetry.
 There are   109 symmetry adapted basis functions of A   symmetry.
   109 basis functions,   177 primitive gaussians,   109 cartesian basis functions
    37 alpha electrons       37 beta electrons
       nuclear repulsion energy       470.4047199387 Hartrees.
 IExCor=    0 DFT=F Ex=HF Corr=None ExCW=0 ScaHFX=  1.000000
 ScaDFX=  1.000000  1.000000  1.000000  1.000000 ScalE2=  1.000000  1.000000
 IRadAn=      5 IRanWt=     -1 IRanGd=            0 ICorTp=0 IEmpDi=  4
 NAtoms=   23 NActive=   23 NUniq=   23 SFac= 1.00D+00 NAtFMM=   60 NAOKFM=F Big=F
 Integral buffers will be    131072 words long.
 Raffenetti 1 integral format.
 Two-electron integral symmetry is turned on.
 Leave Link  301 at Sun Feb  9 19:22:39 2020, MaxMem=   280000000 cpu:               0.3 elap:               0.1
 (Enter /home/soft/g16/l302.exe)
 NPDir=0 NMtPBC=     1 NCelOv=     1 NCel=       1 NClECP=     1 NCelD=      1
         NCelK=      1 NCelE2=     1 NClLst=     1 CellRange=     0.0.
 One-electron integrals computed using PRISM.
 One-electron integral symmetry used in STVInt
 NBasis=   109 RedAO= T EigKep=  8.13D-03  NBF=   109
 NBsUse=   109 1.00D-06 EigRej= -1.00D+00 NBFU=   109
 Leave Link  302 at Sun Feb  9 19:22:39 2020, MaxMem=   280000000 cpu:               0.4 elap:               0.1
 (Enter /home/soft/g16/l303.exe)
 DipDrv:  MaxL=1.
 Leave Link  303 at Sun Feb  9 19:22:40 2020, MaxMem=   280000000 cpu:               0.1 elap:               0.1
 (Enter /home/soft/g16/l401.exe)
 ExpMin= 1.83D-01 ExpMax= 4.14D+02 ExpMxC= 4.14D+02 IAcc=3 IRadAn=         5 AccDes= 0.00D+00
 Harris functional with IExCor=  205 and IRadAn=       5 diagonalized for initial guess.
 HarFok:  IExCor=  205 AccDes= 0.00D+00 IRadAn=         5 IDoV= 1 UseB2=F ITyADJ=14
 ICtDFT=  3500011 ScaDFX=  1.000000  1.000000  1.000000  1.000000
 FoFCou: FMM=F IPFlag=           0 FMFlag=      100000 FMFlg1=           0
         NFxFlg=           0 DoJE=T BraDBF=F KetDBF=T FulRan=T
         wScrn=  0.000000 ICntrl=       500 IOpCl=  0 I1Cent=   200000004 NGrid=           0
         NMat0=    1 NMatS0=      1 NMatT0=    0 NMatD0=    1 NMtDS0=    0 NMtDT0=    0
 Petite list used in FoFCou.
 Harris En= -462.168784890267    
 JPrj=0 DoOrth=F DoCkMO=F.
 Leave Link  401 at Sun Feb  9 19:22:40 2020, MaxMem=   280000000 cpu:               3.3 elap:               0.8
 (Enter /home/soft/g16/l502.exe)
 Keep R1 ints in memory in canonical form, NReq=18838670.
 FoFCou: FMM=F IPFlag=           0 FMFlag=           0 FMFlg1=           0
         NFxFlg=           0 DoJE=F BraDBF=F KetDBF=F FulRan=T
         wScrn=  0.000000 ICntrl=       600 IOpCl=  0 I1Cent=           0 NGrid=           0
         NMat0=    1 NMatS0=   5995 NMatT0=    0 NMatD0=    1 NMtDS0=    0 NMtDT0=    0
 Symmetry not used in FoFCou.
 Two-electron integral symmetry not used.
 Closed shell SCF:
 Using DIIS extrapolation, IDIIS=  1040.
 NGot=   280000000 LenX=   262000871 LenY=   261988549
 Requested convergence on RMS density matrix=1.00D-08 within 128 cycles.
 Requested convergence on MAX density matrix=1.00D-06.
 Requested convergence on             energy=1.00D-06.
 No special actions if energy rises.

 Cycle   1  Pass 1  IDiag  1:
 E= -461.191349115274    
 DIIS: error= 4.36D-02 at cycle   1 NSaved=   1.
 NSaved= 1 IEnMin= 1 EnMin= -461.191349115274     IErMin= 1 ErrMin= 4.36D-02
 ErrMax= 4.36D-02  0.00D+00 EMaxC= 1.00D-01 BMatC= 4.74D-01 BMatP= 4.74D-01
 IDIUse=3 WtCom= 5.64D-01 WtEn= 4.36D-01
 Coeff-Com:  0.100D+01
 Coeff-En:   0.100D+01
 Coeff:      0.100D+01
 Gap=     0.617 Goal=   None    Shift=    0.000
 GapD=    0.617 DampG=2.000 DampE=0.500 DampFc=1.0000 IDamp=-1.
 RMSDP=6.42D-03 MaxDP=9.27D-02              OVMax= 9.80D-02

 Cycle   2  Pass 1  IDiag  1:
 E= -461.477381710155     Delta-E=       -0.286032594880 Rises=F Damp=F
 DIIS: error= 1.59D-02 at cycle   2 NSaved=   2.
 NSaved= 2 IEnMin= 2 EnMin= -461.477381710155     IErMin= 2 ErrMin= 1.59D-02
 ErrMax= 1.59D-02  0.00D+00 EMaxC= 1.00D-01 BMatC= 5.65D-02 BMatP= 4.74D-01
 IDIUse=3 WtCom= 8.41D-01 WtEn= 1.59D-01
 Coeff-Com:  0.209D+00 0.791D+00
 Coeff-En:   0.000D+00 0.100D+01
 Coeff:      0.176D+00 0.824D+00
 Gap=     0.645 Goal=   None    Shift=    0.000
 RMSDP=2.09D-03 MaxDP=3.08D-02 DE=-2.86D-01 OVMax= 2.57D-02

 Cycle   3  Pass 1  IDiag  1:
 E= -461.519513981101     Delta-E=       -0.042132270947 Rises=F Damp=F
 DIIS: error= 3.56D-03 at cycle   3 NSaved=   3.
 NSaved= 3 IEnMin= 3 EnMin= -461.519513981101     IErMin= 3 ErrMin= 3.56D-03
 ErrMax= 3.56D-03  0.00D+00 EMaxC= 1.00D-01 BMatC= 1.82D-03 BMatP= 5.65D-02
 IDIUse=3 WtCom= 9.64D-01 WtEn= 3.56D-02
 Coeff-Com: -0.185D-01 0.107D+00 0.911D+00
 Coeff-En:   0.000D+00 0.000D+00 0.100D+01
 Coeff:     -0.179D-01 0.103D+00 0.914D+00
 Gap=     0.620 Goal=   None    Shift=    0.000
 RMSDP=3.45D-04 MaxDP=5.55D-03 DE=-4.21D-02 OVMax= 5.99D-03

 Cycle   4  Pass 1  IDiag  1:
 E= -461.521027076967     Delta-E=       -0.001513095865 Rises=F Damp=F
 DIIS: error= 9.64D-04 at cycle   4 NSaved=   4.
 NSaved= 4 IEnMin= 4 EnMin= -461.521027076967     IErMin= 4 ErrMin= 9.64D-04
 ErrMax= 9.64D-04  0.00D+00 EMaxC= 1.00D-01 BMatC= 7.73D-05 BMatP= 1.82D-03
 IDIUse=3 WtCom= 9.90D-01 WtEn= 9.64D-03
 Coeff-Com: -0.687D-02 0.987D-02 0.218D+00 0.779D+00
 Coeff-En:   0.000D+00 0.000D+00 0.000D+00 0.100D+01
 Coeff:     -0.680D-02 0.977D-02 0.216D+00 0.781D+00
 Gap=     0.623 Goal=   None    Shift=    0.000
 RMSDP=8.02D-05 MaxDP=1.23D-03 DE=-1.51D-03 OVMax= 1.08D-03

 Cycle   5  Pass 1  IDiag  1:
 E= -461.521091241759     Delta-E=       -0.000064164792 Rises=F Damp=F
 DIIS: error= 2.01D-04 at cycle   5 NSaved=   5.
 NSaved= 5 IEnMin= 5 EnMin= -461.521091241759     IErMin= 5 ErrMin= 2.01D-04
 ErrMax= 2.01D-04  0.00D+00 EMaxC= 1.00D-01 BMatC= 3.59D-06 BMatP= 7.73D-05
 IDIUse=3 WtCom= 9.98D-01 WtEn= 2.01D-03
 Coeff-Com:  0.211D-02-0.109D-01-0.932D-01-0.619D-01 0.116D+01
 Coeff-En:   0.000D+00 0.000D+00 0.000D+00 0.000D+00 0.100D+01
 Coeff:      0.211D-02-0.109D-01-0.931D-01-0.618D-01 0.116D+01
 Gap=     0.623 Goal=   None    Shift=    0.000
 RMSDP=3.80D-05 MaxDP=6.64D-04 DE=-6.42D-05 OVMax= 4.65D-04

 Cycle   6  Pass 1  IDiag  1:
 E= -461.521097299408     Delta-E=       -0.000006057649 Rises=F Damp=F
 DIIS: error= 5.76D-05 at cycle   6 NSaved=   6.
 NSaved= 6 IEnMin= 6 EnMin= -461.521097299408     IErMin= 6 ErrMin= 5.76D-05
 ErrMax= 5.76D-05  0.00D+00 EMaxC= 1.00D-01 BMatC= 2.03D-07 BMatP= 3.59D-06
 IDIUse=1 WtCom= 1.00D+00 WtEn= 0.00D+00
 Coeff-Com:  0.691D-03-0.291D-02-0.277D-01-0.392D-01 0.258D+00 0.812D+00
 Coeff:      0.691D-03-0.291D-02-0.277D-01-0.392D-01 0.258D+00 0.812D+00
 Gap=     0.623 Goal=   None    Shift=    0.000
 RMSDP=6.01D-06 MaxDP=7.46D-05 DE=-6.06D-06 OVMax= 1.03D-04

 Cycle   7  Pass 1  IDiag  1:
 E= -461.521097525227     Delta-E=       -0.000000225820 Rises=F Damp=F
 DIIS: error= 1.62D-05 at cycle   7 NSaved=   7.
 NSaved= 7 IEnMin= 7 EnMin= -461.521097525227     IErMin= 7 ErrMin= 1.62D-05
 ErrMax= 1.62D-05  0.00D+00 EMaxC= 1.00D-01 BMatC= 1.32D-08 BMatP= 2.03D-07
 IDIUse=1 WtCom= 1.00D+00 WtEn= 0.00D+00
 Coeff-Com: -0.279D-03 0.143D-02 0.126D-01 0.943D-02-0.144D+00-0.132D+00
 Coeff-Com:  0.125D+01
 Coeff:     -0.279D-03 0.143D-02 0.126D-01 0.943D-02-0.144D+00-0.132D+00
 Coeff:      0.125D+01
 Gap=     0.623 Goal=   None    Shift=    0.000
 RMSDP=3.08D-06 MaxDP=6.60D-05 DE=-2.26D-07 OVMax= 9.03D-05

 Cycle   8  Pass 1  IDiag  1:
 E= -461.521097559115     Delta-E=       -0.000000033888 Rises=F Damp=F
 DIIS: error= 3.51D-06 at cycle   8 NSaved=   8.
 NSaved= 8 IEnMin= 8 EnMin= -461.521097559115     IErMin= 8 ErrMin= 3.51D-06
 ErrMax= 3.51D-06  0.00D+00 EMaxC= 1.00D-01 BMatC= 7.94D-10 BMatP= 1.32D-08
 IDIUse=1 WtCom= 1.00D+00 WtEn= 0.00D+00
 Coeff-Com: -0.468D-04 0.221D-03 0.195D-02 0.231D-02-0.195D-01-0.485D-01
 Coeff-Com:  0.828D-01 0.981D+00
 Coeff:     -0.468D-04 0.221D-03 0.195D-02 0.231D-02-0.195D-01-0.485D-01
 Coeff:      0.828D-01 0.981D+00
 Gap=     0.623 Goal=   None    Shift=    0.000
 RMSDP=6.60D-07 MaxDP=2.08D-05 DE=-3.39D-08 OVMax= 2.11D-05

 Cycle   9  Pass 1  IDiag  1:
 E= -461.521097560722     Delta-E=       -0.000000001607 Rises=F Damp=F
 DIIS: error= 1.61D-06 at cycle   9 NSaved=   9.
 NSaved= 9 IEnMin= 9 EnMin= -461.521097560722     IErMin= 9 ErrMin= 1.61D-06
 ErrMax= 1.61D-06  0.00D+00 EMaxC= 1.00D-01 BMatC= 9.42D-11 BMatP= 7.94D-10
 IDIUse=1 WtCom= 1.00D+00 WtEn= 0.00D+00
 Coeff-Com:  0.309D-04-0.161D-03-0.145D-02-0.101D-02 0.171D-01 0.131D-01
 Coeff-Com: -0.155D+00 0.103D+00 0.103D+01
 Coeff:      0.309D-04-0.161D-03-0.145D-02-0.101D-02 0.171D-01 0.131D-01
 Coeff:     -0.155D+00 0.103D+00 0.103D+01
 Gap=     0.623 Goal=   None    Shift=    0.000
 RMSDP=2.74D-07 MaxDP=9.36D-06 DE=-1.61D-09 OVMax= 9.96D-06

 Cycle  10  Pass 1  IDiag  1:
 E= -461.521097560949     Delta-E=       -0.000000000227 Rises=F Damp=F
 DIIS: error= 4.25D-07 at cycle  10 NSaved=  10.
 NSaved=10 IEnMin=10 EnMin= -461.521097560949     IErMin=10 ErrMin= 4.25D-07
 ErrMax= 4.25D-07  0.00D+00 EMaxC= 1.00D-01 BMatC= 4.73D-12 BMatP= 9.42D-11
 IDIUse=1 WtCom= 1.00D+00 WtEn= 0.00D+00
 Coeff-Com: -0.189D-05 0.109D-04 0.958D-04 0.322D-04-0.127D-02 0.257D-03
 Coeff-Com:  0.156D-01-0.652D-01-0.128D+00 0.118D+01
 Coeff:     -0.189D-05 0.109D-04 0.958D-04 0.322D-04-0.127D-02 0.257D-03
 Coeff:      0.156D-01-0.652D-01-0.128D+00 0.118D+01
 Gap=     0.623 Goal=   None    Shift=    0.000
 RMSDP=7.29D-08 MaxDP=2.40D-06 DE=-2.27D-10 OVMax= 2.97D-06

 Cycle  11  Pass 1  IDiag  1:
 E= -461.521097560963     Delta-E=       -0.000000000014 Rises=F Damp=F
 DIIS: error= 9.49D-08 at cycle  11 NSaved=  11.
 NSaved=11 IEnMin=11 EnMin= -461.521097560963     IErMin=11 ErrMin= 9.49D-08
 ErrMax= 9.49D-08  0.00D+00 EMaxC= 1.00D-01 BMatC= 5.82D-13 BMatP= 4.73D-12
 IDIUse=1 WtCom= 1.00D+00 WtEn= 0.00D+00
 Coeff-Com: -0.331D-05 0.176D-04 0.157D-03 0.106D-03-0.191D-02-0.120D-02
 Coeff-Com:  0.181D-01-0.212D-01-0.120D+00 0.180D+00 0.946D+00
 Coeff:     -0.331D-05 0.176D-04 0.157D-03 0.106D-03-0.191D-02-0.120D-02
 Coeff:      0.181D-01-0.212D-01-0.120D+00 0.180D+00 0.946D+00
 Gap=     0.623 Goal=   None    Shift=    0.000
 RMSDP=1.90D-08 MaxDP=5.41D-07 DE=-1.43D-11 OVMax= 7.60D-07

 Cycle  12  Pass 1  IDiag  1:
 E= -461.521097560970     Delta-E=       -0.000000000007 Rises=F Damp=F
 DIIS: error= 2.77D-08 at cycle  12 NSaved=  12.
 NSaved=12 IEnMin=12 EnMin= -461.521097560970     IErMin=12 ErrMin= 2.77D-08
 ErrMax= 2.77D-08  0.00D+00 EMaxC= 1.00D-01 BMatC= 3.27D-14 BMatP= 5.82D-13
 IDIUse=1 WtCom= 1.00D+00 WtEn= 0.00D+00
 Coeff-Com:  0.293D-06-0.164D-05-0.139D-04-0.203D-05 0.172D-03 0.135D-04
 Coeff-Com: -0.208D-02 0.682D-02 0.152D-01-0.108D+00-0.366D-01 0.112D+01
 Coeff:      0.293D-06-0.164D-05-0.139D-04-0.203D-05 0.172D-03 0.135D-04
 Coeff:     -0.208D-02 0.682D-02 0.152D-01-0.108D+00-0.366D-01 0.112D+01
 Gap=     0.623 Goal=   None    Shift=    0.000
 RMSDP=5.45D-09 MaxDP=1.27D-07 DE=-7.28D-12 OVMax= 2.04D-07

 SCF Done:  E(RHF) =  -461.521097561     A.U. after   12 cycles
            NFock= 12  Conv=0.54D-08     -V/T= 2.0011
 KE= 4.609929940261D+02 PE=-2.026057308597D+03 EE= 6.331384970710D+02
 Leave Link  502 at Sun Feb  9 19:22:41 2020, MaxMem=   280000000 cpu:               1.6 elap:               0.6
 (Enter /home/soft/g16/l601.exe)
 Copying SCF densities to generalized density rwf, IOpCl= 0 IROHF=0.

 **********************************************************************

            Population analysis using the SCF density.

 **********************************************************************

 Orbital symmetries:
       Occupied  (A) (A) (A) (A) (A) (A) (A) (A) (A) (A) (A) (A)
                 (A) (A) (A) (A) (A) (A) (A) (A) (A) (A) (A) (A)
                 (A) (A) (A) (A) (A) (A) (A) (A) (A) (A) (A) (A)
                 (A)
       Virtual   (A) (A) (A) (A) (A) (A) (A) (A) (A) (A) (A) (A)
                 (A) (A) (A) (A) (A) (A) (A) (A) (A) (A) (A) (A)
                 (A) (A) (A) (A) (A) (A) (A) (A) (A) (A) (A) (A)
                 (A) (A) (A) (A) (A) (A) (A) (A) (A) (A) (A) (A)
                 (A) (A) (A) (A) (A) (A) (A) (A) (A) (A) (A) (A)
                 (A) (A) (A) (A) (A) (A) (A) (A) (A) (A) (A) (A)
 The electronic state is 1-A.
 Alpha  occ. eigenvalues --  -26.13000 -20.43887 -15.44276 -11.24928 -11.22050
 Alpha  occ. eigenvalues --  -11.18272 -11.16730 -11.16022 -11.15614  -1.57978
 Alpha  occ. eigenvalues --   -1.34897  -1.17641  -1.09469  -1.03046  -0.95282
 Alpha  occ. eigenvalues --   -0.86461  -0.82052  -0.80882  -0.71462  -0.69691
 Alpha  occ. eigenvalues --   -0.67238  -0.65461  -0.64654  -0.63154  -0.61587
 Alpha  occ. eigenvalues --   -0.60057  -0.57362  -0.55030  -0.52425  -0.51492
 Alpha  occ. eigenvalues --   -0.50575  -0.48204  -0.47845  -0.46561  -0.43933
 Alpha  occ. eigenvalues --   -0.43173  -0.36975
 Alpha virt. eigenvalues --    0.25341   0.26048   0.27215   0.28541   0.29418
 Alpha virt. eigenvalues --    0.31005   0.33161   0.34535   0.35966   0.37072
 Alpha virt. eigenvalues --    0.37283   0.38170   0.39013   0.39529   0.39899
 Alpha virt. eigenvalues --    0.40863   0.42625   0.43981   0.46723   0.47836
 Alpha virt. eigenvalues --    0.52898   0.56496   0.90286   0.90581   0.94737
 Alpha virt. eigenvalues --    0.95476   0.96339   0.98857   0.99826   1.02053
 Alpha virt. eigenvalues --    1.04010   1.05848   1.06434   1.12236   1.14785
 Alpha virt. eigenvalues --    1.18504   1.20796   1.23680   1.26814   1.28366
 Alpha virt. eigenvalues --    1.29505   1.31024   1.34058   1.35554   1.37460
 Alpha virt. eigenvalues --    1.40002   1.41662   1.43260   1.44687   1.45541
 Alpha virt. eigenvalues --    1.46207   1.47141   1.54904   1.57995   1.66778
 Alpha virt. eigenvalues --    1.73303   1.81281   1.85054   1.96841   1.99667
 Alpha virt. eigenvalues --    2.06970   2.17061   2.25392   2.30077   2.41956
 Alpha virt. eigenvalues --    2.45563   2.46984   2.51518   2.75503   2.98205
 Alpha virt. eigenvalues --    3.44357   4.18282
          Condensed to atoms (all electrons):
               1          2          3          4          5          6
     1  C    5.177812   0.336526   0.357346   0.225819  -0.056989  -0.092033
     2  H    0.336526   0.599826  -0.040969  -0.049275  -0.000012   0.005940
     3  H    0.357346  -0.040969   0.564328  -0.051102   0.004300  -0.000877
     4  C    0.225819  -0.049275  -0.051102   5.099975   0.361506   0.180798
     5  H   -0.056989  -0.000012   0.004300   0.361506   0.557122  -0.058730
     6  C   -0.092033   0.005940  -0.000877   0.180798  -0.058730   5.681653
     7  H    0.001600   0.000752   0.000310  -0.036847   0.002104   0.355775
     8  H   -0.004366   0.000377   0.003008  -0.042319   0.003699   0.379508
     9  C   -0.000068   0.000001   0.000001   0.003899  -0.000057  -0.076744
    10  H   -0.000002  -0.000000   0.000000  -0.000052   0.000005  -0.001358
    11  H    0.000001   0.000000  -0.000001  -0.000017  -0.000001  -0.001816
    12  C    0.000000   0.000000   0.000000  -0.000082  -0.000000   0.004331
    13  H   -0.000000   0.000000   0.000000   0.000000   0.000000  -0.000056
    14  H    0.000000   0.000000  -0.000000   0.000003  -0.000001  -0.000089
    15  N   -0.000000  -0.000000   0.000000   0.000000   0.000000  -0.000028
    16  H    0.000000  -0.000000  -0.000000   0.000000   0.000000  -0.000001
    17  H    0.000000  -0.000000  -0.000000  -0.000000   0.000000   0.000001
    18  F   -0.035231   0.001367   0.000327   0.208160  -0.032267  -0.040339
    19  O    0.224582  -0.037248  -0.037216  -0.035837   0.001604   0.001399
    20  H   -0.045175  -0.003216  -0.002415   0.005116  -0.000140  -0.000173
    21  C    0.004811  -0.000183  -0.000121  -0.070887  -0.003497   0.234849
    22  H    0.000156  -0.000008   0.000010  -0.002334   0.000459  -0.046490
    23  H   -0.000056   0.000009  -0.000000  -0.001211   0.002514  -0.047660
               7          8          9         10         11         12
     1  C    0.001600  -0.004366  -0.000068  -0.000002   0.000001   0.000000
     2  H    0.000752   0.000377   0.000001  -0.000000   0.000000   0.000000
     3  H    0.000310   0.003008   0.000001   0.000000  -0.000001   0.000000
     4  C   -0.036847  -0.042319   0.003899  -0.000052  -0.000017  -0.000082
     5  H    0.002104   0.003699  -0.000057   0.000005  -0.000001  -0.000000
     6  C    0.355775   0.379508  -0.076744  -0.001358  -0.001816   0.004331
     7  H    0.525929  -0.021924  -0.001599   0.002084   0.000114  -0.000023
     8  H   -0.021924   0.493957  -0.001123   0.000137   0.002042  -0.000030
     9  C   -0.001599  -0.001123   5.480218   0.386345   0.381729   0.258745
    10  H    0.002084   0.000137   0.386345   0.529826  -0.025500  -0.045705
    11  H    0.000114   0.002042   0.381729  -0.025500   0.490230  -0.041086
    12  C   -0.000023  -0.000030   0.258745  -0.045705  -0.041086   5.202821
    13  H   -0.000001   0.000006  -0.040929   0.003315  -0.002954   0.384499
    14  H    0.000007  -0.000001  -0.061247  -0.003033   0.003875   0.377423
    15  N   -0.000000  -0.000000  -0.058044  -0.000439   0.003480   0.244733
    16  H   -0.000001   0.000000  -0.004026   0.003305  -0.000093  -0.053016
    17  H    0.000000   0.000000   0.005122  -0.000081  -0.000061  -0.048693
    18  F    0.001328   0.000495   0.000025  -0.000000   0.000000   0.000000
    19  O   -0.000014  -0.000010   0.000000   0.000000   0.000000  -0.000000
    20  H    0.000000  -0.000001  -0.000000   0.000000   0.000000   0.000000
    21  C   -0.042607  -0.044516   0.231469  -0.047378  -0.042220  -0.079814
    22  H    0.003373  -0.001162  -0.042801   0.003067  -0.001606  -0.001235
    23  H   -0.001504   0.003140  -0.045694  -0.001582   0.003148  -0.001012
              13         14         15         16         17         18
     1  C   -0.000000   0.000000  -0.000000   0.000000   0.000000  -0.035231
     2  H    0.000000   0.000000  -0.000000  -0.000000  -0.000000   0.001367
     3  H    0.000000  -0.000000   0.000000  -0.000000  -0.000000   0.000327
     4  C    0.000000   0.000003   0.000000   0.000000  -0.000000   0.208160
     5  H    0.000000  -0.000001   0.000000   0.000000   0.000000  -0.032267
     6  C   -0.000056  -0.000089  -0.000028  -0.000001   0.000001  -0.040339
     7  H   -0.000001   0.000007  -0.000000  -0.000001   0.000000   0.001328
     8  H    0.000006  -0.000001  -0.000000   0.000000   0.000000   0.000495
     9  C   -0.040929  -0.061247  -0.058044  -0.004026   0.005122   0.000025
    10  H    0.003315  -0.003033  -0.000439   0.003305  -0.000081  -0.000000
    11  H   -0.002954   0.003875   0.003480  -0.000093  -0.000061   0.000000
    12  C    0.384499   0.377423   0.244733  -0.053016  -0.048693   0.000000
    13  H    0.506589  -0.037496  -0.033669   0.004199  -0.003011  -0.000000
    14  H   -0.037496   0.590950  -0.052939  -0.001514  -0.000870   0.000000
    15  N   -0.033669  -0.052939   6.995459   0.335174   0.335189   0.000000
    16  H    0.004199  -0.001514   0.335174   0.464367  -0.033626   0.000000
    17  H   -0.003011  -0.000870   0.335189  -0.033626   0.458860   0.000000
    18  F   -0.000000   0.000000   0.000000   0.000000   0.000000   9.298792
    19  O    0.000000   0.000000   0.000000  -0.000000  -0.000000   0.000263
    20  H   -0.000000  -0.000000  -0.000000   0.000000   0.000000  -0.000055
    21  C   -0.000966   0.002577   0.002368  -0.000018  -0.000140   0.000032
    22  H    0.002129   0.000017  -0.000007   0.000002   0.000001   0.006510
    23  H    0.000035   0.002500  -0.000020   0.000001   0.000000  -0.000198
              19         20         21         22         23
     1  C    0.224582  -0.045175   0.004811   0.000156  -0.000056
     2  H   -0.037248  -0.003216  -0.000183  -0.000008   0.000009
     3  H   -0.037216  -0.002415  -0.000121   0.000010  -0.000000
     4  C   -0.035837   0.005116  -0.070887  -0.002334  -0.001211
     5  H    0.001604  -0.000140  -0.003497   0.000459   0.002514
     6  C    0.001399  -0.000173   0.234849  -0.046490  -0.047660
     7  H   -0.000014   0.000000  -0.042607   0.003373  -0.001504
     8  H   -0.000010  -0.000001  -0.044516  -0.001162   0.003140
     9  C    0.000000  -0.000000   0.231469  -0.042801  -0.045694
    10  H    0.000000   0.000000  -0.047378   0.003067  -0.001582
    11  H    0.000000   0.000000  -0.042220  -0.001606   0.003148
    12  C   -0.000000   0.000000  -0.079814  -0.001235  -0.001012
    13  H    0.000000  -0.000000  -0.000966   0.002129   0.000035
    14  H    0.000000  -0.000000   0.002577   0.000017   0.002500
    15  N    0.000000  -0.000000   0.002368  -0.000007  -0.000020
    16  H   -0.000000   0.000000  -0.000018   0.000002   0.000001
    17  H   -0.000000   0.000000  -0.000140   0.000001   0.000000
    18  F    0.000263  -0.000055   0.000032   0.006510  -0.000198
    19  O    8.294168   0.269862  -0.000011  -0.000000   0.000000
    20  H    0.269862   0.398826   0.000001   0.000000  -0.000000
    21  C   -0.000011   0.000001   5.506241   0.384811   0.386042
    22  H   -0.000000   0.000000   0.384811   0.482139  -0.023848
    23  H    0.000000  -0.000000   0.386042  -0.023848   0.518039
 Mulliken charges:
               1
     1  C   -0.094734
     2  H    0.186114
     3  H    0.203071
     4  C    0.204688
     5  H    0.218380
     6  C   -0.477861
     7  H    0.211144
     8  H    0.229084
     9  C   -0.415224
    10  H    0.197047
    11  H    0.230737
    12  C   -0.201856
    13  H    0.218312
    14  H    0.179840
    15  N   -0.771256
    16  H    0.285248
    17  H    0.287310
    18  F   -0.409208
    19  O   -0.681542
    20  H    0.377370
    21  C   -0.420843
    22  H    0.236819
    23  H    0.207357
 Sum of Mulliken charges =  -0.00000
 Mulliken charges with hydrogens summed into heavy atoms:
               1
     1  C    0.294451
     4  C    0.423068
     6  C   -0.037633
     9  C    0.012561
    12  C    0.196297
    15  N   -0.198698
    18  F   -0.409208
    19  O   -0.304171
    21  C    0.023334
 Electronic spatial extent (au):  <R**2>=           2457.4842
 Charge=             -0.0000 electrons
 Dipole moment (field-independent basis, Debye):
    X=             -0.4106    Y=             -3.1074    Z=              1.4794  Tot=              3.4660
 Quadrupole moment (field-independent basis, Debye-Ang):
   XX=            -53.4924   YY=            -56.5157   ZZ=            -57.1614
   XY=            -12.4725   XZ=            -10.1683   YZ=             -0.2670
 Traceless Quadrupole moment (field-independent basis, Debye-Ang):
   XX=              2.2308   YY=             -0.7925   ZZ=             -1.4383
   XY=            -12.4725   XZ=            -10.1683   YZ=             -0.2670
 Octapole moment (field-independent basis, Debye-Ang**2):
  XXX=             38.6978  YYY=              4.0429  ZZZ=             -1.7700  XYY=              1.7637
  XXY=            -29.8156  XXZ=             23.4749  XZZ=             13.1378  YZZ=              2.9115
  YYZ=              1.4825  XYZ=              7.0365
 Hexadecapole moment (field-independent basis, Debye-Ang**3):
 XXXX=          -2287.1139 YYYY=           -205.8586 ZZZZ=           -104.1484 XXXY=           -193.2285
 XXXZ=           -245.6165 YYYX=             12.7702 YYYZ=             -8.4140 ZZZX=             -9.0428
 ZZZY=             -3.1288 XXYY=           -447.1329 XXZZ=           -502.5999 YYZZ=            -52.4112
 XXYZ=            -19.6952 YYXZ=             -0.8813 ZZXY=              3.6412
 N-N= 4.704047199387D+02 E-N=-2.026057308812D+03  KE= 4.609929940261D+02
 No NMR shielding tensors so no spin-rotation constants.
 Leave Link  601 at Sun Feb  9 19:22:41 2020, MaxMem=   280000000 cpu:               0.3 elap:               0.1
 (Enter /home/soft/g16/l9999.exe)
 1\1\GINC-MASTER\SP\RHF\3-21G\C6H14F1N1O1\LIWEI01\09-Feb-2020\0\\#p hf/
 3-21g\\gebf{dis=3.0 frag=conn charge=npa}\\0,1\C,0,-7.24124298,0.10811
 971,-0.52280285\H,0,-7.54800104,1.13259561,-0.48746708\H,0,-7.63794822
 ,-0.35281555,-1.40317983\C,0,-5.70334476,0.03350295,-0.55282649\H,0,-5
 .30663952,0.49443822,0.32755049\C,0,-5.17790776,0.76996336,-1.79907768
 \H,0,-5.48466583,1.79443926,-1.76374191\H,0,-5.57461301,0.30902809,-2.
 67945466\C,0,-3.11457255,1.43180701,-3.07535251\H,0,-3.42133061,2.4562
 8291,-3.04001674\H,0,-3.51127779,0.97087174,-3.95572949\C,0,-1.5766743
 3,1.35719024,-3.10537615\H,0,-1.26991626,0.33271434,-3.14071191\H,0,-1
 .17996909,1.81812551,-2.22499917\N,0,-1.07512083,2.06017518,-4.2949795
 5\H,0,-1.36181061,3.01762929,-4.26195547\H,0,-0.07648562,2.01172274,-4
 .31447543\F,0,-5.31631356,-1.2590601,-0.597409\O,0,-7.72914876,-0.5757
 3638,0.6344304\H,0,-8.68783856,-0.52922204,0.65314644\C,0,-3.64000955,
 0.6953466,-1.82910132\H,0,-3.33325148,-0.32912931,-1.86443708\H,0,-3.2
 433043,1.15628186,-0.94872434\\Version=ES64L-G16RevA.03\State=1-A\HF=-
 461.5210976\RMSD=5.445e-09\Dipole=-0.3557853,1.3149276,-0.0618817\Quad
 rupole=12.080581,-2.1691994,-9.9113816,0.3971813,2.3730529,3.8820691\P
 G=C01 [X(C6H14F1N1O1)]\\@


 HIGGLEDY-PIGGLEDY
 NIC'LAUS COPERNICUS
 LOOKED AT THE UNIVERSE,
 SPOKE TO THE THRONG;
 GIVE UP YOUR PTOLOMY,
 RISE UP AND FOLLOW ME,
 HELIOCENTRICALLY
 PTOLEMY'S WRONG.
   -- NANCY L. STARK
 Job cpu time:       0 days  0 hours  0 minutes  6.9 seconds.
 Elapsed time:       0 days  0 hours  0 minutes  2.1 seconds.
 File lengths (MBytes):  RWF=     72 Int=      0 D2E=      0 Chk=      8 Scr=      8
 Normal termination of Gaussian 16 at Sun Feb  9 19:22:41 2020.
